<event>
 4    5  0.2295023E-007  0.7527535E+03  0.7818608E-02  0.9824243E-01
         -2   -1    0    0    0  501 -0.00000000000E+00  0.00000000000E+00  0.49490633045E+03  0.49490633046E+03  0.25500000000E-02 0.  1.
          2   -1    0    0  501    0  0.00000000000E+00 -0.00000000000E+00 -0.33939084530E+04  0.33939084530E+04  0.25500000000E-02 0. -1.
    8880023    1    1    2    0    0 -0.11400289816E+03  0.34616600587E+03  0.18859772515E+03  0.77601989189E+03  0.65864270000E+03 0.  1.
    8880022    1    1    2    0    0  0.11400289816E+03 -0.34616600587E+03 -0.30875998477E+04  0.31127948916E+04  0.15294330000E+03 0.  0.
<mgrwt>
<rscale>  0 0.64077621E+03</rscale>
<asrwt>0</asrwt>
<pdfrwt beam="1">  1        2 0.52213975E+00 0.75275346E+03</pdfrwt>
<pdfrwt beam="2">  1       -2 0.76139437E-01 0.75275346E+03</pdfrwt>
<totfact> 0.16092290E+00</totfact>
</mgrwt>
</event>
<event>
 4    5  0.2489899E-007  0.1294285E+04  0.7818608E-02  0.9070511E-01
         -2   -1    0    0    0  501 -0.00000000000E+00  0.00000000000E+00  0.95184241302E+03  0.95184241302E+03  0.25500000000E-02 0.  1.
          2   -1    0    0  501    0  0.00000000000E+00 -0.00000000000E+00 -0.36341528046E+04  0.36341528046E+04  0.25500000000E-02 0. -1.
    8880023    1    1    2    0    0 -0.22278183285E+03 -0.10916643034E+04  0.35921966426E+03  0.13432094661E+04  0.65864270000E+03 0.  1.
    8880022    1    1    2    0    0  0.22278183285E+03  0.10916643034E+04 -0.30415300558E+04  0.32427857515E+04  0.15294330000E+03 0.  0.
<mgrwt>
<rscale>  0 0.12496061E+04</rscale>
<asrwt>0</asrwt>
<pdfrwt beam="1">  1        2 0.55910043E+00 0.12942847E+04</pdfrwt>
<pdfrwt beam="2">  1       -2 0.14643730E+00 0.12942847E+04</pdfrwt>
<totfact> 0.20480486E-01</totfact>
</mgrwt>
</event>
<event>
 4    5  0.2295023E-007  0.8848058E+03  0.7818608E-02  0.9550877E-01
         -2   -1    0    0    0  501 -0.00000000000E+00  0.00000000000E+00  0.89635768636E+03  0.89635768636E+03  0.25500000000E-02 0.  1.
          2   -1    0    0  501    0  0.00000000000E+00 -0.00000000000E+00 -0.20512704201E+04  0.20512704201E+04  0.25500000000E-02 0. -1.
    8880023    1    1    2    0    0  0.56667442806E+03  0.16718591251E+03  0.61361631311E+03  0.10767572720E+04  0.65864270000E+03 0.  1.
    8880022    1    1    2    0    0 -0.56667442806E+03 -0.16718591251E+03 -0.17685290469E+04  0.18708708345E+04  0.15294330000E+03 0.  0.
<mgrwt>
<rscale>  0 0.80634576E+03</rscale>
<asrwt>0</asrwt>
<pdfrwt beam="1">  1        2 0.31558007E+00 0.88480577E+03</pdfrwt>
<pdfrwt beam="2">  1       -2 0.13790118E+00 0.88480577E+03</pdfrwt>
<totfact> 0.23726816E+00</totfact>
</mgrwt>
</event>
<event>
 4    5  0.2295023E-007  0.9491310E+03  0.7818608E-02  0.9451366E-01
          2   -1    0    0  501    0  0.00000000000E+00  0.00000000000E+00  0.12467370453E+04  0.12467370453E+04  0.25500000000E-02 0. -1.
         -2   -1    0    0    0  501 -0.00000000000E+00 -0.00000000000E+00 -0.92983468466E+03  0.92983468467E+03  0.25500000000E-02 0.  1.
    8880023    1    1    2    0    0  0.18599151247E+03  0.65760666448E+03  0.86741292362E+03  0.12857895451E+04  0.65864270000E+03 0. -1.
    8880022    1    1    2    0    0 -0.18599151247E+03 -0.65760666448E+03 -0.55051056301E+03  0.89078218487E+03  0.15294330000E+03 0.  0.
<mgrwt>
<rscale>  0 0.87966405E+03</rscale>
<asrwt>0</asrwt>
<pdfrwt beam="1">  1        2 0.19180570E+00 0.94913096E+03</pdfrwt>
<pdfrwt beam="2">  1       -2 0.14305149E+00 0.94913096E+03</pdfrwt>
<totfact> 0.60140134E+00</totfact>
</mgrwt>
</event>
<event>
 4    5  0.2295023E-007  0.8693828E+03  0.7818608E-02  0.9577086E-01
          2   -1    0    0  501    0  0.00000000000E+00  0.00000000000E+00  0.10945576385E+04  0.10945576385E+04  0.25500000000E-02 0. -1.
         -2   -1    0    0    0  501 -0.00000000000E+00 -0.00000000000E+00 -0.15527619256E+04  0.15527619256E+04  0.25500000000E-02 0.  1.
    8880023    1    1    2    0    0  0.25943273061E+03 -0.50468896082E+03 -0.13341888318E+04  0.15924466503E+04  0.65864270000E+03 0.  0.
    8880022    1    1    2    0    0 -0.25943273061E+03  0.50468896082E+03  0.87598454461E+03  0.10548729138E+04  0.15294330000E+03 0.  0.
<mgrwt>
<rscale>  0 0.78831508E+03</rscale>
<asrwt>0</asrwt>
<pdfrwt beam="1">  1        2 0.16839348E+00 0.86938282E+03</pdfrwt>
<pdfrwt beam="2">  1       -2 0.23888645E+00 0.86938282E+03</pdfrwt>
<totfact> 0.16745423E+00</totfact>
</mgrwt>
</event>
<event>
 4    5  0.2295023E-007  0.7572989E+03  0.7818608E-02  0.9812151E-01
          2   -1    0    0  501    0  0.00000000000E+00  0.00000000000E+00  0.67163776329E+03  0.67163776329E+03  0.25500000000E-02 0. -1.
         -2   -1    0    0    0  501 -0.00000000000E+00 -0.00000000000E+00 -0.11584337233E+04  0.11584337233E+04  0.25500000000E-02 0.  1.
    8880023    1    1    2    0    0  0.36698431584E+03  0.70809019969E+02 -0.95041562355E+03  0.12152330925E+04  0.65864270000E+03 0.  1.
    8880022    1    1    2    0    0 -0.36698431584E+03 -0.70809019969E+02  0.46361966355E+03  0.61483839407E+03  0.15294330000E+03 0.  0.
<mgrwt>
<rscale>  0 0.64714500E+03</rscale>
<asrwt>0</asrwt>
<pdfrwt beam="1">  1        2 0.10332889E+00 0.75729889E+03</pdfrwt>
<pdfrwt beam="2">  1       -2 0.17822057E+00 0.75729889E+03</pdfrwt>
<totfact> 0.81884099E+00</totfact>
</mgrwt>
</event>
<event>
 4    5  0.2295023E-007  0.1923438E+04  0.7818608E-02  0.8657163E-01
         -2   -1    0    0    0  501 -0.00000000000E+00  0.00000000000E+00  0.22211054083E+04  0.22211054083E+04  0.25500000000E-02 0.  1.
          2   -1    0    0  501    0  0.00000000000E+00 -0.00000000000E+00 -0.16941484304E+04  0.16941484304E+04  0.25500000000E-02 0. -1.
    8880023    1    1    2    0    0  0.71790486650E+02 -0.18057266072E+04 -0.25496184899E+03  0.19402624061E+04  0.65864270000E+03 0.  0.
    8880022    1    1    2    0    0 -0.71790486650E+02  0.18057266072E+04  0.78191882687E+03  0.19749914326E+04  0.15294330000E+03 0.  0.
<mgrwt>
<rscale>  0 0.18953734E+04</rscale>
<asrwt>0</asrwt>
<pdfrwt beam="1">  1        2 0.26063822E+00 0.19234377E+04</pdfrwt>
<pdfrwt beam="2">  1       -2 0.34170852E+00 0.19234377E+04</pdfrwt>
<totfact> 0.15591008E-01</totfact>
</mgrwt>
</event>
<event>
 4    5  0.2295023E-007  0.1358974E+04  0.7818608E-02  0.9016235E-01
          2   -1    0    0  501    0  0.00000000000E+00  0.00000000000E+00  0.17856019347E+04  0.17856019347E+04  0.25500000000E-02 0. -1.
         -2   -1    0    0    0  501 -0.00000000000E+00 -0.00000000000E+00 -0.10222339077E+04  0.10222339077E+04  0.25500000000E-02 0.  1.
    8880023    1    1    2    0    0  0.11717600770E+04 -0.19994870276E+03  0.85545611451E+03  0.16058071278E+04  0.65864270000E+03 0. -1.
    8880022    1    1    2    0    0 -0.11717600770E+04  0.19994870276E+03 -0.92088087571E+02  0.12020287145E+04  0.15294330000E+03 0.  0.
<mgrwt>
<rscale>  0 0.13169449E+04</rscale>
<asrwt>0</asrwt>
<pdfrwt beam="1">  1        2 0.27470799E+00 0.13589744E+04</pdfrwt>
<pdfrwt beam="2">  1       -2 0.15726676E+00 0.13589744E+04</pdfrwt>
<totfact> 0.22190117E+00</totfact>
</mgrwt>
</event>
<event>
 4    5  0.2295023E-007  0.1175033E+04  0.7818608E-02  0.9181782E-01
          2   -1    0    0  501    0  0.00000000000E+00  0.00000000000E+00  0.14874130626E+04  0.14874130626E+04  0.25500000000E-02 0. -1.
         -2   -1    0    0    0  501 -0.00000000000E+00 -0.00000000000E+00 -0.82369546412E+03  0.82369546413E+03  0.25500000000E-02 0.  1.
    8880023    1    1    2    0    0 -0.96578835485E+03 -0.11893421635E+03  0.10763294037E+03  0.11799523509E+04  0.65864270000E+03 0.  1.
    8880022    1    1    2    0    0  0.96578835485E+03  0.11893421635E+03  0.55608465810E+03  0.11311561759E+04  0.15294330000E+03 0.  0.
<mgrwt>
<rscale>  0 0.11243459E+04</rscale>
<asrwt>0</asrwt>
<pdfrwt beam="1">  1        2 0.22883278E+00 0.11750331E+04</pdfrwt>
<pdfrwt beam="2">  1       -2 0.12672238E+00 0.11750331E+04</pdfrwt>
<totfact> 0.58369396E+00</totfact>
</mgrwt>
</event>
<event>
 4    5  0.2295023E-007  0.1286513E+04  0.7818608E-02  0.9077295E-01
          2   -1    0    0  501    0  0.00000000000E+00  0.00000000000E+00  0.13230193160E+04  0.13230193160E+04  0.25500000000E-02 0. -1.
         -2   -1    0    0    0  501 -0.00000000000E+00 -0.00000000000E+00 -0.21218296971E+04  0.21218296971E+04  0.25500000000E-02 0.  1.
    8880023    1    1    2    0    0  0.80868851617E+03  0.75321200737E+03 -0.16133408975E+04  0.20634884303E+04  0.65864270000E+03 0.  0.
    8880022    1    1    2    0    0 -0.80868851617E+03 -0.75321200737E+03  0.81453051644E+03  0.13813605827E+04  0.15294330000E+03 0.  0.
<mgrwt>
<rscale>  0 0.12414910E+04</rscale>
<asrwt>0</asrwt>
<pdfrwt beam="1">  1        2 0.20354143E+00 0.12865130E+04</pdfrwt>
<pdfrwt beam="2">  1       -2 0.32643534E+00 0.12865130E+04</pdfrwt>
<totfact> 0.33871168E-01</totfact>
</mgrwt>
</event>
<event>
 4    5  0.2295023E-007  0.1097129E+04  0.7818608E-02  0.9264259E-01
          2   -1    0    0  501    0  0.00000000000E+00  0.00000000000E+00  0.36007374570E+04  0.36007374570E+04  0.25500000000E-02 0. -1.
         -2   -1    0    0    0  501 -0.00000000000E+00 -0.00000000000E+00 -0.77196697870E+03  0.77196697871E+03  0.25500000000E-02 0.  1.
    8880023    1    1    2    0    0  0.86822953453E+03 -0.12672442266E+03 -0.28542445396E+03  0.11336485033E+04  0.65864270000E+03 0.  0.
    8880022    1    1    2    0    0 -0.86822953453E+03  0.12672442266E+03  0.31141949322E+04  0.32390559323E+04  0.15294330000E+03 0.  0.
<mgrwt>
<rscale>  0 0.10414084E+04</rscale>
<asrwt>0</asrwt>
<pdfrwt beam="1">  1        2 0.55395961E+00 0.10971289E+04</pdfrwt>
<pdfrwt beam="2">  1       -2 0.11876415E+00 0.10971289E+04</pdfrwt>
<totfact> 0.38219622E-01</totfact>
</mgrwt>
</event>
<event>
 4    5  0.2295023E-007  0.7285754E+03  0.7818608E-02  0.9894571E-01
         -2   -1    0    0    0  501 -0.00000000000E+00  0.00000000000E+00  0.50554032870E+03  0.50554032870E+03  0.25500000000E-02 0.  1.
          2   -1    0    0  501    0  0.00000000000E+00 -0.00000000000E+00 -0.24045928496E+04  0.24045928496E+04  0.25500000000E-02 0. -1.
    8880023    1    1    2    0    0 -0.30223061475E+03 -0.75289722299E+02  0.22140385524E+03  0.76147341395E+03  0.65864270000E+03 0.  1.
    8880022    1    1    2    0    0  0.30223061475E+03  0.75289722299E+02 -0.21204563762E+04  0.21486597644E+04  0.15294330000E+03 0.  0.
<mgrwt>
<rscale>  0 0.60525137E+03</rscale>
<asrwt>0</asrwt>
<pdfrwt beam="1">  1        2 0.36993736E+00 0.72857539E+03</pdfrwt>
<pdfrwt beam="2">  1       -2 0.77775437E-01 0.72857539E+03</pdfrwt>
<totfact> 0.61138811E+00</totfact>
</mgrwt>
</event>
<event>
 4    5  0.2295023E-007  0.7922697E+03  0.7818608E-02  0.9727767E-01
          2   -1    0    0  501    0  0.00000000000E+00  0.00000000000E+00  0.20257926802E+04  0.20257926802E+04  0.25500000000E-02 0. -1.
         -2   -1    0    0    0  501 -0.00000000000E+00 -0.00000000000E+00 -0.24155296713E+04  0.24155296713E+04  0.25500000000E-02 0.  1.
    8880023    1    1    2    0    0 -0.17931507174E+03 -0.40215317263E+03 -0.23220992691E+04  0.24535354677E+04  0.65864270000E+03 0.  1.
    8880022    1    1    2    0    0  0.17931507174E+03  0.40215317263E+03  0.19323622780E+04  0.19877868839E+04  0.15294330000E+03 0.  0.
<mgrwt>
<rscale>  0 0.69387371E+03</rscale>
<asrwt>0</asrwt>
<pdfrwt beam="1">  1        2 0.31166041E+00 0.79226970E+03</pdfrwt>
<pdfrwt beam="2">  1       -2 0.37161995E+00 0.79226970E+03</pdfrwt>
<totfact> 0.78576712E-02</totfact>
</mgrwt>
</event>
<event>
 4    5  0.2295023E-007  0.9583615E+03  0.7818608E-02  0.9438184E-01
          2   -1    0    0  501    0  0.00000000000E+00  0.00000000000E+00  0.21778333114E+04  0.21778333114E+04  0.25500000000E-02 0. -1.
         -2   -1    0    0    0  501 -0.00000000000E+00 -0.00000000000E+00 -0.50447093644E+03  0.50447093644E+03  0.25500000000E-02 0.  1.
    8880023    1    1    2    0    0  0.57305696906E+03  0.39528769581E+03  0.17189749937E+04  0.19680782219E+04  0.65864270000E+03 0. -1.
    8880022    1    1    2    0    0 -0.57305696906E+03 -0.39528769581E+03 -0.45612618673E+02  0.71422602602E+03  0.15294330000E+03 0.  0.
<mgrwt>
<rscale>  0 0.88998788E+03</rscale>
<asrwt>0</asrwt>
<pdfrwt beam="1">  1        2 0.33505128E+00 0.95836155E+03</pdfrwt>
<pdfrwt beam="2">  1       -2 0.77610913E-01 0.95836155E+03</pdfrwt>
<totfact> 0.79416850E+00</totfact>
</mgrwt>
</event>
<event>
 4    5  0.2295023E-007  0.7277918E+03  0.7818608E-02  0.9897052E-01
          2   -1    0    0  501    0  0.00000000000E+00  0.00000000000E+00  0.18281356594E+04  0.18281356594E+04  0.25500000000E-02 0. -1.
         -2   -1    0    0    0  501 -0.00000000000E+00 -0.00000000000E+00 -0.55072896739E+03  0.55072896740E+03  0.25500000000E-02 0.  1.
    8880023    1    1    2    0    0  0.91470713743E+02 -0.29581051447E+03 -0.28286697391E+03  0.78082948403E+03  0.65864270000E+03 0.  1.
    8880022    1    1    2    0    0 -0.91470713743E+02  0.29581051447E+03  0.15602736659E+04  0.15980351427E+04  0.15294330000E+03 0.  0.
<mgrwt>
<rscale>  0 0.60404366E+03</rscale>
<asrwt>0</asrwt>
<pdfrwt beam="1">  1        2 0.28125164E+00 0.72779184E+03</pdfrwt>
<pdfrwt beam="2">  1       -2 0.84727534E-01 0.72779184E+03</pdfrwt>
<totfact> 0.10453965E+01</totfact>
</mgrwt>
</event>
<event>
 4    5  0.2295023E-007  0.7332438E+03  0.7818608E-02  0.9880083E-01
          2   -1    0    0  501    0  0.00000000000E+00  0.00000000000E+00  0.26316911572E+04  0.26316911572E+04  0.25500000000E-02 0. -1.
         -2   -1    0    0    0  501 -0.00000000000E+00 -0.00000000000E+00 -0.54304864143E+03  0.54304864144E+03  0.25500000000E-02 0.  1.
    8880023    1    1    2    0    0 -0.74428197965E+02  0.31352316814E+03 -0.27590914525E+03  0.78343627456E+03  0.65864270000E+03 0.  1.
    8880022    1    1    2    0    0  0.74428197965E+02 -0.31352316814E+03  0.23645516610E+04  0.23913035241E+04  0.15294330000E+03 0.  0.
<mgrwt>
<rscale>  0 0.61236330E+03</rscale>
<asrwt>0</asrwt>
<pdfrwt beam="1">  1        2 0.40487556E+00 0.73324385E+03</pdfrwt>
<pdfrwt beam="2">  1       -2 0.83545945E-01 0.73324385E+03</pdfrwt>
<totfact> 0.38634931E+00</totfact>
</mgrwt>
</event>
<event>
 4    5  0.2295023E-007  0.6854477E+03  0.7818608E-02  0.1006396E+00
          2   -1    0    0  501    0  0.00000000000E+00  0.00000000000E+00  0.17024376944E+04  0.17024376944E+04  0.25500000000E-02 0. -1.
         -2   -1    0    0    0  501 -0.00000000000E+00 -0.00000000000E+00 -0.32752402888E+03  0.32752402889E+03  0.25500000000E-02 0.  1.
    8880023    1    1    2    0    0 -0.15579976788E+02 -0.18917100860E+03  0.54914861386E+02  0.68764398815E+03  0.65864270000E+03 0.  1.
    8880022    1    1    2    0    0  0.15579976788E+02  0.18917100860E+03  0.13199988041E+04  0.13423177351E+04  0.15294330000E+03 0.  0.
<mgrwt>
<rscale>  0 0.52932499E+03</rscale>
<asrwt>0</asrwt>
<pdfrwt beam="1">  1        2 0.26191349E+00 0.68544775E+03</pdfrwt>
<pdfrwt beam="2">  1       -2 0.50388312E-01 0.68544775E+03</pdfrwt>
<totfact> 0.37660741E+01</totfact>
</mgrwt>
</event>
<event>
 4    5  0.2295023E-007  0.6609460E+03  0.7818608E-02  0.1023207E+00
          2   -1    0    0  501    0  0.00000000000E+00  0.00000000000E+00  0.20552462323E+04  0.20552462323E+04  0.25500000000E-02 0. -1.
         -2   -1    0    0    0  501 -0.00000000000E+00 -0.00000000000E+00 -0.43032923837E+03  0.43032923838E+03  0.25500000000E-02 0.  1.
    8880023    1    1    2    0    0 -0.52946470194E+02  0.15366277296E+02 -0.17068423622E+03  0.68262930346E+03  0.65864270000E+03 0.  1.
    8880022    1    1    2    0    0  0.52946470194E+02 -0.15366277296E+02  0.17956012301E+04  0.18029461672E+04  0.15294330000E+03 0.  0.
<mgrwt>
<rscale>  0 0.46546702E+03</rscale>
<asrwt>0</asrwt>
<pdfrwt beam="1">  1        2 0.31619173E+00 0.66094603E+03</pdfrwt>
<pdfrwt beam="2">  1       -2 0.66204498E-01 0.66094603E+03</pdfrwt>
<totfact> 0.13725352E+01</totfact>
</mgrwt>
</event>
<event>
 4    5  0.2295023E-007  0.8240157E+03  0.7818608E-02  0.9661090E-01
         -2   -1    0    0    0  501 -0.00000000000E+00  0.00000000000E+00  0.50406836092E+03  0.50406836093E+03  0.25500000000E-02 0.  1.
          2   -1    0    0  501    0  0.00000000000E+00 -0.00000000000E+00 -0.89359344034E+03  0.89359344035E+03  0.25500000000E-02 0. -1.
    8880023    1    1    2    0    0 -0.86261285512E+02  0.48759678482E+03 -0.24274762369E+03  0.85902750190E+03  0.65864270000E+03 0.  0.
    8880022    1    1    2    0    0  0.86261285512E+02 -0.48759678482E+03 -0.14677745573E+03  0.53863429938E+03  0.15294330000E+03 0.  1.
<mgrwt>
<rscale>  0 0.73381482E+03</rscale>
<asrwt>0</asrwt>
<pdfrwt beam="1">  1        2 0.13747591E+00 0.82401568E+03</pdfrwt>
<pdfrwt beam="2">  1       -2 0.77548979E-01 0.82401568E+03</pdfrwt>
<totfact> 0.44273805E+01</totfact>
</mgrwt>
</event>
<event>
 4    5  0.2295023E-007  0.6842428E+03  0.7818608E-02  0.1007019E+00
         -2   -1    0    0    0  501 -0.00000000000E+00  0.00000000000E+00  0.66172765180E+03  0.66172765180E+03  0.25500000000E-02 0.  1.
          2   -1    0    0  501    0  0.00000000000E+00 -0.00000000000E+00 -0.67077458505E+03  0.67077458505E+03  0.25500000000E-02 0. -1.
    8880023    1    1    2    0    0  0.77690039766E+02  0.16835163213E+03  0.44677874714E+03  0.81718998371E+03  0.65864270000E+03 0.  1.
    8880022    1    1    2    0    0 -0.77690039766E+02 -0.16835163213E+03 -0.45582568039E+03  0.51531225314E+03  0.15294330000E+03 0.  0.
<mgrwt>
<rscale>  0 0.52676895E+03</rscale>
<asrwt>0</asrwt>
<pdfrwt beam="1">  1        2 0.10319609E+00 0.68424281E+03</pdfrwt>
<pdfrwt beam="2">  1       -2 0.10180425E+00 0.68424281E+03</pdfrwt>
<totfact> 0.34864465E+01</totfact>
</mgrwt>
</event>
<event>
 4    5  0.2295023E-007  0.1305831E+04  0.7818608E-02  0.9060541E-01
          2   -1    0    0  501    0  0.00000000000E+00  0.00000000000E+00  0.26310025038E+04  0.26310025038E+04  0.25500000000E-02 0. -1.
         -2   -1    0    0    0  501 -0.00000000000E+00 -0.00000000000E+00 -0.82831537805E+03  0.82831537805E+03  0.25500000000E-02 0.  1.
    8880023    1    1    2    0    0 -0.59378442952E+03  0.95854300709E+03  0.19128968330E+04  0.23161107800E+04  0.65864270000E+03 0. -1.
    8880022    1    1    2    0    0  0.59378442952E+03 -0.95854300709E+03 -0.11020970725E+03  0.11432071019E+04  0.15294330000E+03 0.  0.
<mgrwt>
<rscale>  0 0.12616520E+04</rscale>
<asrwt>0</asrwt>
<pdfrwt beam="1">  1        2 0.40476962E+00 0.13058311E+04</pdfrwt>
<pdfrwt beam="2">  1       -2 0.12743314E+00 0.13058311E+04</pdfrwt>
<totfact> 0.12914823E+00</totfact>
</mgrwt>
</event>
<event>
 4    5  0.2295023E-007  0.6873956E+03  0.7818608E-02  0.1005416E+00
          2   -1    0    0  501    0  0.00000000000E+00  0.00000000000E+00  0.22107076697E+03  0.22107076699E+03  0.25500000000E-02 0. -1.
         -2   -1    0    0    0  501 -0.00000000000E+00 -0.00000000000E+00 -0.30538916507E+04  0.30538916507E+04  0.25500000000E-02 0.  1.
    8880023    1    1    2    0    0 -0.18893785989E+03 -0.54818209925E+02 -0.29284584438E+04  0.30080527945E+04  0.65864270000E+03 0.  1.
    8880022    1    1    2    0    0  0.18893785989E+03  0.54818209925E+02  0.95637560089E+02  0.26690962320E+03  0.15294330000E+03 0.  0.
<mgrwt>
<rscale>  0 0.53337967E+03</rscale>
<asrwt>0</asrwt>
<pdfrwt beam="1">  1        2 0.34010890E-01 0.68739563E+03</pdfrwt>
<pdfrwt beam="2">  1       -2 0.46982945E+00 0.68739563E+03</pdfrwt>
<totfact> 0.42663449E-01</totfact>
</mgrwt>
</event>
<event>
 4    5  0.2295023E-007  0.1671598E+04  0.7818608E-02  0.8797100E-01
         -2   -1    0    0    0  501 -0.00000000000E+00  0.00000000000E+00  0.16024360910E+04  0.16024360910E+04  0.25500000000E-02 0.  1.
          2   -1    0    0  501    0  0.00000000000E+00 -0.00000000000E+00 -0.28614639867E+04  0.28614639867E+04  0.25500000000E-02 0. -1.
    8880023    1    1    2    0    0  0.14491933994E+04 -0.51016522522E+03  0.82993480747E+03  0.18662883102E+04  0.65864270000E+03 0.  0.
    8880022    1    1    2    0    0 -0.14491933994E+04  0.51016522522E+03 -0.20889627033E+04  0.25976117675E+04  0.15294330000E+03 0.  0.
<mgrwt>
<rscale>  0 0.16387327E+04</rscale>
<asrwt>0</asrwt>
<pdfrwt beam="1">  1        2 0.44022523E+00 0.16715981E+04</pdfrwt>
<pdfrwt beam="2">  1       -2 0.24652863E+00 0.16715981E+04</pdfrwt>
<totfact> 0.13177756E-01</totfact>
</mgrwt>
</event>
<event>
 4    5  0.2295023E-007  0.8859675E+03  0.7818608E-02  0.9548944E-01
         -2   -1    0    0    0  501 -0.00000000000E+00  0.00000000000E+00  0.57085818271E+03  0.57085818271E+03  0.25500000000E-02 0.  1.
          2   -1    0    0  501    0  0.00000000000E+00 -0.00000000000E+00 -0.15538128786E+04  0.15538128786E+04  0.25500000000E-02 0. -1.
    8880023    1    1    2    0    0 -0.43900597683E+03  0.39799751982E+03  0.88896529004E+02  0.89041623560E+03  0.65864270000E+03 0.  1.
    8880022    1    1    2    0    0  0.43900597683E+03 -0.39799751982E+03 -0.10718512249E+04  0.12342548257E+04  0.15294330000E+03 0.  0.
<mgrwt>
<rscale>  0 0.80769561E+03</rscale>
<asrwt>0</asrwt>
<pdfrwt beam="1">  1        2 0.23904813E+00 0.88596754E+03</pdfrwt>
<pdfrwt beam="2">  1       -2 0.87824336E-01 0.88596754E+03</pdfrwt>
<totfact> 0.13350666E+01</totfact>
</mgrwt>
</event>
<event>
 4    5  0.2295023E-007  0.8801394E+03  0.7818608E-02  0.9558697E-01
          2   -1    0    0  501    0  0.00000000000E+00  0.00000000000E+00  0.15912151820E+04  0.15912151820E+04  0.25500000000E-02 0. -1.
         -2   -1    0    0    0  501 -0.00000000000E+00 -0.00000000000E+00 -0.52423935981E+03  0.52423935982E+03  0.25500000000E-02 0.  1.
    8880023    1    1    2    0    0 -0.32653532269E+03 -0.48395223535E+03 -0.10805693697E+02  0.88020568752E+03  0.65864270000E+03 0. -1.
    8880022    1    1    2    0    0  0.32653532269E+03  0.48395223535E+03  0.10777815159E+04  0.12352488543E+04  0.15294330000E+03 0.  0.
<mgrwt>
<rscale>  0 0.80091248E+03</rscale>
<asrwt>0</asrwt>
<pdfrwt beam="1">  1        2 0.24480233E+00 0.88013936E+03</pdfrwt>
<pdfrwt beam="2">  1       -2 0.80652210E-01 0.88013936E+03</pdfrwt>
<totfact> 0.15463007E+01</totfact>
</mgrwt>
</event>
<event>
 4    5  0.2295023E-007  0.7101374E+03  0.7818608E-02  0.9957491E-01
         -2   -1    0    0    0  501 -0.00000000000E+00  0.00000000000E+00  0.57639541623E+03  0.57639541624E+03  0.25500000000E-02 0.  1.
          2   -1    0    0  501    0  0.00000000000E+00 -0.00000000000E+00 -0.18803132323E+04  0.18803132323E+04  0.25500000000E-02 0. -1.
    8880023    1    1    2    0    0  0.23363994923E+03 -0.12608466371E+03  0.33798255522E+03  0.78646511823E+03  0.65864270000E+03 0.  1.
    8880022    1    1    2    0    0 -0.23363994923E+03  0.12608466371E+03 -0.16419003712E+04  0.16702435303E+04  0.15294330000E+03 0.  0.
<mgrwt>
<rscale>  0 0.57554129E+03</rscale>
<asrwt>0</asrwt>
<pdfrwt beam="1">  1        2 0.28927896E+00 0.71013743E+03</pdfrwt>
<pdfrwt beam="2">  1       -2 0.88676218E-01 0.71013743E+03</pdfrwt>
<totfact> 0.88480777E+00</totfact>
</mgrwt>
</event>
<event>
 4    5  0.2295023E-007  0.9081382E+03  0.7818608E-02  0.9513091E-01
          2   -1    0    0  501    0  0.00000000000E+00  0.00000000000E+00  0.25994919796E+04  0.25994919796E+04  0.25500000000E-02 0. -1.
         -2   -1    0    0    0  501 -0.00000000000E+00 -0.00000000000E+00 -0.83987607670E+03  0.83987607670E+03  0.25500000000E-02 0.  1.
    8880023    1    1    2    0    0  0.21694351452E+02  0.62484728037E+03  0.23787893743E+04  0.25462430878E+04  0.65864270000E+03 0. -1.
    8880022    1    1    2    0    0 -0.21694351452E+02 -0.62484728037E+03 -0.61917347139E+03  0.89312496850E+03  0.15294330000E+03 0.  0.
<mgrwt>
<rscale>  0 0.83325486E+03</rscale>
<asrwt>0</asrwt>
<pdfrwt beam="1">  1        2 0.39992185E+00 0.90813819E+03</pdfrwt>
<pdfrwt beam="2">  1       -2 0.12921170E+00 0.90813819E+03</pdfrwt>
<totfact> 0.13748134E+00</totfact>
</mgrwt>
</event>
<event>
 4    5  0.2567407E-007  0.1301210E+04  0.7818608E-02  0.9064515E-01
         -2   -1    0    0    0  501 -0.00000000000E+00  0.00000000000E+00  0.10234982526E+04  0.10234982526E+04  0.25500000000E-02 0.  1.
          2   -1    0    0  501    0  0.00000000000E+00 -0.00000000000E+00 -0.34876562941E+04  0.34876562941E+04  0.25500000000E-02 0. -1.
    8880023    1    1    2    0    0 -0.28680239503E+03 -0.10849343242E+04  0.45620270011E+03  0.13788651897E+04  0.65864270000E+03 0.  1.
    8880022    1    1    2    0    0  0.28680239503E+03  0.10849343242E+04 -0.29203607416E+04  0.31322893569E+04  0.15294330000E+03 0.  0.
<mgrwt>
<rscale>  0 0.12568328E+04</rscale>
<asrwt>0</asrwt>
<pdfrwt beam="1">  1        2 0.53656250E+00 0.13012103E+04</pdfrwt>
<pdfrwt beam="2">  1       -2 0.15746127E+00 0.13012103E+04</pdfrwt>
<totfact> 0.21346342E-01</totfact>
</mgrwt>
</event>
<event>
 4    5  0.2295023E-007  0.1201827E+04  0.7818608E-02  0.9155349E-01
         -2   -1    0    0    0  501 -0.00000000000E+00  0.00000000000E+00  0.12172658740E+04  0.12172658741E+04  0.25500000000E-02 0.  1.
          2   -1    0    0  501    0  0.00000000000E+00 -0.00000000000E+00 -0.13609285350E+04  0.13609285350E+04  0.25500000000E-02 0. -1.
    8880023    1    1    2    0    0 -0.70972670877E+03  0.71194474555E+03  0.57572316163E+03  0.13326082271E+04  0.65864270000E+03 0.  1.
    8880022    1    1    2    0    0  0.70972670877E+03 -0.71194474555E+03 -0.71938582254E+03  0.12455861819E+04  0.15294330000E+03 0.  0.
<mgrwt>
<rscale>  0 0.11526431E+04</rscale>
<asrwt>0</asrwt>
<pdfrwt beam="1">  1        2 0.20937362E+00 0.12018267E+04</pdfrwt>
<pdfrwt beam="2">  1       -2 0.18727167E+00 0.12018267E+04</pdfrwt>
<totfact> 0.23910773E+00</totfact>
</mgrwt>
</event>
<event>
 4    5  0.2295023E-007  0.7542900E+03  0.7818608E-02  0.9820121E-01
         -2   -1    0    0    0  501 -0.00000000000E+00  0.00000000000E+00  0.14397949862E+04  0.14397949862E+04  0.25500000000E-02 0.  1.
          2   -1    0    0  501    0  0.00000000000E+00 -0.00000000000E+00 -0.68333329167E+03  0.68333329167E+03  0.25500000000E-02 0. -1.
    8880023    1    1    2    0    0  0.34089921206E+03 -0.13758962933E+03  0.12676994136E+04  0.14751322614E+04  0.65864270000E+03 0.  1.
    8880022    1    1    2    0    0 -0.34089921206E+03  0.13758962933E+03 -0.51123771915E+03  0.64799601648E+03  0.15294330000E+03 0.  0.
<mgrwt>
<rscale>  0 0.64293837E+03</rscale>
<asrwt>0</asrwt>
<pdfrwt beam="1">  1        2 0.10512820E+00 0.75428999E+03</pdfrwt>
<pdfrwt beam="2">  1       -2 0.22150692E+00 0.75428999E+03</pdfrwt>
<totfact> 0.41821512E+00</totfact>
</mgrwt>
</event>
<event>
 4    5  0.2295023E-007  0.1124487E+04  0.7818608E-02  0.9234271E-01
         -2   -1    0    0    0  501 -0.00000000000E+00  0.00000000000E+00  0.12498578767E+04  0.12498578767E+04  0.25500000000E-02 0.  1.
          2   -1    0    0  501    0  0.00000000000E+00 -0.00000000000E+00 -0.39289535192E+04  0.39289535192E+04  0.25500000000E-02 0. -1.
    8880023    1    1    2    0    0  0.17276517093E+03  0.89488137804E+03  0.92628623999E+03  0.14568722970E+04  0.65864270000E+03 0.  0.
    8880022    1    1    2    0    0 -0.17276517093E+03 -0.89488137804E+03 -0.36053818824E+04  0.37219390989E+04  0.15294330000E+03 0.  0.
<mgrwt>
<rscale>  0 0.10706594E+04</rscale>
<asrwt>0</asrwt>
<pdfrwt beam="1">  1        2 0.60445438E+00 0.11244869E+04</pdfrwt>
<pdfrwt beam="2">  1       -2 0.19228583E+00 0.11244869E+04</pdfrwt>
<totfact> 0.59444614E-02</totfact>
</mgrwt>
</event>
<event>
 4    5  0.2295023E-007  0.1256393E+04  0.7818608E-02  0.9104163E-01
         -2   -1    0    0    0  501 -0.00000000000E+00  0.00000000000E+00  0.16821328750E+04  0.16821328750E+04  0.25500000000E-02 0.  1.
          2   -1    0    0  501    0  0.00000000000E+00 -0.00000000000E+00 -0.11993735091E+04  0.11993735091E+04  0.25500000000E-02 0. -1.
    8880023    1    1    2    0    0  0.60394579685E+03 -0.88315476495E+03  0.10710688725E+04  0.16509729254E+04  0.65864270000E+03 0.  0.
    8880022    1    1    2    0    0 -0.60394579685E+03  0.88315476495E+03 -0.58830950668E+03  0.12305334587E+04  0.15294330000E+03 0.  0.
<mgrwt>
<rscale>  0 0.12099831E+04</rscale>
<asrwt>0</asrwt>
<pdfrwt beam="1">  1        2 0.18451900E+00 0.12563929E+04</pdfrwt>
<pdfrwt beam="2">  1       -2 0.25878967E+00 0.12563929E+04</pdfrwt>
<totfact> 0.10404841E+00</totfact>
</mgrwt>
</event>
<event>
 4    5  0.2295023E-007  0.1108025E+04  0.7818608E-02  0.9252174E-01
          2   -1    0    0  501    0  0.00000000000E+00  0.00000000000E+00  0.38815925725E+04  0.38815925725E+04  0.25500000000E-02 0. -1.
         -2   -1    0    0    0  501 -0.00000000000E+00 -0.00000000000E+00 -0.80529230556E+03  0.80529230557E+03  0.25500000000E-02 0.  1.
    8880023    1    1    2    0    0 -0.38769444726E+03 -0.80224821867E+03 -0.33521046913E+03  0.11576206001E+04  0.65864270000E+03 0.  1.
    8880022    1    1    2    0    0  0.38769444726E+03  0.80224821867E+03  0.34115107361E+04  0.35292642781E+04  0.15294330000E+03 0.  0.
<mgrwt>
<rscale>  0 0.10530765E+04</rscale>
<asrwt>0</asrwt>
<pdfrwt beam="1">  1        2 0.59716809E+00 0.11080250E+04</pdfrwt>
<pdfrwt beam="2">  1       -2 0.12389112E+00 0.11080250E+04</pdfrwt>
<totfact> 0.21321435E-01</totfact>
</mgrwt>
</event>
<event>
 4    5  0.2295023E-007  0.7760389E+03  0.7818608E-02  0.9765225E-01
          2   -1    0    0  501    0  0.00000000000E+00  0.00000000000E+00  0.35523753205E+04  0.35523753205E+04  0.25500000000E-02 0. -1.
         -2   -1    0    0    0  501 -0.00000000000E+00 -0.00000000000E+00 -0.40649307660E+03  0.40649307660E+03  0.25500000000E-02 0.  1.
    8880023    1    1    2    0    0 -0.75008288295E+02 -0.40348468324E+03 -0.66413591312E+01  0.77606729530E+03  0.65864270000E+03 0.  1.
    8880022    1    1    2    0    0  0.75008288295E+02  0.40348468324E+03  0.31525236030E+04  0.31828011018E+04  0.15294330000E+03 0.  0.
<mgrwt>
<rscale>  0 0.67262610E+03</rscale>
<asrwt>0</asrwt>
<pdfrwt beam="1">  1        2 0.54651930E+00 0.77603888E+03</pdfrwt>
<pdfrwt beam="2">  1       -2 0.62537394E-01 0.77603888E+03</pdfrwt>
<totfact> 0.19186639E+00</totfact>
</mgrwt>
</event>
<event>
 4    5  0.2295023E-007  0.9586276E+03  0.7818608E-02  0.9437808E-01
          2   -1    0    0  501    0  0.00000000000E+00  0.00000000000E+00  0.50360661101E+03  0.50360661102E+03  0.25500000000E-02 0. -1.
         -2   -1    0    0    0  501 -0.00000000000E+00 -0.00000000000E+00 -0.17733419045E+04  0.17733419045E+04  0.25500000000E-02 0.  1.
    8880023    1    1    2    0    0 -0.55671664024E+03  0.41859675209E+03 -0.18117404149E+03  0.97559771318E+03  0.65864270000E+03 0.  0.
    8880022    1    1    2    0    0  0.55671664024E+03 -0.41859675209E+03 -0.10885612520E+04  0.13013508024E+04  0.15294330000E+03 0.  0.
<mgrwt>
<rscale>  0 0.89028483E+03</rscale>
<asrwt>0</asrwt>
<pdfrwt beam="1">  1        2 0.77477941E-01 0.95862759E+03</pdfrwt>
<pdfrwt beam="2">  1       -2 0.27282183E+00 0.95862759E+03</pdfrwt>
<totfact> 0.28661941E+00</totfact>
</mgrwt>
</event>
<event>
 4    5  0.3265263E-007  0.1085482E+04  0.7818608E-02  0.9277395E-01
         -2   -1    0    0    0  501 -0.00000000000E+00  0.00000000000E+00  0.16599446862E+04  0.16599446862E+04  0.25500000000E-02 0.  1.
          2   -1    0    0  501    0  0.00000000000E+00 -0.00000000000E+00 -0.22009983617E+04  0.22009983617E+04  0.25500000000E-02 0. -1.
    8880023    1    1    2    0    0  0.42034161037E+03 -0.75350734193E+03  0.13762961071E+04  0.17528438506E+04  0.65864270000E+03 0.  0.
    8880022    1    1    2    0    0 -0.42034161037E+03  0.75350734193E+03 -0.19173497826E+04  0.21080991973E+04  0.15294330000E+03 0.  0.
<mgrwt>
<rscale>  0 0.10289081E+04</rscale>
<asrwt>0</asrwt>
<pdfrwt beam="1">  1        2 0.33861513E+00 0.10854817E+04</pdfrwt>
<pdfrwt beam="2">  1       -2 0.25537611E+00 0.10854817E+04</pdfrwt>
<totfact> 0.30474408E-01</totfact>
</mgrwt>
</event>
<event>
 4    5  0.2295023E-007  0.2259336E+04  0.7818608E-02  0.8503679E-01
         -2   -1    0    0    0  501 -0.00000000000E+00  0.00000000000E+00  0.25674098604E+04  0.25674098604E+04  0.25500000000E-02 0.  1.
          2   -1    0    0  501    0  0.00000000000E+00 -0.00000000000E+00 -0.21511124701E+04  0.21511124701E+04  0.25500000000E-02 0. -1.
    8880023    1    1    2    0    0 -0.21599531850E+04  0.73413603977E+02  0.10058739585E+04  0.24731316069E+04  0.65864270000E+03 0.  0.
    8880022    1    1    2    0    0  0.21599531850E+04 -0.73413603977E+02 -0.58957656813E+03  0.22453907235E+04  0.15294330000E+03 0.  0.
<mgrwt>
<rscale>  0 0.22357875E+04</rscale>
<asrwt>0</asrwt>
<pdfrwt beam="1">  1        2 0.33094038E+00 0.22593356E+04</pdfrwt>
<pdfrwt beam="2">  1       -2 0.39498613E+00 0.22593356E+04</pdfrwt>
<totfact> 0.37989738E-02</totfact>
</mgrwt>
</event>
<event>
 4    5  0.2295023E-007  0.7026052E+03  0.7818608E-02  0.9986561E-01
         -2   -1    0    0    0  501 -0.00000000000E+00  0.00000000000E+00  0.59928493080E+03  0.59928493081E+03  0.25500000000E-02 0.  1.
          2   -1    0    0  501    0  0.00000000000E+00 -0.00000000000E+00 -0.17879953342E+04  0.17879953342E+04  0.25500000000E-02 0. -1.
    8880023    1    1    2    0    0  0.14631314175E+03  0.19605191528E+03  0.37552348274E+03  0.79666302869E+03  0.65864270000E+03 0.  1.
    8880022    1    1    2    0    0 -0.14631314175E+03 -0.19605191528E+03 -0.15642338861E+04  0.15906172363E+04  0.15294330000E+03 0.  0.
<mgrwt>
<rscale>  0 0.56243473E+03</rscale>
<asrwt>0</asrwt>
<pdfrwt beam="1">  1        2 0.27507620E+00 0.70260522E+03</pdfrwt>
<pdfrwt beam="2">  1       -2 0.92197683E-01 0.70260522E+03</pdfrwt>
<totfact> 0.90899363E+00</totfact>
</mgrwt>
</event>
<event>
 4    5  0.2295023E-007  0.6629085E+03  0.7818608E-02  0.1021357E+00
         -2   -1    0    0    0  501 -0.00000000000E+00  0.00000000000E+00  0.83446799002E+03  0.83446799002E+03  0.25500000000E-02 0.  1.
          2   -1    0    0  501    0  0.00000000000E+00 -0.00000000000E+00 -0.27260636406E+03  0.27260636407E+03  0.25500000000E-02 0. -1.
    8880023    1    1    2    0    0 -0.34882357481E+02  0.66487840470E+02  0.63836920299E+03  0.92030584991E+03  0.65864270000E+03 0.  1.
    8880022    1    1    2    0    0  0.34882357481E+02 -0.66487840470E+02 -0.76507577030E+02  0.18676850417E+03  0.15294330000E+03 0.  0.
<mgrwt>
<rscale>  0 0.47200250E+03</rscale>
<asrwt>0</asrwt>
<pdfrwt beam="1">  1        2 0.41939441E-01 0.66290845E+03</pdfrwt>
<pdfrwt beam="2">  1       -2 0.12837969E+00 0.66290845E+03</pdfrwt>
<totfact> 0.55613003E+01</totfact>
</mgrwt>
</event>
<event>
 4    5  0.2295023E-007  0.8744867E+03  0.7818608E-02  0.9568296E-01
         -2   -1    0    0    0  501 -0.00000000000E+00  0.00000000000E+00  0.51487069422E+03  0.51487069423E+03  0.25500000000E-02 0.  1.
          2   -1    0    0  501    0  0.00000000000E+00 -0.00000000000E+00 -0.15080212266E+04  0.15080212266E+04  0.25500000000E-02 0. -1.
    8880023    1    1    2    0    0 -0.14626050978E+02 -0.57506764045E+03 -0.11130370246E+02  0.87455749031E+03  0.65864270000E+03 0.  0.
    8880022    1    1    2    0    0  0.14626050978E+02  0.57506764045E+03 -0.98202016213E+03  0.11483344305E+04  0.15294330000E+03 0. -1.
<mgrwt>
<rscale>  0 0.79430550E+03</rscale>
<asrwt>0</asrwt>
<pdfrwt beam="1">  1        2 0.23200326E+00 0.87448666E+03</pdfrwt>
<pdfrwt beam="2">  1       -2 0.79210876E-01 0.87448666E+03</pdfrwt>
<totfact> 0.17927748E+01</totfact>
</mgrwt>
</event>
<event>
 4    5  0.2295023E-007  0.1751240E+04  0.7818608E-02  0.8749999E-01
         -2   -1    0    0    0  501 -0.00000000000E+00  0.00000000000E+00  0.11919680807E+04  0.11919680807E+04  0.25500000000E-02 0.  1.
          2   -1    0    0  501    0  0.00000000000E+00 -0.00000000000E+00 -0.29771034746E+04  0.29771034746E+04  0.25500000000E-02 0. -1.
    8880023    1    1    2    0    0  0.16037211288E+04  0.24720710259E+03  0.77672348458E+00  0.17512405946E+04  0.65864270000E+03 0.  1.
    8880022    1    1    2    0    0 -0.16037211288E+04 -0.24720710259E+03 -0.17859121174E+04  0.24178309607E+04  0.15294330000E+03 0.  0.
<mgrwt>
<rscale>  0 0.17200716E+04</rscale>
<asrwt>0</asrwt>
<pdfrwt beam="1">  1        2 0.45801592E+00 0.17512404E+04</pdfrwt>
<pdfrwt beam="2">  1       -2 0.18337970E+00 0.17512404E+04</pdfrwt>
<totfact> 0.28391290E-01</totfact>
</mgrwt>
</event>
<event>
 4    5  0.2295023E-007  0.7333523E+03  0.7818608E-02  0.9879752E-01
          2   -1    0    0  501    0  0.00000000000E+00  0.00000000000E+00  0.80788350170E+03  0.80788350170E+03  0.25500000000E-02 0. -1.
         -2   -1    0    0    0  501 -0.00000000000E+00 -0.00000000000E+00 -0.11160854351E+04  0.11160854351E+04  0.25500000000E-02 0.  1.
    8880023    1    1    2    0    0 -0.29387077058E+03 -0.13279826243E+03 -0.94367407059E+03  0.11951260879E+04  0.65864270000E+03 0.  1.
    8880022    1    1    2    0    0  0.29387077058E+03  0.13279826243E+03  0.63547213715E+03  0.72884284891E+03  0.15294330000E+03 0.  0.
<mgrwt>
<rscale>  0 0.61252690E+03</rscale>
<asrwt>0</asrwt>
<pdfrwt beam="1">  1        2 0.12428977E+00 0.73335231E+03</pdfrwt>
<pdfrwt beam="2">  1       -2 0.17170545E+00 0.73335231E+03</pdfrwt>
<totfact> 0.71898827E+00</totfact>
</mgrwt>
</event>
<event>
 4    5  0.2295023E-007  0.7713154E+03  0.7818608E-02  0.9776647E-01
          2   -1    0    0  501    0  0.00000000000E+00  0.00000000000E+00  0.26574253638E+04  0.26574253638E+04  0.25500000000E-02 0. -1.
         -2   -1    0    0    0  501 -0.00000000000E+00 -0.00000000000E+00 -0.22957823308E+03  0.22957823310E+03  0.25500000000E-02 0.  1.
    8880023    1    1    2    0    0  0.40070181328E+03 -0.23566159725E+02  0.51720073679E+03  0.92866792528E+03  0.65864270000E+03 0.  1.
    8880022    1    1    2    0    0 -0.40070181328E+03  0.23566159725E+02  0.19106463939E+04  0.19583356716E+04  0.15294330000E+03 0.  0.
<mgrwt>
<rscale>  0 0.66630980E+03</rscale>
<asrwt>0</asrwt>
<pdfrwt beam="1">  1        2 0.40883465E+00 0.77131544E+03</pdfrwt>
<pdfrwt beam="2">  1       -2 0.35319730E-01 0.77131544E+03</pdfrwt>
<totfact> 0.22159616E+01</totfact>
</mgrwt>
</event>
<event>
 4    5  0.2295023E-007  0.9784368E+03  0.7818608E-02  0.9410329E-01
         -2   -1    0    0    0  501 -0.00000000000E+00  0.00000000000E+00  0.46559154416E+03  0.46559154416E+03  0.25500000000E-02 0.  1.
          2   -1    0    0  501    0  0.00000000000E+00 -0.00000000000E+00 -0.19127633942E+04  0.19127633942E+04  0.25500000000E-02 0. -1.
    8880023    1    1    2    0    0  0.79903896743E+02 -0.71912707679E+03 -0.31848772470E+03  0.10289669685E+04  0.65864270000E+03 0.  0.
    8880022    1    1    2    0    0 -0.79903896743E+02  0.71912707679E+03 -0.11286841253E+04  0.13493879698E+04  0.15294330000E+03 0.  0.
<mgrwt>
<rscale>  0 0.91230502E+03</rscale>
<asrwt>0</asrwt>
<pdfrwt beam="1">  1        2 0.29427129E+00 0.97843681E+03</pdfrwt>
<pdfrwt beam="2">  1       -2 0.71629469E-01 0.97843681E+03</pdfrwt>
<totfact> 0.13257534E+01</totfact>
</mgrwt>
</event>
<event>
 4    5  0.2295023E-007  0.1803246E+04  0.7818608E-02  0.8720743E-01
          2   -1    0    0  501    0  0.00000000000E+00  0.00000000000E+00  0.31780353946E+04  0.31780353946E+04  0.25500000000E-02 0. -1.
         -2   -1    0    0    0  501 -0.00000000000E+00 -0.00000000000E+00 -0.13130524332E+04  0.13130524332E+04  0.25500000000E-02 0.  1.
    8880023    1    1    2    0    0  0.11067679221E+04  0.12621219562E+04 -0.21257479404E+03  0.18157327213E+04  0.65864270000E+03 0.  0.
    8880022    1    1    2    0    0 -0.11067679221E+04 -0.12621219562E+04  0.20775577554E+04  0.26753551065E+04  0.15294330000E+03 0.  0.
<mgrwt>
<rscale>  0 0.17730889E+04</rscale>
<asrwt>0</asrwt>
<pdfrwt beam="1">  1        2 0.48892852E+00 0.18032463E+04</pdfrwt>
<pdfrwt beam="2">  1       -2 0.20200807E+00 0.18032463E+04</pdfrwt>
<totfact> 0.15756517E-01</totfact>
</mgrwt>
</event>
<event>
 4    5  0.2295023E-007  0.1118855E+04  0.7818608E-02  0.9240348E-01
         -2   -1    0    0    0  501 -0.00000000000E+00  0.00000000000E+00  0.54264042018E+03  0.54264042018E+03  0.25500000000E-02 0.  1.
          2   -1    0    0  501    0  0.00000000000E+00 -0.00000000000E+00 -0.25069081781E+04  0.25069081781E+04  0.25500000000E-02 0. -1.
    8880023    1    1    2    0    0 -0.36944286049E+03  0.82555369697E+03 -0.31499634032E+03  0.11623509945E+04  0.65864270000E+03 0.  0.
    8880022    1    1    2    0    0  0.36944286049E+03 -0.82555369697E+03 -0.16492714176E+04  0.18871976037E+04  0.15294330000E+03 0.  0.
<mgrwt>
<rscale>  0 0.10646502E+04</rscale>
<asrwt>0</asrwt>
<pdfrwt beam="1">  1        2 0.38567817E+00 0.11188553E+04</pdfrwt>
<pdfrwt beam="2">  1       -2 0.83483143E-01 0.11188553E+04</pdfrwt>
<totfact> 0.43083566E+00</totfact>
</mgrwt>
</event>
<event>
 4    5  0.2295023E-007  0.7102909E+03  0.7818608E-02  0.9956922E-01
          2   -1    0    0  501    0  0.00000000000E+00  0.00000000000E+00  0.31005416535E+04  0.31005416535E+04  0.25500000000E-02 0. -1.
         -2   -1    0    0    0  501 -0.00000000000E+00 -0.00000000000E+00 -0.27030459590E+04  0.27030459590E+04  0.25500000000E-02 0.  1.
    8880023    1    1    2    0    0  0.25693997156E+03 -0.68446016998E+02 -0.26485478417E+04  0.27421376483E+04  0.65864270000E+03 0.  1.
    8880022    1    1    2    0    0 -0.25693997156E+03  0.68446016998E+02  0.30460435362E+04  0.30614499642E+04  0.15294330000E+03 0.  0.
<mgrwt>
<rscale>  0 0.57580154E+03</rscale>
<asrwt>0</asrwt>
<pdfrwt beam="1">  1        2 0.47700641E+00 0.71029094E+03</pdfrwt>
<pdfrwt beam="2">  1       -2 0.41585322E+00 0.71029094E+03</pdfrwt>
<totfact> 0.10056880E-02</totfact>
</mgrwt>
</event>
<event>
 4    5  0.2295023E-007  0.6944784E+03  0.7818608E-02  0.1002093E+00
         -2   -1    0    0    0  501 -0.00000000000E+00  0.00000000000E+00  0.10210313348E+04  0.10210313348E+04  0.25500000000E-02 0.  1.
          2   -1    0    0  501    0  0.00000000000E+00 -0.00000000000E+00 -0.91265202178E+03  0.91265202178E+03  0.25500000000E-02 0. -1.
    8880023    1    1    2    0    0  0.15894546823E+01 -0.22019874976E+03  0.87756206657E+03  0.11191136684E+04  0.65864270000E+03 0.  1.
    8880022    1    1    2    0    0 -0.15894546823E+01  0.22019874976E+03 -0.76918275350E+03  0.81456968828E+03  0.15294330000E+03 0.  0.
<mgrwt>
<rscale>  0 0.54742083E+03</rscale>
<asrwt>0</asrwt>
<pdfrwt beam="1">  1        2 0.14040800E+00 0.69447838E+03</pdfrwt>
<pdfrwt beam="2">  1       -2 0.15708174E+00 0.69447838E+03</pdfrwt>
<totfact> 0.78051082E+00</totfact>
</mgrwt>
</event>
<event>
 4    5  0.2295023E-007  0.7183850E+03  0.7818608E-02  0.9928089E-01
         -2   -1    0    0    0  501 -0.00000000000E+00  0.00000000000E+00  0.21940421449E+03  0.21940421450E+03  0.25500000000E-02 0.  1.
          2   -1    0    0  501    0  0.00000000000E+00 -0.00000000000E+00 -0.21559151389E+04  0.21559151389E+04  0.25500000000E-02 0. -1.
    8880023    1    1    2    0    0 -0.23111152489E+03  0.16986532041E+03 -0.43673424284E+03  0.84072217120E+03  0.65864270000E+03 0.  1.
    8880022    1    1    2    0    0  0.23111152489E+03 -0.16986532041E+03 -0.14997766816E+04  0.15345971822E+04  0.15294330000E+03 0.  0.
<mgrwt>
<rscale>  0 0.58919078E+03</rscale>
<asrwt>0</asrwt>
<pdfrwt beam="1">  1        2 0.33167924E+00 0.71838497E+03</pdfrwt>
<pdfrwt beam="2">  1       -2 0.33754496E-01 0.71838497E+03</pdfrwt>
<totfact> 0.46562635E+01</totfact>
</mgrwt>
</event>
<event>
 4    5  0.2295023E-007  0.9143900E+03  0.7818608E-02  0.9503315E-01
          2   -1    0    0  501    0  0.00000000000E+00  0.00000000000E+00  0.36338036998E+03  0.36338036999E+03  0.25500000000E-02 0. -1.
         -2   -1    0    0    0  501 -0.00000000000E+00 -0.00000000000E+00 -0.21908345728E+04  0.21908345728E+04  0.25500000000E-02 0.  1.
    8880023    1    1    2    0    0 -0.55180077347E+03 -0.31275363942E+03 -0.16361025263E+04  0.18742840274E+04  0.65864270000E+03 0.  0.
    8880022    1    1    2    0    0  0.55180077347E+03  0.31275363942E+03 -0.19135167654E+03  0.67993091539E+03  0.15294330000E+03 0.  0.
<mgrwt>
<rscale>  0 0.84039870E+03</rscale>
<asrwt>0</asrwt>
<pdfrwt beam="1">  1        2 0.55904674E-01 0.91439004E+03</pdfrwt>
<pdfrwt beam="2">  1       -2 0.33705146E+00 0.91439004E+03</pdfrwt>
<totfact> 0.17041576E+00</totfact>
</mgrwt>
</event>
<event>
 4    5  0.2295023E-007  0.1057502E+04  0.7818608E-02  0.9309917E-01
         -2   -1    0    0    0  501 -0.00000000000E+00  0.00000000000E+00  0.84769441993E+03  0.84769441993E+03  0.25500000000E-02 0.  1.
          2   -1    0    0  501    0  0.00000000000E+00 -0.00000000000E+00 -0.12862461577E+04  0.12862461577E+04  0.25500000000E-02 0. -1.
    8880023    1    1    2    0    0  0.50878195347E+03 -0.65241217606E+03  0.20183527723E+03  0.10765911058E+04  0.65864270000E+03 0.  0.
    8880022    1    1    2    0    0 -0.50878195347E+03  0.65241217606E+03 -0.64038701502E+03  0.10573494719E+04  0.15294330000E+03 0.  0.
<mgrwt>
<rscale>  0 0.99875017E+03</rscale>
<asrwt>0</asrwt>
<pdfrwt beam="1">  1        2 0.19788403E+00 0.10575022E+04</pdfrwt>
<pdfrwt beam="2">  1       -2 0.13041453E+00 0.10575022E+04</pdfrwt>
<totfact> 0.71590377E+00</totfact>
</mgrwt>
</event>
<event>
 4    5  0.2295023E-007  0.1585577E+04  0.7818608E-02  0.8851457E-01
         -2   -1    0    0    0  501 -0.00000000000E+00  0.00000000000E+00  0.14184851682E+04  0.14184851682E+04  0.25500000000E-02 0.  1.
          2   -1    0    0  501    0  0.00000000000E+00 -0.00000000000E+00 -0.24596130754E+04  0.24596130754E+04  0.25500000000E-02 0. -1.
    8880023    1    1    2    0    0  0.38604993237E+03 -0.13896792663E+04  0.59328155714E+03  0.16929371594E+04  0.65864270000E+03 0.  1.
    8880022    1    1    2    0    0 -0.38604993237E+03  0.13896792663E+04 -0.16344094644E+04  0.21851610842E+04  0.15294330000E+03 0.  0.
<mgrwt>
<rscale>  0 0.15506426E+04</rscale>
<asrwt>0</asrwt>
<pdfrwt beam="1">  1        2 0.37840201E+00 0.15855766E+04</pdfrwt>
<pdfrwt beam="2">  1       -2 0.21822849E+00 0.15855766E+04</pdfrwt>
<totfact> 0.34639706E-01</totfact>
</mgrwt>
</event>
<event>
 4    5  0.2295023E-007  0.1268526E+04  0.7818608E-02  0.9093228E-01
         -2   -1    0    0    0  501 -0.00000000000E+00  0.00000000000E+00  0.24770640243E+04  0.24770640243E+04  0.25500000000E-02 0.  1.
          2   -1    0    0  501    0  0.00000000000E+00 -0.00000000000E+00 -0.10742191688E+04  0.10742191688E+04  0.25500000000E-02 0. -1.
    8880023    1    1    2    0    0 -0.81692994530E+03  0.71272243414E+03  0.19507854365E+04  0.23269554850E+04  0.65864270000E+03 0.  0.
    8880022    1    1    2    0    0  0.81692994530E+03 -0.71272243414E+03 -0.54794058100E+03  0.12243277082E+04  0.15294330000E+03 0.  0.
<mgrwt>
<rscale>  0 0.12226865E+04</rscale>
<asrwt>0</asrwt>
<pdfrwt beam="1">  1        2 0.16526449E+00 0.12685259E+04</pdfrwt>
<pdfrwt beam="2">  1       -2 0.38108677E+00 0.12685259E+04</pdfrwt>
<totfact> 0.21716082E-01</totfact>
</mgrwt>
</event>
<event>
 4    5  0.2295023E-007  0.9401216E+03  0.7818608E-02  0.9464472E-01
         -2   -1    0    0    0  501 -0.00000000000E+00  0.00000000000E+00  0.96812538703E+03  0.96812538703E+03  0.25500000000E-02 0.  1.
          2   -1    0    0  501    0  0.00000000000E+00 -0.00000000000E+00 -0.84052232218E+03  0.84052232219E+03  0.25500000000E-02 0. -1.
    8880023    1    1    2    0    0 -0.65312663554E+03  0.15311424122E+03  0.45757928858E+03  0.10455655812E+04  0.65864270000E+03 0.  0.
    8880022    1    1    2    0    0  0.65312663554E+03 -0.15311424122E+03 -0.32997622373E+03  0.76308212805E+03  0.15294330000E+03 0.  0.
<mgrwt>
<rscale>  0 0.86954627E+03</rscale>
<asrwt>0</asrwt>
<pdfrwt beam="1">  1        2 0.12931113E+00 0.94012158E+03</pdfrwt>
<pdfrwt beam="2">  1       -2 0.14894237E+00 0.94012158E+03</pdfrwt>
<totfact> 0.98098671E+00</totfact>
</mgrwt>
</event>
<event>
 4    5  0.2295023E-007  0.1096585E+04  0.7818608E-02  0.9264868E-01
         -2   -1    0    0    0  501 -0.00000000000E+00  0.00000000000E+00  0.11484900601E+04  0.11484900601E+04  0.25500000000E-02 0.  1.
          2   -1    0    0  501    0  0.00000000000E+00 -0.00000000000E+00 -0.24099710148E+04  0.24099710148E+04  0.25500000000E-02 0. -1.
    8880023    1    1    2    0    0  0.82880070544E+03  0.28596788763E+03  0.77043977513E+03  0.13401775612E+04  0.65864270000E+03 0.  0.
    8880022    1    1    2    0    0 -0.82880070544E+03 -0.28596788763E+03 -0.20319207298E+04  0.22182835137E+04  0.15294330000E+03 0.  0.
<mgrwt>
<rscale>  0 0.10408253E+04</rscale>
<asrwt>0</asrwt>
<pdfrwt beam="1">  1        2 0.37076477E+00 0.10965849E+04</pdfrwt>
<pdfrwt beam="2">  1       -2 0.17669078E+00 0.10965849E+04</pdfrwt>
<totfact> 0.74214781E-01</totfact>
</mgrwt>
</event>
<event>
 4    5  0.2295023E-007  0.9959419E+03  0.7818608E-02  0.9386886E-01
         -2   -1    0    0    0  501 -0.00000000000E+00  0.00000000000E+00  0.60097628222E+03  0.60097628223E+03  0.25500000000E-02 0.  1.
          2   -1    0    0  501    0  0.00000000000E+00 -0.00000000000E+00 -0.20103130895E+04  0.20103130895E+04  0.25500000000E-02 0. -1.
    8880023    1    1    2    0    0  0.61236830066E+03  0.42789612056E+03  0.14573784840E+02  0.99604850641E+03  0.65864270000E+03 0.  1.
    8880022    1    1    2    0    0 -0.61236830066E+03 -0.42789612056E+03 -0.14239105921E+04  0.16152408653E+04  0.15294330000E+03 0.  0.
<mgrwt>
<rscale>  0 0.93162793E+03</rscale>
<asrwt>0</asrwt>
<pdfrwt beam="1">  1        2 0.30927893E+00 0.99594188E+03</pdfrwt>
<pdfrwt beam="2">  1       -2 0.92457891E-01 0.99594188E+03</pdfrwt>
<totfact> 0.65577536E+00</totfact>
</mgrwt>
</event>
<event>
 4    5  0.2295023E-007  0.7600849E+03  0.7818608E-02  0.9804888E-01
         -2   -1    0    0    0  501 -0.00000000000E+00  0.00000000000E+00  0.20447746471E+03  0.20447746473E+03  0.25500000000E-02 0.  1.
          2   -1    0    0  501    0  0.00000000000E+00 -0.00000000000E+00 -0.17837686516E+04  0.17837686516E+04  0.25500000000E-02 0. -1.
    8880023    1    1    2    0    0 -0.36606228521E+03  0.99585350803E+02 -0.77276331788E+03  0.10839244395E+04  0.65864270000E+03 0. -1.
    8880022    1    1    2    0    0  0.36606228521E+03 -0.99585350803E+02 -0.80652786898E+03  0.90432167684E+03  0.15294330000E+03 0.  1.
<mgrwt>
<rscale>  0 0.65100897E+03</rscale>
<asrwt>0</asrwt>
<pdfrwt beam="1">  1        2 0.27442594E+00 0.76008489E+03</pdfrwt>
<pdfrwt beam="2">  1       -2 0.31458073E-01 0.76008489E+03</pdfrwt>
<totfact> 0.84463558E+01</totfact>
</mgrwt>
</event>
<event>
 4    5  0.2295023E-007  0.1263072E+04  0.7818608E-02  0.9098124E-01
          2   -1    0    0  501    0  0.00000000000E+00  0.00000000000E+00  0.14225016962E+04  0.14225016962E+04  0.25500000000E-02 0. -1.
         -2   -1    0    0    0  501 -0.00000000000E+00 -0.00000000000E+00 -0.17608492037E+04  0.17608492037E+04  0.25500000000E-02 0.  1.
    8880023    1    1    2    0    0  0.92733039622E+03 -0.54918074562E+03 -0.12398968481E+04  0.17699422463E+04  0.65864270000E+03 0.  1.
    8880022    1    1    2    0    0 -0.92733039622E+03  0.54918074562E+03  0.90154934064E+03  0.14134086535E+04  0.15294330000E+03 0.  0.
<mgrwt>
<rscale>  0 0.12169783E+04</rscale>
<asrwt>0</asrwt>
<pdfrwt beam="1">  1        2 0.21884642E+00 0.12630722E+04</pdfrwt>
<pdfrwt beam="2">  1       -2 0.27089988E+00 0.12630722E+04</pdfrwt>
<totfact> 0.64924972E-01</totfact>
</mgrwt>
</event>
<event>
 4    5  0.2295023E-007  0.6663217E+03  0.7818608E-02  0.1018449E+00
         -2   -1    0    0    0  501 -0.00000000000E+00  0.00000000000E+00  0.15363492703E+04  0.15363492703E+04  0.25500000000E-02 0.  1.
          2   -1    0    0  501    0  0.00000000000E+00 -0.00000000000E+00 -0.86971987887E+03  0.86971987887E+03  0.25500000000E-02 0. -1.
    8880023    1    1    2    0    0 -0.10058090719E+03 -0.76094031809E+01  0.14530748062E+04  0.15985653007E+04  0.65864270000E+03 0.  1.
    8880022    1    1    2    0    0  0.10058090719E+03  0.76094031809E+01 -0.78644541476E+03  0.80750384849E+03  0.15294330000E+03 0.  0.
<mgrwt>
<rscale>  0 0.48250359E+03</rscale>
<asrwt>0</asrwt>
<pdfrwt beam="1">  1        2 0.13380306E+00 0.66632172E+03</pdfrwt>
<pdfrwt beam="2">  1       -2 0.23636142E+00 0.66632172E+03</pdfrwt>
<totfact> 0.25048845E+00</totfact>
</mgrwt>
</event>
<event>
 4    5  0.2295023E-007  0.8756661E+03  0.7818608E-02  0.9566282E-01
         -2   -1    0    0    0  501 -0.00000000000E+00  0.00000000000E+00  0.35912061253E+03  0.35912061254E+03  0.25500000000E-02 0.  1.
          2   -1    0    0  501    0  0.00000000000E+00 -0.00000000000E+00 -0.34034371010E+04  0.34034371010E+04  0.25500000000E-02 0. -1.
    8880023    1    1    2    0    0  0.16082783887E+03 -0.55417983214E+03 -0.25781962254E+03  0.91283188164E+03  0.65864270000E+03 0.  1.
    8880022    1    1    2    0    0 -0.16082783887E+03  0.55417983214E+03 -0.27864968659E+04  0.28497258319E+04  0.15294330000E+03 0.  0.
<mgrwt>
<rscale>  0 0.79568638E+03</rscale>
<asrwt>0</asrwt>
<pdfrwt beam="1">  1        2 0.52360569E+00 0.87566608E+03</pdfrwt>
<pdfrwt beam="2">  1       -2 0.55249327E-01 0.87566608E+03</pdfrwt>
<totfact> 0.30833770E+00</totfact>
</mgrwt>
</event>
<event>
 4    5  0.2295023E-007  0.1149594E+04  0.7818608E-02  0.9207750E-01
         -2   -1    0    0    0  501 -0.00000000000E+00  0.00000000000E+00  0.10763942939E+04  0.10763942939E+04  0.25500000000E-02 0.  1.
          2   -1    0    0  501    0  0.00000000000E+00 -0.00000000000E+00 -0.20902109521E+04  0.20902109521E+04  0.25500000000E-02 0. -1.
    8880023    1    1    2    0    0  0.44350883224E+03 -0.83129728503E+03  0.59612171172E+03  0.12949619924E+04  0.65864270000E+03 0.  0.
    8880022    1    1    2    0    0 -0.44350883224E+03  0.83129728503E+03 -0.16099383699E+04  0.18716432535E+04  0.15294330000E+03 0.  0.
<mgrwt>
<rscale>  0 0.10973794E+04</rscale>
<asrwt>0</asrwt>
<pdfrwt beam="1">  1        2 0.32157091E+00 0.11495936E+04</pdfrwt>
<pdfrwt beam="2">  1       -2 0.16559912E+00 0.11495936E+04</pdfrwt>
<totfact> 0.13351861E+00</totfact>
</mgrwt>
</event>
<event>
 4    5  0.2295023E-007  0.1235358E+04  0.7818608E-02  0.9123495E-01
          2   -1    0    0  501    0  0.00000000000E+00  0.00000000000E+00  0.12463951224E+04  0.12463951225E+04  0.25500000000E-02 0. -1.
         -2   -1    0    0    0  501 -0.00000000000E+00 -0.00000000000E+00 -0.11729111256E+04  0.11729111256E+04  0.25500000000E-02 0.  1.
    8880023    1    1    2    0    0 -0.10444603774E+04 -0.37451721869E+02  0.42448027813E+03  0.13062518227E+04  0.65864270000E+03 0.  0.
    8880022    1    1    2    0    0  0.10444603774E+04  0.37451721869E+02 -0.35099628132E+03  0.11130544254E+04  0.15294330000E+03 0.  0.
<mgrwt>
<rscale>  0 0.11879215E+04</rscale>
<asrwt>0</asrwt>
<pdfrwt beam="1">  1        2 0.19175310E+00 0.12353584E+04</pdfrwt>
<pdfrwt beam="2">  1       -2 0.18044786E+00 0.12353584E+04</pdfrwt>
<totfact> 0.30974987E+00</totfact>
</mgrwt>
</event>
<event>
 4    5  0.2295023E-007  0.7126715E+03  0.7818608E-02  0.9948211E-01
         -2   -1    0    0    0  501 -0.00000000000E+00  0.00000000000E+00  0.21678611204E+03  0.21678611206E+03  0.25500000000E-02 0.  1.
          2   -1    0    0  501    0  0.00000000000E+00 -0.00000000000E+00 -0.22687912038E+04  0.22687912038E+04  0.25500000000E-02 0. -1.
    8880023    1    1    2    0    0  0.16832291191E+03  0.21391102316E+03 -0.42689539830E+03  0.83074690240E+03  0.65864270000E+03 0.  1.
    8880022    1    1    2    0    0 -0.16832291191E+03 -0.21391102316E+03 -0.16251096935E+04  0.16548304135E+04  0.15294330000E+03 0.  0.
<mgrwt>
<rscale>  0 0.57980602E+03</rscale>
<asrwt>0</asrwt>
<pdfrwt beam="1">  1        2 0.34904478E+00 0.71267155E+03</pdfrwt>
<pdfrwt beam="2">  1       -2 0.33351711E-01 0.71267155E+03</pdfrwt>
<totfact> 0.41308438E+01</totfact>
</mgrwt>
</event>
<event>
 4    5  0.2295023E-007  0.7951928E+03  0.7818608E-02  0.9721288E-01
          2   -1    0    0  501    0  0.00000000000E+00  0.00000000000E+00  0.21136906914E+04  0.21136906914E+04  0.25500000000E-02 0. -1.
         -2   -1    0    0    0  501 -0.00000000000E+00 -0.00000000000E+00 -0.54836514541E+03  0.54836514542E+03  0.25500000000E-02 0.  1.
    8880023    1    1    2    0    0 -0.23629092009E+03 -0.37774052759E+03 -0.21232129705E+03  0.82305032929E+03  0.65864270000E+03 0.  1.
    8880022    1    1    2    0    0  0.23629092009E+03  0.37774052759E+03  0.17776468431E+04  0.18390055076E+04  0.15294330000E+03 0.  0.
<mgrwt>
<rscale>  0 0.69763320E+03</rscale>
<asrwt>0</asrwt>
<pdfrwt beam="1">  1        2 0.32518319E+00 0.79519275E+03</pdfrwt>
<pdfrwt beam="2">  1       -2 0.84363868E-01 0.79519275E+03</pdfrwt>
<totfact> 0.72976510E+00</totfact>
</mgrwt>
</event>
<event>
 4    5  0.2295023E-007  0.9400797E+03  0.7818608E-02  0.9464533E-01
          2   -1    0    0  501    0  0.00000000000E+00  0.00000000000E+00  0.33046242183E+04  0.33046242183E+04  0.25500000000E-02 0. -1.
         -2   -1    0    0    0  501 -0.00000000000E+00 -0.00000000000E+00 -0.33216820151E+03  0.33216820152E+03  0.25500000000E-02 0.  1.
    8880023    1    1    2    0    0 -0.64095153258E+03  0.19778979974E+03  0.48871152003E+03  0.10595229248E+04  0.65864270000E+03 0.  1.
    8880022    1    1    2    0    0  0.64095153258E+03 -0.19778979974E+03  0.24837444968E+04  0.25772694951E+04  0.15294330000E+03 0. -1.
<mgrwt>
<rscale>  0 0.86949916E+03</rscale>
<asrwt>0</asrwt>
<pdfrwt beam="1">  1        2 0.50840372E+00 0.94007972E+03</pdfrwt>
<pdfrwt beam="2">  1       -2 0.51102801E-01 0.94007972E+03</pdfrwt>
<totfact> 0.41662688E+00</totfact>
</mgrwt>
</event>
<event>
 4    5  0.2295023E-007  0.8370674E+03  0.7818608E-02  0.9635735E-01
          2   -1    0    0  501    0  0.00000000000E+00  0.00000000000E+00  0.26191922871E+04  0.26191922871E+04  0.25500000000E-02 0. -1.
         -2   -1    0    0    0  501 -0.00000000000E+00 -0.00000000000E+00 -0.93465016162E+03  0.93465016162E+03  0.25500000000E-02 0.  1.
    8880023    1    1    2    0    0  0.51062096006E+03  0.78344700226E+02 -0.71111762372E+03  0.10983488234E+04  0.65864270000E+03 0.  1.
    8880022    1    1    2    0    0 -0.51062096006E+03 -0.78344700226E+02  0.23956597492E+04  0.24554936253E+04  0.15294330000E+03 0.  0.
<mgrwt>
<rscale>  0 0.74975496E+03</rscale>
<asrwt>0</asrwt>
<pdfrwt beam="1">  1        2 0.40295266E+00 0.83706742E+03</pdfrwt>
<pdfrwt beam="2">  1       -2 0.14379233E+00 0.83706742E+03</pdfrwt>
<totfact> 0.10302396E+00</totfact>
</mgrwt>
</event>
<event>
 4    5  0.2295023E-007  0.1118332E+04  0.7818608E-02  0.9240915E-01
          2   -1    0    0  501    0  0.00000000000E+00  0.00000000000E+00  0.53339793381E+03  0.53339793382E+03  0.25500000000E-02 0. -1.
         -2   -1    0    0    0  501 -0.00000000000E+00 -0.00000000000E+00 -0.24156998537E+04  0.24156998537E+04  0.25500000000E-02 0.  1.
    8880023    1    1    2    0    0  0.83312199505E+03 -0.35037689597E+03 -0.16672104151E+04  0.20075500000E+04  0.65864270000E+03 0.  0.
    8880022    1    1    2    0    0 -0.83312199505E+03  0.35037689597E+03 -0.21509150484E+03  0.94154778760E+03  0.15294330000E+03 0.  0.
<mgrwt>
<rscale>  0 0.10640915E+04</rscale>
<asrwt>0</asrwt>
<pdfrwt beam="1">  1        2 0.82061222E-01 0.11183320E+04</pdfrwt>
<pdfrwt beam="2">  1       -2 0.37164612E+00 0.11183320E+04</pdfrwt>
<totfact> 0.64776868E-01</totfact>
</mgrwt>
</event>
<event>
 4    5  0.2295023E-007  0.9454038E+03  0.7818608E-02  0.9456758E-01
          2   -1    0    0  501    0  0.00000000000E+00  0.00000000000E+00  0.24348162865E+04  0.24348162865E+04  0.25500000000E-02 0. -1.
         -2   -1    0    0    0  501 -0.00000000000E+00 -0.00000000000E+00 -0.42506964753E+03  0.42506964753E+03  0.25500000000E-02 0.  1.
    8880023    1    1    2    0    0 -0.37498598166E+03 -0.56512262252E+03  0.26518612049E+03  0.98189202548E+03  0.65864270000E+03 0.  0.
    8880022    1    1    2    0    0  0.37498598166E+03  0.56512262252E+03  0.17445605185E+04  0.18779939086E+04  0.15294330000E+03 0.  0.
<mgrwt>
<rscale>  0 0.87548342E+03</rscale>
<asrwt>0</asrwt>
<pdfrwt beam="1">  1        2 0.37458713E+00 0.94540376E+03</pdfrwt>
<pdfrwt beam="2">  1       -2 0.65395329E-01 0.94540376E+03</pdfrwt>
<totfact> 0.83220965E+00</totfact>
</mgrwt>
</event>
<event>
 4    5  0.2295023E-007  0.7586851E+03  0.7818608E-02  0.9808524E-01
          2   -1    0    0  501    0  0.00000000000E+00  0.00000000000E+00  0.14982924286E+04  0.14982924286E+04  0.25500000000E-02 0. -1.
         -2   -1    0    0    0  501 -0.00000000000E+00 -0.00000000000E+00 -0.33521469708E+03  0.33521469709E+03  0.25500000000E-02 0.  1.
    8880023    1    1    2    0    0  0.29810106506E+03  0.23006212817E+03  0.19465819728E+03  0.78325911922E+03  0.65864270000E+03 0.  1.
    8880022    1    1    2    0    0 -0.29810106506E+03 -0.23006212817E+03  0.96841953424E+03  0.10502480065E+04  0.15294330000E+03 0.  0.
<mgrwt>
<rscale>  0 0.64907115E+03</rscale>
<asrwt>0</asrwt>
<pdfrwt beam="1">  1        2 0.23050653E+00 0.75868507E+03</pdfrwt>
<pdfrwt beam="2">  1       -2 0.51571491E-01 0.75868507E+03</pdfrwt>
<totfact> 0.46136438E+01</totfact>
</mgrwt>
</event>
<event>
 4    5  0.2295023E-007  0.6954977E+03  0.7818608E-02  0.1001642E+00
          2   -1    0    0  501    0  0.00000000000E+00  0.00000000000E+00  0.95586951004E+03  0.95586951005E+03  0.25500000000E-02 0. -1.
         -2   -1    0    0    0  501 -0.00000000000E+00 -0.00000000000E+00 -0.75925479342E+03  0.75925479342E+03  0.25500000000E-02 0.  1.
    8880023    1    1    2    0    0  0.30359700043E+02  0.22132578501E+03 -0.57182309335E+03  0.90038806681E+03  0.65864270000E+03 0.  1.
    8880022    1    1    2    0    0 -0.30359700043E+02 -0.22132578501E+03  0.76843780998E+03  0.81473623666E+03  0.15294330000E+03 0.  0.
<mgrwt>
<rscale>  0 0.54936201E+03</rscale>
<asrwt>0</asrwt>
<pdfrwt beam="1">  1        2 0.14705685E+00 0.69549768E+03</pdfrwt>
<pdfrwt beam="2">  1       -2 0.11680843E+00 0.69549768E+03</pdfrwt>
<totfact> 0.15616909E+01</totfact>
</mgrwt>
</event>
<event>
 4    5  0.2295023E-007  0.7113609E+03  0.7818608E-02  0.9952982E-01
         -2   -1    0    0    0  501 -0.00000000000E+00  0.00000000000E+00  0.11109908197E+03  0.11109908200E+03  0.25500000000E-02 0.  1.
          2   -1    0    0  501    0  0.00000000000E+00 -0.00000000000E+00 -0.35185168763E+04  0.35185168763E+04  0.25500000000E-02 0. -1.
    8880023    1    1    2    0    0 -0.13435107109E+03 -0.23275294723E+03 -0.11579927654E+04  0.13590370104E+04  0.65864270000E+03 0.  1.
    8880022    1    1    2    0    0  0.13435107109E+03  0.23275294723E+03 -0.22494250289E+04  0.22705789479E+04  0.15294330000E+03 0.  0.
<mgrwt>
<rscale>  0 0.57760867E+03</rscale>
<asrwt>0</asrwt>
<pdfrwt beam="1">  1        2 0.54131020E+00 0.71136091E+03</pdfrwt>
<pdfrwt beam="2">  1       -2 0.17092169E-01 0.71136091E+03</pdfrwt>
<totfact> 0.23989918E+01</totfact>
</mgrwt>
</event>
<event>
 4    5  0.2295023E-007  0.1006421E+04  0.7818608E-02  0.9373205E-01
         -2   -1    0    0    0  501 -0.00000000000E+00  0.00000000000E+00  0.80546258499E+03  0.80546258499E+03  0.25500000000E-02 0.  1.
          2   -1    0    0  501    0  0.00000000000E+00 -0.00000000000E+00 -0.14869066827E+04  0.14869066827E+04  0.25500000000E-02 0. -1.
    8880023    1    1    2    0    0 -0.40472657340E+03 -0.64441344221E+03  0.29146371211E+03  0.10477755415E+04  0.65864270000E+03 0.  0.
    8880022    1    1    2    0    0  0.40472657340E+03  0.64441344221E+03 -0.97290780977E+03  0.12445937261E+04  0.15294330000E+03 0.  0.
<mgrwt>
<rscale>  0 0.94313971E+03</rscale>
<asrwt>0</asrwt>
<pdfrwt beam="1">  1        2 0.22875487E+00 0.10064206E+04</pdfrwt>
<pdfrwt beam="2">  1       -2 0.12391732E+00 0.10064206E+04</pdfrwt>
<totfact> 0.62835877E+00</totfact>
</mgrwt>
</event>
<event>
 4    5  0.2295023E-007  0.8285640E+03  0.7818608E-02  0.9652133E-01
          2   -1    0    0  501    0  0.00000000000E+00  0.00000000000E+00  0.73378520258E+03  0.73378520258E+03  0.25500000000E-02 0. -1.
         -2   -1    0    0    0  501 -0.00000000000E+00 -0.00000000000E+00 -0.66171836373E+03  0.66171836373E+03  0.25500000000E-02 0.  1.
    8880023    1    1    2    0    0 -0.20265728014E+03  0.46004149612E+03 -0.11760062705E+03  0.83686812885E+03  0.65864270000E+03 0.  0.
    8880022    1    1    2    0    0  0.20265728014E+03 -0.46004149612E+03  0.18966746590E+03  0.55863543746E+03  0.15294330000E+03 0.  0.
<mgrwt>
<rscale>  0 0.73939723E+03</rscale>
<asrwt>0</asrwt>
<pdfrwt beam="1">  1        2 0.11289003E+00 0.82856403E+03</pdfrwt>
<pdfrwt beam="2">  1       -2 0.10180283E+00 0.82856403E+03</pdfrwt>
<totfact> 0.30754315E+01</totfact>
</mgrwt>
</event>
<event>
 4    5  0.2295023E-007  0.8286104E+03  0.7818608E-02  0.9652042E-01
          2   -1    0    0  501    0  0.00000000000E+00  0.00000000000E+00  0.27911607973E+04  0.27911607973E+04  0.25500000000E-02 0. -1.
         -2   -1    0    0    0  501 -0.00000000000E+00 -0.00000000000E+00 -0.26493395290E+03  0.26493395291E+03  0.25500000000E-02 0.  1.
    8880023    1    1    2    0    0  0.50274470951E+03  0.57215390789E+01  0.23656716032E+04  0.25065907762E+04  0.65864270000E+03 0. -1.
    8880022    1    1    2    0    0 -0.50274470951E+03 -0.57215390789E+01  0.16055524122E+03  0.54950397401E+03  0.15294330000E+03 0.  0.
<mgrwt>
<rscale>  0 0.73945398E+03</rscale>
<asrwt>0</asrwt>
<pdfrwt beam="1">  1        2 0.42940933E+00 0.82861039E+03</pdfrwt>
<pdfrwt beam="2">  1       -2 0.40759072E-01 0.82861039E+03</pdfrwt>
<totfact> 0.13907005E+01</totfact>
</mgrwt>
</event>
<event>
 4    5  0.2295023E-007  0.1114348E+04  0.7818608E-02  0.9245247E-01
          2   -1    0    0  501    0  0.00000000000E+00  0.00000000000E+00  0.26399301813E+04  0.26399301813E+04  0.25500000000E-02 0. -1.
         -2   -1    0    0    0  501 -0.00000000000E+00 -0.00000000000E+00 -0.50819271806E+03  0.50819271806E+03  0.25500000000E-02 0.  1.
    8880023    1    1    2    0    0 -0.22000203235E+03 -0.87152765027E+03  0.38723675343E+03  0.11797134605E+04  0.65864270000E+03 0.  0.
    8880022    1    1    2    0    0  0.22000203235E+03  0.87152765027E+03  0.17445007098E+04  0.19684094389E+04  0.15294330000E+03 0.  0.
<mgrwt>
<rscale>  0 0.10598364E+04</rscale>
<asrwt>0</asrwt>
<pdfrwt beam="1">  1        2 0.40614312E+00 0.11143480E+04</pdfrwt>
<pdfrwt beam="2">  1       -2 0.78183493E-01 0.11143480E+04</pdfrwt>
<totfact> 0.41887003E+00</totfact>
</mgrwt>
</event>
<event>
 4    5  0.2295023E-007  0.6637354E+03  0.7818608E-02  0.1020619E+00
         -2   -1    0    0    0  501 -0.00000000000E+00  0.00000000000E+00  0.75123045361E+03  0.75123045362E+03  0.25500000000E-02 0.  1.
          2   -1    0    0  501    0  0.00000000000E+00 -0.00000000000E+00 -0.26922624003E+04  0.26922624003E+04  0.25500000000E-02 0. -1.
    8880023    1    1    2    0    0  0.47678964211E+02  0.66791913982E+02  0.60108370553E+03  0.89545869291E+03  0.65864270000E+03 0.  1.
    8880022    1    1    2    0    0 -0.47678964211E+02 -0.66791913982E+02 -0.25421156522E+04  0.25480341610E+04  0.15294330000E+03 0.  0.
<mgrwt>
<rscale>  0 0.47463972E+03</rscale>
<asrwt>0</asrwt>
<pdfrwt beam="1">  1        2 0.41419421E+00 0.66373538E+03</pdfrwt>
<pdfrwt beam="2">  1       -2 0.11557392E+00 0.66373538E+03</pdfrwt>
<totfact> 0.16844137E+00</totfact>
</mgrwt>
</event>
<event>
 4    5  0.2295023E-007  0.8959177E+03  0.7818608E-02  0.9532617E-01
         -2   -1    0    0    0  501 -0.00000000000E+00  0.00000000000E+00  0.32337738490E+03  0.32337738491E+03  0.25500000000E-02 0.  1.
          2   -1    0    0  501    0  0.00000000000E+00 -0.00000000000E+00 -0.31348866524E+04  0.31348866524E+04  0.25500000000E-02 0. -1.
    8880023    1    1    2    0    0 -0.14238948340E+03  0.59040965404E+03 -0.42624369828E+03  0.99214526213E+03  0.65864270000E+03 0.  1.
    8880022    1    1    2    0    0  0.14238948340E+03 -0.59040965404E+03 -0.23852655692E+04  0.24661187751E+04  0.15294330000E+03 0.  0.
<mgrwt>
<rscale>  0 0.81921228E+03</rscale>
<asrwt>0</asrwt>
<pdfrwt beam="1">  1        2 0.48229023E+00 0.89591770E+03</pdfrwt>
<pdfrwt beam="2">  1       -2 0.49750369E-01 0.89591770E+03</pdfrwt>
<totfact> 0.56984444E+00</totfact>
</mgrwt>
</event>
<event>
 4    5  0.2295023E-007  0.6931871E+03  0.7818608E-02  0.1002673E+00
         -2   -1    0    0    0  501 -0.00000000000E+00  0.00000000000E+00  0.12118313267E+04  0.12118313267E+04  0.25500000000E-02 0.  1.
          2   -1    0    0  501    0  0.00000000000E+00 -0.00000000000E+00 -0.87712453900E+03  0.87712453900E+03  0.25500000000E-02 0. -1.
    8880023    1    1    2    0    0 -0.19713436812E+03  0.88522295788E+02  0.10882437233E+04  0.12902646098E+04  0.65864270000E+03 0.  0.
    8880022    1    1    2    0    0  0.19713436812E+03 -0.88522295788E+02 -0.75353693555E+03  0.79869125587E+03  0.15294330000E+03 0.  0.
<mgrwt>
<rscale>  0 0.54493502E+03</rscale>
<asrwt>0</asrwt>
<pdfrwt beam="1">  1        2 0.13494224E+00 0.69318710E+03</pdfrwt>
<pdfrwt beam="2">  1       -2 0.18643559E+00 0.69318710E+03</pdfrwt>
<totfact> 0.51230604E+00</totfact>
</mgrwt>
</event>
<event>
 4    5  0.2295023E-007  0.7232941E+03  0.7818608E-02  0.9911593E-01
         -2   -1    0    0    0  501 -0.00000000000E+00  0.00000000000E+00  0.69232217794E+03  0.69232217794E+03  0.25500000000E-02 0.  1.
          2   -1    0    0  501    0  0.00000000000E+00 -0.00000000000E+00 -0.14705019722E+04  0.14705019722E+04  0.25500000000E-02 0. -1.
    8880023    1    1    2    0    0  0.29486217060E+03  0.48994746692E+02  0.47508154518E+03  0.86536516320E+03  0.65864270000E+03 0.  1.
    8880022    1    1    2    0    0 -0.29486217060E+03 -0.48994746692E+02 -0.12532613395E+04  0.12974589870E+04  0.15294330000E+03 0. -1.
<mgrwt>
<rscale>  0 0.59702697E+03</rscale>
<asrwt>0</asrwt>
<pdfrwt beam="1">  1        2 0.22623107E+00 0.72329412E+03</pdfrwt>
<pdfrwt beam="2">  1       -2 0.10651110E+00 0.72329412E+03</pdfrwt>
<totfact> 0.96311231E+00</totfact>
</mgrwt>
</event>
<event>
 4    5  0.2295023E-007  0.1344189E+04  0.7818608E-02  0.9028309E-01
         -2   -1    0    0    0  501 -0.00000000000E+00  0.00000000000E+00  0.78859423019E+03  0.78859423019E+03  0.25500000000E-02 0.  1.
          2   -1    0    0  501    0  0.00000000000E+00 -0.00000000000E+00 -0.30721727572E+04  0.30721727572E+04  0.25500000000E-02 0. -1.
    8880023    1    1    2    0    0 -0.25576347343E+03 -0.11435122130E+04 -0.63394305560E+02  0.13456835363E+04  0.65864270000E+03 0.  0.
    8880022    1    1    2    0    0  0.25576347343E+03  0.11435122130E+04 -0.22201842214E+04  0.25150834511E+04  0.15294330000E+03 0.  0.
<mgrwt>
<rscale>  0 0.13015853E+04</rscale>
<asrwt>0</asrwt>
<pdfrwt beam="1">  1        2 0.47264196E+00 0.13441895E+04</pdfrwt>
<pdfrwt beam="2">  1       -2 0.12132219E+00 0.13441895E+04</pdfrwt>
<totfact> 0.78611778E-01</totfact>
</mgrwt>
</event>
<event>
 4    5  0.2295023E-007  0.1135370E+04  0.7818608E-02  0.9222662E-01
         -2   -1    0    0    0  501 -0.00000000000E+00  0.00000000000E+00  0.16515840851E+04  0.16515840851E+04  0.25500000000E-02 0.  1.
          2   -1    0    0  501    0  0.00000000000E+00 -0.00000000000E+00 -0.97447178648E+03  0.97447178649E+03  0.25500000000E-02 0. -1.
    8880023    1    1    2    0    0 -0.72522852847E+03  0.57384482861E+03  0.11151260226E+04  0.15914052150E+04  0.65864270000E+03 0.  0.
    8880022    1    1    2    0    0  0.72522852847E+03 -0.57384482861E+03 -0.43801372395E+03  0.10346506566E+04  0.15294330000E+03 0.  0.
<mgrwt>
<rscale>  0 0.10822553E+04</rscale>
<asrwt>0</asrwt>
<pdfrwt beam="1">  1        2 0.14991874E+00 0.11353698E+04</pdfrwt>
<pdfrwt beam="2">  1       -2 0.25408986E+00 0.11353698E+04</pdfrwt>
<totfact> 0.15575951E+00</totfact>
</mgrwt>
</event>
<event>
 4    5  0.2295023E-007  0.1003109E+04  0.7818608E-02  0.9377501E-01
          2   -1    0    0  501    0  0.00000000000E+00  0.00000000000E+00  0.93622773509E+03  0.93622773509E+03  0.25500000000E-02 0. -1.
         -2   -1    0    0    0  501 -0.00000000000E+00 -0.00000000000E+00 -0.92915076077E+03  0.92915076078E+03  0.25500000000E-02 0.  1.
    8880023    1    1    2    0    0 -0.75423764712E+03  0.59524267175E+02  0.28852857927E+03  0.10437799165E+04  0.65864270000E+03 0.  0.
    8880022    1    1    2    0    0  0.75423764712E+03 -0.59524267175E+02 -0.28145160495E+03  0.82159857939E+03  0.15294330000E+03 0.  0.
<mgrwt>
<rscale>  0 0.93950591E+03</rscale>
<asrwt>0</asrwt>
<pdfrwt beam="1">  1        2 0.14403504E+00 0.10031091E+04</pdfrwt>
<pdfrwt beam="2">  1       -2 0.14294627E+00 0.10031091E+04</pdfrwt>
<totfact> 0.93497330E+00</totfact>
</mgrwt>
</event>
<event>
 4    5  0.2295023E-007  0.7592940E+03  0.7818608E-02  0.9806939E-01
          2   -1    0    0  501    0  0.00000000000E+00  0.00000000000E+00  0.69444687823E+03  0.69444687823E+03  0.25500000000E-02 0. -1.
         -2   -1    0    0    0  501 -0.00000000000E+00 -0.00000000000E+00 -0.54498627247E+03  0.54498627248E+03  0.25500000000E-02 0.  1.
    8880023    1    1    2    0    0  0.37701348559E+03 -0.24041132816E+02 -0.93367871969E+02  0.76501301307E+03  0.65864270000E+03 0. -1.
    8880022    1    1    2    0    0 -0.37701348559E+03  0.24041132816E+02  0.24282847773E+03  0.47442013764E+03  0.15294330000E+03 0.  1.
<mgrwt>
<rscale>  0 0.64991498E+03</rscale>
<asrwt>0</asrwt>
<pdfrwt beam="1">  1        2 0.10683798E+00 0.75929398E+03</pdfrwt>
<pdfrwt beam="2">  1       -2 0.83844042E-01 0.75929398E+03</pdfrwt>
<totfact> 0.52073121E+01</totfact>
</mgrwt>
</event>
<event>
 4    5  0.2295023E-007  0.1043711E+04  0.7818608E-02  0.9326480E-01
          2   -1    0    0  501    0  0.00000000000E+00  0.00000000000E+00  0.16548808776E+04  0.16548808776E+04  0.25500000000E-02 0. -1.
         -2   -1    0    0    0  501 -0.00000000000E+00 -0.00000000000E+00 -0.81964743458E+03  0.81964743458E+03  0.25500000000E-02 0.  1.
    8880023    1    1    2    0    0  0.25042549865E+03  0.76994121145E+03  0.11852645863E+04  0.15792988144E+04  0.65864270000E+03 0.  0.
    8880022    1    1    2    0    0 -0.25042549865E+03 -0.76994121145E+03 -0.35003114323E+03  0.89522949779E+03  0.15294330000E+03 0.  0.
<mgrwt>
<rscale>  0 0.98381183E+03</rscale>
<asrwt>0</asrwt>
<pdfrwt beam="1">  1        2 0.25459705E+00 0.10437110E+04</pdfrwt>
<pdfrwt beam="2">  1       -2 0.12609961E+00 0.10437110E+04</pdfrwt>
<totfact> 0.48250475E+00</totfact>
</mgrwt>
</event>
<event>
 4    5  0.2295023E-007  0.1921271E+04  0.7818608E-02  0.8658263E-01
          2   -1    0    0  501    0  0.00000000000E+00  0.00000000000E+00  0.22233362878E+04  0.22233362878E+04  0.25500000000E-02 0. -1.
         -2   -1    0    0    0  501 -0.00000000000E+00 -0.00000000000E+00 -0.24036842914E+04  0.24036842914E+04  0.25500000000E-02 0.  1.
    8880023    1    1    2    0    0  0.11011310860E+04 -0.14300292186E+04 -0.14567951850E+04  0.24111274648E+04  0.65864270000E+03 0.  0.
    8880022    1    1    2    0    0 -0.11011310860E+04  0.14300292186E+04  0.12764471814E+04  0.22158931144E+04  0.15294330000E+03 0.  0.
<mgrwt>
<rscale>  0 0.18931720E+04</rscale>
<asrwt>0</asrwt>
<pdfrwt beam="1">  1        2 0.34205174E+00 0.19212713E+04</pdfrwt>
<pdfrwt beam="2">  1       -2 0.36979758E+00 0.19212713E+04</pdfrwt>
<totfact> 0.52074809E-02</totfact>
</mgrwt>
</event>
<event>
 4    5  0.2295023E-007  0.1178247E+04  0.7818608E-02  0.9178563E-01
         -2   -1    0    0    0  501 -0.00000000000E+00  0.00000000000E+00  0.84714630112E+03  0.84714630112E+03  0.25500000000E-02 0.  1.
          2   -1    0    0  501    0  0.00000000000E+00 -0.00000000000E+00 -0.39126190558E+04  0.39126190558E+04  0.25500000000E-02 0. -1.
    8880023    1    1    2    0    0 -0.66077381989E+03  0.71960721272E+03  0.32970900927E+03  0.12235092230E+04  0.65864270000E+03 0.  0.
    8880022    1    1    2    0    0  0.66077381989E+03 -0.71960721272E+03 -0.33951817639E+04  0.35362561339E+04  0.15294330000E+03 0.  0.
<mgrwt>
<rscale>  0 0.11277460E+04</rscale>
<asrwt>0</asrwt>
<pdfrwt beam="1">  1        2 0.60194138E+00 0.11782473E+04</pdfrwt>
<pdfrwt beam="2">  1       -2 0.13033020E+00 0.11782473E+04</pdfrwt>
<totfact> 0.17527848E-01</totfact>
</mgrwt>
</event>
<event>
 4    5  0.2295023E-007  0.1169772E+04  0.7818608E-02  0.9187081E-01
          2   -1    0    0  501    0  0.00000000000E+00  0.00000000000E+00  0.15065696626E+04  0.15065696626E+04  0.25500000000E-02 0. -1.
         -2   -1    0    0    0  501 -0.00000000000E+00 -0.00000000000E+00 -0.83246317905E+03  0.83246317905E+03  0.25500000000E-02 0.  1.
    8880023    1    1    2    0    0 -0.95179635888E+03  0.16923189938E+03  0.35378381978E+02  0.11703066182E+04  0.65864270000E+03 0.  0.
    8880022    1    1    2    0    0  0.95179635888E+03 -0.16923189938E+03  0.63872810160E+03  0.11687262234E+04  0.15294330000E+03 0.  0.
<mgrwt>
<rscale>  0 0.11187771E+04</rscale>
<asrwt>0</asrwt>
<pdfrwt beam="1">  1        2 0.23177994E+00 0.11697718E+04</pdfrwt>
<pdfrwt beam="2">  1       -2 0.12807126E+00 0.11697718E+04</pdfrwt>
<totfact> 0.55449878E+00</totfact>
</mgrwt>
</event>
<event>
 4    5  0.2295023E-007  0.9095026E+03  0.7818608E-02  0.9510946E-01
          2   -1    0    0  501    0  0.00000000000E+00  0.00000000000E+00  0.21968527627E+04  0.21968527627E+04  0.25500000000E-02 0. -1.
         -2   -1    0    0    0  501 -0.00000000000E+00 -0.00000000000E+00 -0.47730031504E+03  0.47730031505E+03  0.25500000000E-02 0.  1.
    8880023    1    1    2    0    0 -0.26905915339E+03  0.56656150742E+03  0.81111668779E+02  0.91311230349E+03  0.65864270000E+03 0.  1.
    8880022    1    1    2    0    0  0.26905915339E+03 -0.56656150742E+03  0.16384407789E+04  0.17610407743E+04  0.15294330000E+03 0.  0.
<mgrwt>
<rscale>  0 0.83481617E+03</rscale>
<asrwt>0</asrwt>
<pdfrwt beam="1">  1        2 0.33797735E+00 0.90950260E+03</pdfrwt>
<pdfrwt beam="2">  1       -2 0.73430818E-01 0.90950260E+03</pdfrwt>
<totfact> 0.88226096E+00</totfact>
</mgrwt>
</event>
<event>
 4    5  0.2295023E-007  0.8085080E+03  0.7818608E-02  0.9692693E-01
         -2   -1    0    0    0  501 -0.00000000000E+00  0.00000000000E+00  0.96643220100E+03  0.96643220100E+03  0.25500000000E-02 0.  1.
          2   -1    0    0  501    0  0.00000000000E+00 -0.00000000000E+00 -0.58554900818E+03  0.58554900819E+03  0.25500000000E-02 0. -1.
    8880023    1    1    2    0    0  0.16835368269E+03 -0.43764379978E+03  0.60541679928E+03  0.10100568128E+04  0.65864270000E+03 0.  0.
    8880022    1    1    2    0    0 -0.16835368269E+03  0.43764379978E+03 -0.22453360647E+03  0.54192439639E+03  0.15294330000E+03 0.  0.
<mgrwt>
<rscale>  0 0.71453515E+03</rscale>
<asrwt>0</asrwt>
<pdfrwt beam="1">  1        2 0.90084464E-01 0.80850805E+03</pdfrwt>
<pdfrwt beam="2">  1       -2 0.14868188E+00 0.80850805E+03</pdfrwt>
<totfact> 0.15804457E+01</totfact>
</mgrwt>
</event>
<event>
 4    5  0.2295023E-007  0.7259449E+03  0.7818608E-02  0.9902961E-01
         -2   -1    0    0    0  501 -0.00000000000E+00  0.00000000000E+00  0.61614349374E+03  0.61614349375E+03  0.25500000000E-02 0.  1.
          2   -1    0    0  501    0  0.00000000000E+00 -0.00000000000E+00 -0.14722048655E+04  0.14722048655E+04  0.25500000000E-02 0. -1.
    8880023    1    1    2    0    0 -0.16143613657E+03  0.25908343165E+03  0.37058895254E+03  0.81506578186E+03  0.65864270000E+03 0.  1.
    8880022    1    1    2    0    0  0.16143613657E+03 -0.25908343165E+03 -0.12266503243E+04  0.12732825774E+04  0.15294330000E+03 0.  0.
<mgrwt>
<rscale>  0 0.60118011E+03</rscale>
<asrwt>0</asrwt>
<pdfrwt beam="1">  1        2 0.22649306E+00 0.72594494E+03</pdfrwt>
<pdfrwt beam="2">  1       -2 0.94791307E-01 0.72594494E+03</pdfrwt>
<totfact> 0.12665925E+01</totfact>
</mgrwt>
</event>
<event>
 4    5  0.2295023E-007  0.6885010E+03  0.7818608E-02  0.1004873E+00
         -2   -1    0    0    0  501 -0.00000000000E+00  0.00000000000E+00  0.78687430090E+03  0.78687430091E+03  0.25500000000E-02 0.  1.
          2   -1    0    0  501    0  0.00000000000E+00 -0.00000000000E+00 -0.20073915228E+04  0.20073915228E+04  0.25500000000E-02 0. -1.
    8880023    1    1    2    0    0  0.38629037240E+02  0.19680250918E+03  0.62603598150E+03  0.93056686301E+03  0.65864270000E+03 0.  1.
    8880022    1    1    2    0    0 -0.38629037240E+02 -0.19680250918E+03 -0.18465532034E+04  0.18636989607E+04  0.15294330000E+03 0.  0.
<mgrwt>
<rscale>  0 0.53564055E+03</rscale>
<asrwt>0</asrwt>
<pdfrwt beam="1">  1        2 0.30882946E+00 0.68850101E+03</pdfrwt>
<pdfrwt beam="2">  1       -2 0.12105759E+00 0.68850101E+03</pdfrwt>
<totfact> 0.36041932E+00</totfact>
</mgrwt>
</event>
<event>
 4    5  0.2295023E-007  0.6665645E+03  0.7818608E-02  0.1018255E+00
         -2   -1    0    0    0  501 -0.00000000000E+00  0.00000000000E+00  0.13518433474E+04  0.13518433474E+04  0.25500000000E-02 0.  1.
          2   -1    0    0  501    0  0.00000000000E+00 -0.00000000000E+00 -0.61483802556E+03  0.61483802556E+03  0.25500000000E-02 0. -1.
    8880023    1    1    2    0    0  0.32082668562E+00 -0.10245946612E+03  0.12527612662E+04  0.14190556866E+04  0.65864270000E+03 0.  1.
    8880022    1    1    2    0    0 -0.32082668562E+00  0.10245946612E+03 -0.51575594443E+03  0.54762568636E+03  0.15294330000E+03 0.  0.
<mgrwt>
<rscale>  0 0.48321466E+03</rscale>
<asrwt>0</asrwt>
<pdfrwt beam="1">  1        2 0.94590467E-01 0.66656451E+03</pdfrwt>
<pdfrwt beam="2">  1       -2 0.20797590E+00 0.66656451E+03</pdfrwt>
<totfact> 0.58678712E+00</totfact>
</mgrwt>
</event>
<event>
 4    5  0.2295023E-007  0.7694601E+03  0.7818608E-02  0.9781204E-01
          2   -1    0    0  501    0  0.00000000000E+00  0.00000000000E+00  0.17724929456E+04  0.17724929456E+04  0.25500000000E-02 0. -1.
         -2   -1    0    0    0  501 -0.00000000000E+00 -0.00000000000E+00 -0.36117052096E+03  0.36117052096E+03  0.25500000000E-02 0.  1.
    8880023    1    1    2    0    0 -0.29071080440E+02 -0.39675378163E+03  0.12623881408E+03  0.77974684058E+03  0.65864270000E+03 0.  1.
    8880022    1    1    2    0    0  0.29071080440E+02  0.39675378163E+03  0.12850836106E+04  0.13539166260E+04  0.15294330000E+03 0.  0.
<mgrwt>
<rscale>  0 0.66381050E+03</rscale>
<asrwt>0</asrwt>
<pdfrwt beam="1">  1        2 0.27269122E+00 0.76946013E+03</pdfrwt>
<pdfrwt beam="2">  1       -2 0.55564696E-01 0.76946013E+03</pdfrwt>
<totfact> 0.27905941E+01</totfact>
</mgrwt>
</event>
<event>
 4    5  0.2295023E-007  0.9659235E+03  0.7818608E-02  0.9427564E-01
         -2   -1    0    0    0  501 -0.00000000000E+00  0.00000000000E+00  0.24247497926E+03  0.24247497927E+03  0.25500000000E-02 0.  1.
          2   -1    0    0  501    0  0.00000000000E+00 -0.00000000000E+00 -0.34319961331E+04  0.34319961331E+04  0.25500000000E-02 0. -1.
    8880023    1    1    2    0    0 -0.39181438509E+03  0.58794520769E+03 -0.11024247431E+04  0.14657245990E+04  0.65864270000E+03 0.  0.
    8880022    1    1    2    0    0  0.39181438509E+03 -0.58794520769E+03 -0.20870964107E+04  0.22087465134E+04  0.15294330000E+03 0.  0.
<mgrwt>
<rscale>  0 0.89841537E+03</rscale>
<asrwt>0</asrwt>
<pdfrwt beam="1">  1        2 0.52799937E+00 0.96592354E+03</pdfrwt>
<pdfrwt beam="2">  1       -2 0.37303845E-01 0.96592354E+03</pdfrwt>
<totfact> 0.63877776E+00</totfact>
</mgrwt>
</event>
<event>
 4    5  0.2295023E-007  0.6618556E+03  0.7818608E-02  0.1022331E+00
         -2   -1    0    0    0  501 -0.00000000000E+00  0.00000000000E+00  0.46207744534E+02  0.46207744604E+02  0.25500000000E-02 0.  1.
          2   -1    0    0  501    0  0.00000000000E+00 -0.00000000000E+00 -0.37522412659E+04  0.37522412659E+04  0.25500000000E-02 0. -1.
    8880023    1    1    2    0    0  0.28501200697E+02  0.58568825220E+02 -0.27877842260E+04  0.28652737606E+04  0.65864270000E+03 0.  1.
    8880022    1    1    2    0    0 -0.28501200697E+02 -0.58568825220E+02 -0.91824929529E+03  0.93317524991E+03  0.15294330000E+03 0. -1.
<mgrwt>
<rscale>  0 0.46854731E+03</rscale>
<asrwt>0</asrwt>
<pdfrwt beam="1">  1        2 0.57726765E+00 0.66185560E+03</pdfrwt>
<pdfrwt beam="2">  1       -2 0.71088867E-02 0.66185560E+03</pdfrwt>
<totfact> 0.69971728E+01</totfact>
</mgrwt>
</event>
<event>
 4    5  0.2295023E-007  0.8551226E+03  0.7818608E-02  0.9602299E-01
          2   -1    0    0  501    0  0.00000000000E+00  0.00000000000E+00  0.97439088430E+03  0.97439088431E+03  0.25500000000E-02 0. -1.
         -2   -1    0    0    0  501 -0.00000000000E+00 -0.00000000000E+00 -0.10394441816E+04  0.10394441816E+04  0.25500000000E-02 0.  1.
    8880023    1    1    2    0    0  0.48736660458E+03 -0.24474132186E+03 -0.74130972545E+03  0.11317132310E+04  0.65864270000E+03 0.  0.
    8880022    1    1    2    0    0 -0.48736660458E+03  0.24474132186E+03  0.67625642819E+03  0.88212183488E+03  0.15294330000E+03 0. -1.
<mgrwt>
<rscale>  0 0.77144210E+03</rscale>
<asrwt>0</asrwt>
<pdfrwt beam="1">  1        2 0.14990629E+00 0.85512264E+03</pdfrwt>
<pdfrwt beam="2">  1       -2 0.15991449E+00 0.85512264E+03</pdfrwt>
<totfact> 0.66418421E+00</totfact>
</mgrwt>
</event>
<event>
 4    5  0.2295023E-007  0.1331636E+04  0.7818608E-02  0.9038711E-01
          2   -1    0    0  501    0  0.00000000000E+00  0.00000000000E+00  0.33598340702E+04  0.33598340702E+04  0.25500000000E-02 0. -1.
         -2   -1    0    0    0  501 -0.00000000000E+00 -0.00000000000E+00 -0.83619384106E+03  0.83619384106E+03  0.25500000000E-02 0.  1.
    8880023    1    1    2    0    0  0.10747980335E+04  0.42924692336E+03 -0.88822918295E+02  0.13345948640E+04  0.65864270000E+03 0.  0.
    8880022    1    1    2    0    0 -0.10747980335E+04 -0.42924692336E+03  0.26124631474E+04  0.28614330472E+04  0.15294330000E+03 0.  0.
<mgrwt>
<rscale>  0 0.12885300E+04</rscale>
<asrwt>0</asrwt>
<pdfrwt beam="1">  1        2 0.51689755E+00 0.13316358E+04</pdfrwt>
<pdfrwt beam="2">  1       -2 0.12864521E+00 0.13316358E+04</pdfrwt>
<totfact> 0.44162061E-01</totfact>
</mgrwt>
</event>
<event>
 4    5  0.2295023E-007  0.7884152E+03  0.7818608E-02  0.9736428E-01
          2   -1    0    0  501    0  0.00000000000E+00  0.00000000000E+00  0.91066420526E+03  0.91066420526E+03  0.25500000000E-02 0. -1.
         -2   -1    0    0    0  501 -0.00000000000E+00 -0.00000000000E+00 -0.86367719331E+03  0.86367719331E+03  0.25500000000E-02 0.  1.
    8880023    1    1    2    0    0 -0.36869181294E+03 -0.22771626934E+03 -0.59294545757E+03  0.98650031636E+03  0.65864270000E+03 0.  1.
    8880022    1    1    2    0    0  0.36869181294E+03  0.22771626934E+03  0.63993246952E+03  0.78784108221E+03  0.15294330000E+03 0.  0.
<mgrwt>
<rscale>  0 0.68888678E+03</rscale>
<asrwt>0</asrwt>
<pdfrwt beam="1">  1        2 0.14010218E+00 0.78841522E+03</pdfrwt>
<pdfrwt beam="2">  1       -2 0.13287341E+00 0.78841522E+03</pdfrwt>
<totfact> 0.11991350E+01</totfact>
</mgrwt>
</event>
<event>
 4    5  0.2295023E-007  0.6923149E+03  0.7818608E-02  0.1003071E+00
          2   -1    0    0  501    0  0.00000000000E+00  0.00000000000E+00  0.16521576936E+04  0.16521576936E+04  0.25500000000E-02 0. -1.
         -2   -1    0    0    0  501 -0.00000000000E+00 -0.00000000000E+00 -0.82729951990E+03  0.82729951990E+03  0.25500000000E-02 0.  1.
    8880023    1    1    2    0    0  0.61414118758E+02 -0.20424986573E+03 -0.66899002391E+03  0.96272922465E+03  0.65864270000E+03 0.  1.
    8880022    1    1    2    0    0 -0.61414118758E+02  0.20424986573E+03  0.14938481977E+04  0.15167279889E+04  0.15294330000E+03 0.  0.
<mgrwt>
<rscale>  0 0.54323840E+03</rscale>
<asrwt>0</asrwt>
<pdfrwt beam="1">  1        2 0.25417811E+00 0.69231489E+03</pdfrwt>
<pdfrwt beam="2">  1       -2 0.12727685E+00 0.69231489E+03</pdfrwt>
<totfact> 0.49601314E+00</totfact>
</mgrwt>
</event>
<event>
 4    5  0.2295023E-007  0.1789740E+04  0.7818608E-02  0.8728233E-01
          2   -1    0    0  501    0  0.00000000000E+00  0.00000000000E+00  0.29065343800E+04  0.29065343800E+04  0.25500000000E-02 0. -1.
         -2   -1    0    0    0  501 -0.00000000000E+00 -0.00000000000E+00 -0.24984888646E+04  0.24984888646E+04  0.25500000000E-02 0.  1.
    8880023    1    1    2    0    0 -0.14118850444E+04  0.88087403505E+03  0.22781088034E+04  0.28970585722E+04  0.65864270000E+03 0. -1.
    8880022    1    1    2    0    0  0.14118850444E+04 -0.88087403505E+03 -0.18700632880E+04  0.25079646725E+04  0.15294330000E+03 0.  0.
<mgrwt>
<rscale>  0 0.17593265E+04</rscale>
<asrwt>0</asrwt>
<pdfrwt beam="1">  1        2 0.44715913E+00 0.17897398E+04</pdfrwt>
<pdfrwt beam="2">  1       -2 0.38438290E+00 0.17897398E+04</pdfrwt>
<totfact> 0.16875645E-02</totfact>
</mgrwt>
</event>
<event>
 4    5  0.2295023E-007  0.8563832E+03  0.7818608E-02  0.9600030E-01
         -2   -1    0    0    0  501 -0.00000000000E+00  0.00000000000E+00  0.43609560148E+03  0.43609560149E+03  0.25500000000E-02 0.  1.
          2   -1    0    0  501    0  0.00000000000E+00 -0.00000000000E+00 -0.24355074481E+04  0.24355074481E+04  0.25500000000E-02 0. -1.
    8880023    1    1    2    0    0  0.36583074971E+03  0.40712396530E+03 -0.68867271097E+02  0.85914781490E+03  0.65864270000E+03 0.  0.
    8880022    1    1    2    0    0 -0.36583074971E+03 -0.40712396530E+03 -0.19305445755E+04  0.20124552347E+04  0.15294330000E+03 0.  0.
<mgrwt>
<rscale>  0 0.77294220E+03</rscale>
<asrwt>0</asrwt>
<pdfrwt beam="1">  1        2 0.37469345E+00 0.85638325E+03</pdfrwt>
<pdfrwt beam="2">  1       -2 0.67091632E-01 0.85638325E+03</pdfrwt>
<totfact> 0.79639364E+00</totfact>
</mgrwt>
</event>
<event>
 4    5  0.2295023E-007  0.1309854E+04  0.7818608E-02  0.9057097E-01
         -2   -1    0    0    0  501 -0.00000000000E+00  0.00000000000E+00  0.14217935777E+04  0.14217935777E+04  0.25500000000E-02 0.  1.
          2   -1    0    0  501    0  0.00000000000E+00 -0.00000000000E+00 -0.12063042735E+04  0.12063042735E+04  0.25500000000E-02 0. -1.
    8880023    1    1    2    0    0  0.38678952768E+03 -0.10640961049E+04  0.57481245022E+03  0.14304286834E+04  0.65864270000E+03 0.  1.
    8880022    1    1    2    0    0 -0.38678952768E+03  0.10640961049E+04 -0.35932314604E+03  0.11976691678E+04  0.15294330000E+03 0.  0.
<mgrwt>
<rscale>  0 0.12658459E+04</rscale>
<asrwt>0</asrwt>
<pdfrwt beam="1">  1        2 0.18558527E+00 0.13098538E+04</pdfrwt>
<pdfrwt beam="2">  1       -2 0.21873747E+00 0.13098538E+04</pdfrwt>
<totfact> 0.18162265E+00</totfact>
</mgrwt>
</event>
<event>
 4    5  0.2295023E-007  0.7231737E+03  0.7818608E-02  0.9911990E-01
         -2   -1    0    0    0  501 -0.00000000000E+00  0.00000000000E+00  0.11183029944E+04  0.11183029944E+04  0.25500000000E-02 0.  1.
          2   -1    0    0  501    0  0.00000000000E+00 -0.00000000000E+00 -0.98095453721E+03  0.98095453722E+03  0.25500000000E-02 0. -1.
    8880023    1    1    2    0    0 -0.26368180634E+03 -0.14014939772E+03  0.96516573987E+03  0.12060369233E+04  0.65864270000E+03 0.  1.
    8880022    1    1    2    0    0  0.26368180634E+03  0.14014939772E+03 -0.82781728266E+03  0.89322060834E+03  0.15294330000E+03 0.  0.
<mgrwt>
<rscale>  0 0.59683700E+03</rscale>
<asrwt>0</asrwt>
<pdfrwt beam="1">  1        2 0.15091608E+00 0.72317367E+03</pdfrwt>
<pdfrwt beam="2">  1       -2 0.17204661E+00 0.72317367E+03</pdfrwt>
<totfact> 0.54690692E+00</totfact>
</mgrwt>
</event>
<event>
 4    5  0.2295023E-007  0.8541761E+03  0.7818608E-02  0.9604008E-01
          2   -1    0    0  501    0  0.00000000000E+00  0.00000000000E+00  0.12598495759E+04  0.12598495759E+04  0.25500000000E-02 0. -1.
         -2   -1    0    0    0  501 -0.00000000000E+00 -0.00000000000E+00 -0.10819935623E+04  0.10819935623E+04  0.25500000000E-02 0.  1.
    8880023    1    1    2    0    0 -0.25194807483E+03  0.48200486854E+03 -0.82707844135E+03  0.11889808578E+04  0.65864270000E+03 0.  0.
    8880022    1    1    2    0    0  0.25194807483E+03 -0.48200486854E+03  0.10049344550E+04  0.11528622804E+04  0.15294330000E+03 0.  0.
<mgrwt>
<rscale>  0 0.77031454E+03</rscale>
<asrwt>0</asrwt>
<pdfrwt beam="1">  1        2 0.19382301E+00 0.85417605E+03</pdfrwt>
<pdfrwt beam="2">  1       -2 0.16646055E+00 0.85417605E+03</pdfrwt>
<totfact> 0.39785362E+00</totfact>
</mgrwt>
</event>
<event>
 4    5  0.2295023E-007  0.8587367E+03  0.7818608E-02  0.9595815E-01
          2   -1    0    0  501    0  0.00000000000E+00  0.00000000000E+00  0.24447103708E+04  0.24447103708E+04  0.25500000000E-02 0. -1.
         -2   -1    0    0    0  501 -0.00000000000E+00 -0.00000000000E+00 -0.42362074030E+03  0.42362074031E+03  0.25500000000E-02 0.  1.
    8880023    1    1    2    0    0  0.43881664182E+03 -0.33325434466E+03  0.10071530676E+03  0.86462262441E+03  0.65864270000E+03 0.  0.
    8880022    1    1    2    0    0 -0.43881664182E+03  0.33325434466E+03  0.19203743238E+04  0.20037084867E+04  0.15294330000E+03 0.  0.
<mgrwt>
<rscale>  0 0.77573819E+03</rscale>
<asrwt>0</asrwt>
<pdfrwt beam="1">  1        2 0.37610928E+00 0.85873669E+03</pdfrwt>
<pdfrwt beam="2">  1       -2 0.65172422E-01 0.85873669E+03</pdfrwt>
<totfact> 0.83753179E+00</totfact>
</mgrwt>
</event>
<event>
 4    5  0.2295023E-007  0.1110680E+04  0.7818608E-02  0.9249257E-01
          2   -1    0    0  501    0  0.00000000000E+00  0.00000000000E+00  0.34764806891E+04  0.34764806891E+04  0.25500000000E-02 0. -1.
         -2   -1    0    0    0  501 -0.00000000000E+00 -0.00000000000E+00 -0.50339054820E+03  0.50339054821E+03  0.25500000000E-02 0.  1.
    8880023    1    1    2    0    0  0.79237534535E+03 -0.41465918574E+03  0.29055797789E+03  0.11480570861E+04  0.65864270000E+03 0.  0.
    8880022    1    1    2    0    0 -0.79237534535E+03  0.41465918574E+03  0.26825321630E+04  0.28318141512E+04  0.15294330000E+03 0.  0.
<mgrwt>
<rscale>  0 0.10559164E+04</rscale>
<asrwt>0</asrwt>
<pdfrwt beam="1">  1        2 0.53484318E+00 0.11106805E+04</pdfrwt>
<pdfrwt beam="2">  1       -2 0.77444700E-01 0.11106805E+04</pdfrwt>
<totfact> 0.12759546E+00</totfact>
</mgrwt>
</event>
<event>
 4    5  0.2295023E-007  0.1109006E+04  0.7818608E-02  0.9251094E-01
         -2   -1    0    0    0  501 -0.00000000000E+00  0.00000000000E+00  0.12032439567E+04  0.12032439567E+04  0.25500000000E-02 0.  1.
          2   -1    0    0  501    0  0.00000000000E+00 -0.00000000000E+00 -0.97222441126E+03  0.97222441126E+03  0.25500000000E-02 0. -1.
    8880023    1    1    2    0    0 -0.89222820970E+03 -0.37456687721E+01  0.52047576594E+03  0.12250675236E+04  0.65864270000E+03 0.  1.
    8880022    1    1    2    0    0  0.89222820970E+03  0.37456687721E+01 -0.28945622054E+03  0.95040084430E+03  0.15294330000E+03 0.  0.
<mgrwt>
<rscale>  0 0.10541263E+04</rscale>
<asrwt>0</asrwt>
<pdfrwt beam="1">  1        2 0.14957299E+00 0.11090065E+04</pdfrwt>
<pdfrwt beam="2">  1       -2 0.18511445E+00 0.11090065E+04</pdfrwt>
<totfact> 0.43076833E+00</totfact>
</mgrwt>
</event>
<event>
 4    5  0.2295023E-007  0.7419034E+03  0.7818608E-02  0.9854437E-01
          2   -1    0    0  501    0  0.00000000000E+00  0.00000000000E+00  0.83041625057E+03  0.83041625057E+03  0.25500000000E-02 0. -1.
         -2   -1    0    0    0  501 -0.00000000000E+00 -0.00000000000E+00 -0.12570292841E+04  0.12570292841E+04  0.25500000000E-02 0.  1.
    8880023    1    1    2    0    0 -0.22442113747E+03  0.25738225449E+03 -0.10942870036E+04  0.13220759147E+04  0.65864270000E+03 0.  0.
    8880022    1    1    2    0    0  0.22442113747E+03 -0.25738225449E+03  0.66767397003E+03  0.76536961995E+03  0.15294330000E+03 0.  0.
<mgrwt>
<rscale>  0 0.62521207E+03</rscale>
<asrwt>0</asrwt>
<pdfrwt beam="1">  1        2 0.12775635E+00 0.74190342E+03</pdfrwt>
<pdfrwt beam="2">  1       -2 0.19338912E+00 0.74190342E+03</pdfrwt>
<totfact> 0.49270871E+00</totfact>
</mgrwt>
</event>
<event>
 4    5  0.2295023E-007  0.8279585E+03  0.7818608E-02  0.9653318E-01
          2   -1    0    0  501    0  0.00000000000E+00  0.00000000000E+00  0.18436015690E+04  0.18436015690E+04  0.25500000000E-02 0. -1.
         -2   -1    0    0    0  501 -0.00000000000E+00 -0.00000000000E+00 -0.12486938813E+04  0.12486938813E+04  0.25500000000E-02 0.  1.
    8880023    1    1    2    0    0  0.45274458966E+03  0.21616519759E+03 -0.10664434788E+04  0.13501173860E+04  0.65864270000E+03 0.  0.
    8880022    1    1    2    0    0 -0.45274458966E+03 -0.21616519759E+03  0.16613511666E+04  0.17421780643E+04  0.15294330000E+03 0.  0.
<mgrwt>
<rscale>  0 0.73865577E+03</rscale>
<asrwt>0</asrwt>
<pdfrwt beam="1">  1        2 0.28363101E+00 0.82795849E+03</pdfrwt>
<pdfrwt beam="2">  1       -2 0.19210675E+00 0.82795849E+03</pdfrwt>
<totfact> 0.12537187E+00</totfact>
</mgrwt>
</event>
<event>
 4    5  0.2295023E-007  0.6685344E+03  0.7818608E-02  0.1016736E+00
         -2   -1    0    0    0  501 -0.00000000000E+00  0.00000000000E+00  0.36577687547E+03  0.36577687548E+03  0.25500000000E-02 0.  1.
          2   -1    0    0  501    0  0.00000000000E+00 -0.00000000000E+00 -0.23651396904E+04  0.23651396904E+04  0.25500000000E-02 0. -1.
    8880023    1    1    2    0    0 -0.52223578589E+02  0.10198404748E+03  0.52109903071E+02  0.67056222408E+03  0.65864270000E+03 0.  1.
    8880022    1    1    2    0    0  0.52223578589E+02 -0.10198404748E+03 -0.20514727180E+04  0.20603543418E+04  0.15294330000E+03 0.  0.
<mgrwt>
<rscale>  0 0.48883098E+03</rscale>
<asrwt>0</asrwt>
<pdfrwt beam="1">  1        2 0.36386763E+00 0.66853441E+03</pdfrwt>
<pdfrwt beam="2">  1       -2 0.56273367E-01 0.66853441E+03</pdfrwt>
<totfact> 0.13059072E+01</totfact>
</mgrwt>
</event>
<event>
 4    5  0.2295023E-007  0.7140521E+03  0.7818608E-02  0.9943251E-01
         -2   -1    0    0    0  501 -0.00000000000E+00  0.00000000000E+00  0.60524733426E+03  0.60524733426E+03  0.25500000000E-02 0.  1.
          2   -1    0    0  501    0  0.00000000000E+00 -0.00000000000E+00 -0.21081129588E+04  0.21081129588E+04  0.25500000000E-02 0. -1.
    8880023    1    1    2    0    0  0.18888706162E+03  0.20095225051E+03  0.37683593474E+03  0.80738816997E+03  0.65864270000E+03 0.  1.
    8880022    1    1    2    0    0 -0.18888706162E+03 -0.20095225051E+03 -0.18797015593E+04  0.19059721231E+04  0.15294330000E+03 0.  0.
<mgrwt>
<rscale>  0 0.58210184E+03</rscale>
<asrwt>0</asrwt>
<pdfrwt beam="1">  1        2 0.32432507E+00 0.71405205E+03</pdfrwt>
<pdfrwt beam="2">  1       -2 0.93114976E-01 0.71405205E+03</pdfrwt>
<totfact> 0.59342773E+00</totfact>
</mgrwt>
</event>
<event>
 4    5  0.2295023E-007  0.2635102E+04  0.7818608E-02  0.8363087E-01
         -2   -1    0    0    0  501 -0.00000000000E+00  0.00000000000E+00  0.22437476096E+04  0.22437476096E+04  0.25500000000E-02 0.  1.
          2   -1    0    0  501    0  0.00000000000E+00 -0.00000000000E+00 -0.30483472659E+04  0.30483472659E+04  0.25500000000E-02 0. -1.
    8880023    1    1    2    0    0 -0.25128058666E+04 -0.44244470440E+03 -0.73258766352E+03  0.27350403161E+04  0.65864270000E+03 0.  0.
    8880022    1    1    2    0    0  0.25128058666E+04  0.44244470440E+03 -0.72011992737E+02  0.25570545594E+04  0.15294330000E+03 0.  0.
<mgrwt>
<rscale>  0 0.26151100E+04</rscale>
<asrwt>0</asrwt>
<pdfrwt beam="1">  1        2 0.46897650E+00 0.26351017E+04</pdfrwt>
<pdfrwt beam="2">  1       -2 0.34519194E+00 0.26351017E+04</pdfrwt>
<totfact> 0.22449991E-02</totfact>
</mgrwt>
</event>
<event>
 4    5  0.2295023E-007  0.7197861E+03  0.7818608E-02  0.9923311E-01
         -2   -1    0    0    0  501 -0.00000000000E+00  0.00000000000E+00  0.37479281782E+03  0.37479281783E+03  0.25500000000E-02 0.  1.
          2   -1    0    0  501    0  0.00000000000E+00 -0.00000000000E+00 -0.10297334812E+04  0.10297334812E+04  0.25500000000E-02 0. -1.
    8880023    1    1    2    0    0 -0.27661326923E+03  0.88129794578E+02 -0.56465782761E+02  0.72199747388E+03  0.65864270000E+03 0.  0.
    8880022    1    1    2    0    0  0.27661326923E+03 -0.88129794578E+02 -0.59847488057E+03  0.68252882511E+03  0.15294330000E+03 0.  0.
<mgrwt>
<rscale>  0 0.59144741E+03</rscale>
<asrwt>0</asrwt>
<pdfrwt beam="1">  1        2 0.15842053E+00 0.71978606E+03</pdfrwt>
<pdfrwt beam="2">  1       -2 0.57660434E-01 0.71978606E+03</pdfrwt>
<totfact> 0.69099584E+01</totfact>
</mgrwt>
</event>
<event>
 4    5  0.2295023E-007  0.7164978E+03  0.7818608E-02  0.9934619E-01
         -2   -1    0    0    0  501 -0.00000000000E+00  0.00000000000E+00  0.50930351600E+03  0.50930351600E+03  0.25500000000E-02 0.  1.
          2   -1    0    0  501    0  0.00000000000E+00 -0.00000000000E+00 -0.26082734725E+04  0.26082734725E+04  0.25500000000E-02 0. -1.
    8880023    1    1    2    0    0 -0.11689515951E+03  0.25669917019E+03  0.24082281179E+03  0.75588674763E+03  0.65864270000E+03 0.  1.
    8880022    1    1    2    0    0  0.11689515951E+03 -0.25669917019E+03 -0.23397927683E+04  0.23616902409E+04  0.15294330000E+03 0.  0.
<mgrwt>
<rscale>  0 0.58612436E+03</rscale>
<asrwt>0</asrwt>
<pdfrwt beam="1">  1        2 0.40127284E+00 0.71649784E+03</pdfrwt>
<pdfrwt beam="2">  1       -2 0.78354388E-01 0.71649784E+03</pdfrwt>
<totfact> 0.46197144E+00</totfact>
</mgrwt>
</event>
<event>
 4    5  0.2295023E-007  0.2257503E+04  0.7818608E-02  0.8504435E-01
          2   -1    0    0  501    0  0.00000000000E+00  0.00000000000E+00  0.50431765025E+04  0.50431765025E+04  0.25500000000E-02 0. -1.
         -2   -1    0    0    0  501 -0.00000000000E+00 -0.00000000000E+00 -0.15028725254E+04  0.15028725254E+04  0.25500000000E-02 0.  1.
    8880023    1    1    2    0    0 -0.40968543269E+03  0.21200628554E+04 -0.15561396696E+03  0.22628598228E+04  0.65864270000E+03 0.  1.
    8880022    1    1    2    0    0  0.40968543269E+03 -0.21200628554E+04  0.36959179441E+04  0.42831892051E+04  0.15294330000E+03 0.  0.
<mgrwt>
<rscale>  0 0.22339341E+04</rscale>
<asrwt>0</asrwt>
<pdfrwt beam="1">  1        2 0.77587331E+00 0.22575028E+04</pdfrwt>
<pdfrwt beam="2">  1       -2 0.23121116E+00 0.22575028E+04</pdfrwt>
<totfact> 0.22156965E-03</totfact>
</mgrwt>
</event>
<event>
 4    5  0.2295023E-007  0.7978892E+03  0.7818608E-02  0.9715379E-01
          2   -1    0    0  501    0  0.00000000000E+00  0.00000000000E+00  0.18040399863E+04  0.18040399863E+04  0.25500000000E-02 0. -1.
         -2   -1    0    0    0  501 -0.00000000000E+00 -0.00000000000E+00 -0.57821741497E+03  0.57821741498E+03  0.25500000000E-02 0.  1.
    8880023    1    1    2    0    0 -0.14219741511E+03  0.42731355172E+03 -0.24643737853E+03  0.83507997470E+03  0.65864270000E+03 0.  1.
    8880022    1    1    2    0    0  0.14219741511E+03 -0.42731355172E+03  0.14722599498E+04  0.15471774266E+04  0.15294330000E+03 0.  0.
<mgrwt>
<rscale>  0 0.70108486E+03</rscale>
<asrwt>0</asrwt>
<pdfrwt beam="1">  1        2 0.27754461E+00 0.79788920E+03</pdfrwt>
<pdfrwt beam="2">  1       -2 0.88956526E-01 0.79788920E+03</pdfrwt>
<totfact> 0.95424420E+00</totfact>
</mgrwt>
</event>
<event>
 4    5  0.2295023E-007  0.8575404E+03  0.7818608E-02  0.9597954E-01
         -2   -1    0    0    0  501 -0.00000000000E+00  0.00000000000E+00  0.52066770088E+03  0.52066770088E+03  0.25500000000E-02 0.  1.
          2   -1    0    0  501    0  0.00000000000E+00 -0.00000000000E+00 -0.21698113869E+04  0.21698113869E+04  0.25500000000E-02 0. -1.
    8880023    1    1    2    0    0  0.43227537790E+03 -0.33867885884E+03  0.88142995985E+02  0.86205844684E+03  0.65864270000E+03 0.  0.
    8880022    1    1    2    0    0 -0.43227537790E+03  0.33867885884E+03 -0.17372866820E+04  0.18284206410E+04  0.15294330000E+03 0. -1.
<mgrwt>
<rscale>  0 0.77431771E+03</rscale>
<asrwt>0</asrwt>
<pdfrwt beam="1">  1        2 0.33381713E+00 0.85754042E+03</pdfrwt>
<pdfrwt beam="2">  1       -2 0.80102724E-01 0.85754042E+03</pdfrwt>
<totfact> 0.75730743E+00</totfact>
</mgrwt>
</event>
<event>
 4    5  0.2295023E-007  0.7090180E+03  0.7818608E-02  0.9961666E-01
          2   -1    0    0  501    0  0.00000000000E+00  0.00000000000E+00  0.97383339944E+03  0.97383339944E+03  0.25500000000E-02 0. -1.
         -2   -1    0    0    0  501 -0.00000000000E+00 -0.00000000000E+00 -0.45590280914E+03  0.45590280914E+03  0.25500000000E-02 0.  1.
    8880023    1    1    2    0    0  0.23041905727E+03 -0.12571141548E+03 -0.12378777805E+03  0.71974295564E+03  0.65864270000E+03 0.  1.
    8880022    1    1    2    0    0 -0.23041905727E+03  0.12571141548E+03  0.64171836835E+03  0.70999325294E+03  0.15294330000E+03 0.  0.
<mgrwt>
<rscale>  0 0.57363556E+03</rscale>
<asrwt>0</asrwt>
<pdfrwt beam="1">  1        2 0.14982052E+00 0.70901799E+03</pdfrwt>
<pdfrwt beam="2">  1       -2 0.70138894E-01 0.70901799E+03</pdfrwt>
<totfact> 0.49393165E+01</totfact>
</mgrwt>
</event>
<event>
 4    5  0.2295023E-007  0.1078574E+04  0.7818608E-02  0.9285295E-01
          2   -1    0    0  501    0  0.00000000000E+00  0.00000000000E+00  0.26295713813E+04  0.26295713813E+04  0.25500000000E-02 0. -1.
         -2   -1    0    0    0  501 -0.00000000000E+00 -0.00000000000E+00 -0.78661621667E+03  0.78661621667E+03  0.25500000000E-02 0.  1.
    8880023    1    1    2    0    0 -0.25921656741E+03  0.81382889534E+03 -0.28714137949E+03  0.11161411550E+04  0.65864270000E+03 0.  0.
    8880022    1    1    2    0    0  0.25921656741E+03 -0.81382889534E+03  0.21300965441E+04  0.23000464430E+04  0.15294330000E+03 0.  0.
<mgrwt>
<rscale>  0 0.10214795E+04</rscale>
<asrwt>0</asrwt>
<pdfrwt beam="1">  1        2 0.40454944E+00 0.10785736E+04</pdfrwt>
<pdfrwt beam="2">  1       -2 0.12101788E+00 0.10785736E+04</pdfrwt>
<totfact> 0.15172512E+00</totfact>
</mgrwt>
</event>
<event>
 4    5  0.2295023E-007  0.6677113E+03  0.7818608E-02  0.1017360E+00
         -2   -1    0    0    0  501 -0.00000000000E+00  0.00000000000E+00  0.50441917671E+03  0.50441917672E+03  0.25500000000E-02 0.  1.
          2   -1    0    0  501    0  0.00000000000E+00 -0.00000000000E+00 -0.30254494823E+04  0.30254494823E+04  0.25500000000E-02 0. -1.
    8880023    1    1    2    0    0 -0.10751814420E+03  0.21634042307E+02  0.27890140705E+03  0.72361894961E+03  0.65864270000E+03 0.  1.
    8880022    1    1    2    0    0  0.10751814420E+03 -0.21634042307E+02 -0.27999317126E+04  0.28062497094E+04  0.15294330000E+03 0.  0.
<mgrwt>
<rscale>  0 0.48651627E+03</rscale>
<asrwt>0</asrwt>
<pdfrwt beam="1">  1        2 0.46545376E+00 0.66771131E+03</pdfrwt>
<pdfrwt beam="2">  1       -2 0.77602952E-01 0.66771131E+03</pdfrwt>
<totfact> 0.27012815E+00</totfact>
</mgrwt>
</event>
<event>
 4    5  0.2295023E-007  0.9290077E+03  0.7818608E-02  0.9480983E-01
         -2   -1    0    0    0  501 -0.00000000000E+00  0.00000000000E+00  0.65657605832E+03  0.65657605833E+03  0.25500000000E-02 0.  1.
          2   -1    0    0  501    0  0.00000000000E+00 -0.00000000000E+00 -0.18548408770E+04  0.18548408770E+04  0.25500000000E-02 0. -1.
    8880023    1    1    2    0    0 -0.63537088608E+03 -0.15984018284E+03  0.20844026604E+03  0.95210429980E+03  0.65864270000E+03 0.  0.
    8880022    1    1    2    0    0  0.63537088608E+03  0.15984018284E+03 -0.14067050847E+04  0.15593126355E+04  0.15294330000E+03 0.  0.
<mgrwt>
<rscale>  0 0.85700468E+03</rscale>
<asrwt>0</asrwt>
<pdfrwt beam="1">  1        2 0.28536013E+00 0.92900767E+03</pdfrwt>
<pdfrwt beam="2">  1       -2 0.10101170E+00 0.92900767E+03</pdfrwt>
<totfact> 0.65339708E+00</totfact>
</mgrwt>
</event>
<event>
 4    5  0.2295023E-007  0.1168666E+04  0.7818608E-02  0.9188200E-01
         -2   -1    0    0    0  501 -0.00000000000E+00  0.00000000000E+00  0.89864771086E+03  0.89864771086E+03  0.25500000000E-02 0.  1.
          2   -1    0    0  501    0  0.00000000000E+00 -0.00000000000E+00 -0.16259693181E+04  0.16259693181E+04  0.25500000000E-02 0. -1.
    8880023    1    1    2    0    0  0.37102434470E+03 -0.89124106687E+03  0.19017069067E+03  0.11840375000E+04  0.65864270000E+03 0.  0.
    8880022    1    1    2    0    0 -0.37102434470E+03  0.89124106687E+03 -0.91749229790E+03  0.13405795289E+04  0.15294330000E+03 0.  0.
<mgrwt>
<rscale>  0 0.11176060E+04</rscale>
<asrwt>0</asrwt>
<pdfrwt beam="1">  1        2 0.25014912E+00 0.11686659E+04</pdfrwt>
<pdfrwt beam="2">  1       -2 0.13825349E+00 0.11686659E+04</pdfrwt>
<totfact> 0.39061054E+00</totfact>
</mgrwt>
</event>
<event>
 4    5  0.2295023E-007  0.6847327E+03  0.7818608E-02  0.1006764E+00
          2   -1    0    0  501    0  0.00000000000E+00  0.00000000000E+00  0.45193205032E+03  0.45193205033E+03  0.25500000000E-02 0. -1.
         -2   -1    0    0    0  501 -0.00000000000E+00 -0.00000000000E+00 -0.80737895197E+03  0.80737895198E+03  0.25500000000E-02 0.  1.
    8880023    1    1    2    0    0 -0.12126604161E+03  0.14262943393E+03 -0.60365681091E+03  0.91283095910E+03  0.65864270000E+03 0.  0.
    8880022    1    1    2    0    0  0.12126604161E+03 -0.14262943393E+03  0.24820990925E+03  0.34648004320E+03  0.15294330000E+03 0.  0.
<mgrwt>
<rscale>  0 0.52781266E+03</rscale>
<asrwt>0</asrwt>
<pdfrwt beam="1">  1        2 0.69528008E-01 0.68473266E+03</pdfrwt>
<pdfrwt beam="2">  1       -2 0.12421215E+00 0.68473266E+03</pdfrwt>
<totfact> 0.34287372E+01</totfact>
</mgrwt>
</event>
<event>
 4    5  0.2295023E-007  0.1313737E+04  0.7818608E-02  0.9053787E-01
          2   -1    0    0  501    0  0.00000000000E+00  0.00000000000E+00  0.24040054873E+04  0.24040054873E+04  0.25500000000E-02 0. -1.
         -2   -1    0    0    0  501 -0.00000000000E+00 -0.00000000000E+00 -0.83397115845E+03  0.83397115846E+03  0.25500000000E-02 0.  1.
    8880023    1    1    2    0    0  0.11095011813E+04 -0.24718687331E+03  0.25276290648E+02  0.13139799537E+04  0.65864270000E+03 0.  1.
    8880022    1    1    2    0    0 -0.11095011813E+04  0.24718687331E+03  0.15447580382E+04  0.19239966921E+04  0.15294330000E+03 0. -1.
<mgrwt>
<rscale>  0 0.12698928E+04</rscale>
<asrwt>0</asrwt>
<pdfrwt beam="1">  1        2 0.36984700E+00 0.13137368E+04</pdfrwt>
<pdfrwt beam="2">  1       -2 0.12830326E+00 0.13137368E+04</pdfrwt>
<totfact> 0.17153104E+00</totfact>
</mgrwt>
</event>
<event>
 4    5  0.2295023E-007  0.1446744E+04  0.7818608E-02  0.8948187E-01
          2   -1    0    0  501    0  0.00000000000E+00  0.00000000000E+00  0.13914442642E+04  0.13914442642E+04  0.25500000000E-02 0. -1.
         -2   -1    0    0    0  501 -0.00000000000E+00 -0.00000000000E+00 -0.14469847297E+04  0.14469847297E+04  0.25500000000E-02 0.  1.
    8880023    1    1    2    0    0 -0.11034480596E+04 -0.66457453165E+03 -0.39087543369E+03  0.14986162748E+04  0.65864270000E+03 0.  0.
    8880022    1    1    2    0    0  0.11034480596E+04  0.66457453165E+03  0.33533496814E+03  0.13398127190E+04  0.15294330000E+03 0.  0.
<mgrwt>
<rscale>  0 0.14078062E+04</rscale>
<asrwt>0</asrwt>
<pdfrwt beam="1">  1        2 0.21406835E+00 0.14467436E+04</pdfrwt>
<pdfrwt beam="2">  1       -2 0.22261303E+00 0.14467436E+04</pdfrwt>
<totfact> 0.13183329E+00</totfact>
</mgrwt>
</event>
<event>
 4    5  0.2295023E-007  0.1061310E+04  0.7818608E-02  0.9305408E-01
         -2   -1    0    0    0  501 -0.00000000000E+00  0.00000000000E+00  0.55665298966E+03  0.55665298967E+03  0.25500000000E-02 0.  1.
          2   -1    0    0  501    0  0.00000000000E+00 -0.00000000000E+00 -0.23107150729E+04  0.23107150729E+04  0.25500000000E-02 0. -1.
    8880023    1    1    2    0    0  0.82967045878E+03 -0.64920147165E+02 -0.17193281841E+04  0.20205116447E+04  0.65864270000E+03 0.  0.
    8880022    1    1    2    0    0 -0.82967045878E+03  0.64920147165E+02 -0.34733899172E+02  0.84685641784E+03  0.15294330000E+03 0.  0.
<mgrwt>
<rscale>  0 0.10028653E+04</rscale>
<asrwt>0</asrwt>
<pdfrwt beam="1">  1        2 0.35549462E+00 0.10613095E+04</pdfrwt>
<pdfrwt beam="2">  1       -2 0.85638923E-01 0.10613095E+04</pdfrwt>
<totfact> 0.52887496E+00</totfact>
</mgrwt>
</event>
<event>
 4    5  0.2295023E-007  0.7605627E+03  0.7818608E-02  0.9803653E-01
         -2   -1    0    0    0  501 -0.00000000000E+00  0.00000000000E+00  0.19938257399E+04  0.19938257399E+04  0.25500000000E-02 0.  1.
          2   -1    0    0  501    0  0.00000000000E+00 -0.00000000000E+00 -0.52693337521E+03  0.52693337521E+03  0.25500000000E-02 0. -1.
    8880023    1    1    2    0    0 -0.33462418697E+03 -0.18075428412E+03  0.18245604372E+04  0.19767337840E+04  0.65864270000E+03 0.  1.
    8880022    1    1    2    0    0  0.33462418697E+03  0.18075428412E+03 -0.35766807251E+03  0.54402533106E+03  0.15294330000E+03 0.  0.
<mgrwt>
<rscale>  0 0.65166880E+03</rscale>
<asrwt>0</asrwt>
<pdfrwt beam="1">  1        2 0.81066673E-01 0.76056273E+03</pdfrwt>
<pdfrwt beam="2">  1       -2 0.30674242E+00 0.76056273E+03</pdfrwt>
<totfact> 0.17432235E+00</totfact>
</mgrwt>
</event>
<event>
 4    5  0.2295023E-007  0.1092254E+04  0.7818608E-02  0.9269730E-01
         -2   -1    0    0    0  501 -0.00000000000E+00  0.00000000000E+00  0.11260751928E+04  0.11260751928E+04  0.25500000000E-02 0.  1.
          2   -1    0    0  501    0  0.00000000000E+00 -0.00000000000E+00 -0.10026044400E+04  0.10026044400E+04  0.25500000000E-02 0. -1.
    8880023    1    1    2    0    0  0.81270069447E+03  0.31420744778E+03  0.45597322895E+03  0.11836091123E+04  0.65864270000E+03 0.  0.
    8880022    1    1    2    0    0 -0.81270069447E+03 -0.31420744778E+03 -0.33250247609E+03  0.94507052047E+03  0.15294330000E+03 0.  0.
<mgrwt>
<rscale>  0 0.10361801E+04</rscale>
<asrwt>0</asrwt>
<pdfrwt beam="1">  1        2 0.15424684E+00 0.10922541E+04</pdfrwt>
<pdfrwt beam="2">  1       -2 0.17324234E+00 0.10922541E+04</pdfrwt>
<totfact> 0.49833002E+00</totfact>
</mgrwt>
</event>
<event>
 4    5  0.2295023E-007  0.9313613E+03  0.7818608E-02  0.9477454E-01
         -2   -1    0    0    0  501 -0.00000000000E+00  0.00000000000E+00  0.76689674109E+03  0.76689674109E+03  0.25500000000E-02 0.  1.
          2   -1    0    0  501    0  0.00000000000E+00 -0.00000000000E+00 -0.10352080403E+04  0.10352080403E+04  0.25500000000E-02 0. -1.
    8880023    1    1    2    0    0  0.56518591443E+03  0.33791785888E+03  0.23349884628E+03  0.96018514605E+03  0.65864270000E+03 0.  1.
    8880022    1    1    2    0    0 -0.56518591443E+03 -0.33791785888E+03 -0.50181014547E+03  0.84191963532E+03  0.15294330000E+03 0.  0.
<mgrwt>
<rscale>  0 0.85966642E+03</rscale>
<asrwt>0</asrwt>
<pdfrwt beam="1">  1        2 0.15926278E+00 0.93136126E+03</pdfrwt>
<pdfrwt beam="2">  1       -2 0.11798411E+00 0.93136126E+03</pdfrwt>
<totfact> 0.13227936E+01</totfact>
</mgrwt>
</event>
<event>
 4    5  0.2295023E-007  0.9365793E+03  0.7818608E-02  0.9469692E-01
          2   -1    0    0  501    0  0.00000000000E+00  0.00000000000E+00  0.46764326992E+04  0.46764326992E+04  0.25500000000E-02 0. -1.
         -2   -1    0    0    0  501 -0.00000000000E+00 -0.00000000000E+00 -0.38803048047E+03  0.38803048048E+03  0.25500000000E-02 0.  1.
    8880023    1    1    2    0    0  0.23671867482E+03 -0.62236225725E+03  0.25095255280E+03  0.96961739892E+03  0.65864270000E+03 0.  1.
    8880022    1    1    2    0    0 -0.23671867482E+03  0.62236225725E+03  0.40374496659E+04  0.40948457807E+04  0.15294330000E+03 0.  0.
<mgrwt>
<rscale>  0 0.86555637E+03</rscale>
<asrwt>0</asrwt>
<pdfrwt beam="1">  1        2 0.71945121E+00 0.93657926E+03</pdfrwt>
<pdfrwt beam="2">  1       -2 0.59696995E-01 0.93657926E+03</pdfrwt>
<totfact> 0.23437443E-01</totfact>
</mgrwt>
</event>
<event>
 4    5  0.2295023E-007  0.1100130E+04  0.7818608E-02  0.9260911E-01
         -2   -1    0    0    0  501 -0.00000000000E+00  0.00000000000E+00  0.42368843623E+03  0.42368843624E+03  0.25500000000E-02 0.  1.
          2   -1    0    0  501    0  0.00000000000E+00 -0.00000000000E+00 -0.28070305303E+04  0.28070305303E+04  0.25500000000E-02 0. -1.
    8880023    1    1    2    0    0  0.83397382048E+03  0.28454130792E+03 -0.64361238619E+03  0.12745678480E+04  0.65864270000E+03 0.  1.
    8880022    1    1    2    0    0 -0.83397382048E+03 -0.28454130792E+03 -0.17397297078E+04  0.19561511185E+04  0.15294330000E+03 0.  0.
<mgrwt>
<rscale>  0 0.10446248E+04</rscale>
<asrwt>0</asrwt>
<pdfrwt beam="1">  1        2 0.43185084E+00 0.11001301E+04</pdfrwt>
<pdfrwt beam="2">  1       -2 0.65182838E-01 0.11001301E+04</pdfrwt>
<totfact> 0.49915389E+00</totfact>
</mgrwt>
</event>
<event>
 4    5  0.2295023E-007  0.7812772E+03  0.7818608E-02  0.9752845E-01
          2   -1    0    0  501    0  0.00000000000E+00  0.00000000000E+00  0.91334814532E+03  0.91334814532E+03  0.25500000000E-02 0. -1.
         -2   -1    0    0    0  501 -0.00000000000E+00 -0.00000000000E+00 -0.98234271110E+03  0.98234271111E+03  0.25500000000E-02 0.  1.
    8880023    1    1    2    0    0 -0.41841242037E+03  0.38921409890E+02 -0.74868033372E+03  0.10820888494E+04  0.65864270000E+03 0.  1.
    8880022    1    1    2    0    0  0.41841242037E+03 -0.38921409890E+02  0.67968576793E+03  0.81360200701E+03  0.15294330000E+03 0.  0.
<mgrwt>
<rscale>  0 0.67955709E+03</rscale>
<asrwt>0</asrwt>
<pdfrwt beam="1">  1        2 0.14051510E+00 0.78127718E+03</pdfrwt>
<pdfrwt beam="2">  1       -2 0.15112965E+00 0.78127718E+03</pdfrwt>
<totfact> 0.85508801E+00</totfact>
</mgrwt>
</event>
<event>
 4    5  0.2295023E-007  0.1289805E+04  0.7818608E-02  0.9074414E-01
         -2   -1    0    0    0  501 -0.00000000000E+00  0.00000000000E+00  0.14073804868E+04  0.14073804868E+04  0.25500000000E-02 0.  1.
          2   -1    0    0  501    0  0.00000000000E+00 -0.00000000000E+00 -0.12588637451E+04  0.12588637451E+04  0.25500000000E-02 0. -1.
    8880023    1    1    2    0    0 -0.13369914521E+03 -0.11008682042E+04 -0.48734646915E+03  0.13788049361E+04  0.65864270000E+03 0.  0.
    8880022    1    1    2    0    0  0.13369914521E+03  0.11008682042E+04  0.63586321086E+03  0.12874392958E+04  0.15294330000E+03 0.  0.
<mgrwt>
<rscale>  0 0.12449290E+04</rscale>
<asrwt>0</asrwt>
<pdfrwt beam="1">  1        2 0.19367135E+00 0.12898048E+04</pdfrwt>
<pdfrwt beam="2">  1       -2 0.21652008E+00 0.12898048E+04</pdfrwt>
<totfact> 0.17487191E+00</totfact>
</mgrwt>
</event>
<event>
 4    5  0.2295023E-007  0.1518963E+04  0.7818608E-02  0.8896360E-01
          2   -1    0    0  501    0  0.00000000000E+00  0.00000000000E+00  0.13892782054E+04  0.13892782054E+04  0.25500000000E-02 0. -1.
         -2   -1    0    0    0  501 -0.00000000000E+00 -0.00000000000E+00 -0.17699210764E+04  0.17699210764E+04  0.25500000000E-02 0.  1.
    8880023    1    1    2    0    0  0.12486633066E+04  0.56060489130E+03 -0.80363536658E+03  0.17184521833E+04  0.65864270000E+03 0.  0.
    8880022    1    1    2    0    0 -0.12486633066E+04 -0.56060489130E+03  0.42299249557E+03  0.14407470985E+04  0.15294330000E+03 0.  0.
<mgrwt>
<rscale>  0 0.14822242E+04</rscale>
<asrwt>0</asrwt>
<pdfrwt beam="1">  1        2 0.21373511E+00 0.15189628E+04</pdfrwt>
<pdfrwt beam="2">  1       -2 0.27229555E+00 0.15189628E+04</pdfrwt>
<totfact> 0.64732395E-01</totfact>
</mgrwt>
</event>
<event>
 4    5  0.2295023E-007  0.7619525E+03  0.7818608E-02  0.9800079E-01
         -2   -1    0    0    0  501 -0.00000000000E+00  0.00000000000E+00  0.26412803230E+03  0.26412803231E+03  0.25500000000E-02 0.  1.
          2   -1    0    0  501    0  0.00000000000E+00 -0.00000000000E+00 -0.19161503494E+04  0.19161503494E+04  0.25500000000E-02 0. -1.
    8880023    1    1    2    0    0  0.32607168882E+03  0.20109361796E+03 -0.39693658912E+03  0.85914507010E+03  0.65864270000E+03 0.  1.
    8880022    1    1    2    0    0 -0.32607168882E+03 -0.20109361796E+03 -0.12550857279E+04  0.13211333116E+04  0.15294330000E+03 0.  0.
<mgrwt>
<rscale>  0 0.65358321E+03</rscale>
<asrwt>0</asrwt>
<pdfrwt beam="1">  1        2 0.29479235E+00 0.76195249E+03</pdfrwt>
<pdfrwt beam="2">  1       -2 0.40635083E-01 0.76195249E+03</pdfrwt>
<totfact> 0.43830822E+01</totfact>
</mgrwt>
</event>
<event>
 4    5  0.2295023E-007  0.7342903E+03  0.7818608E-02  0.9876902E-01
          2   -1    0    0  501    0  0.00000000000E+00  0.00000000000E+00  0.13050379536E+04  0.13050379536E+04  0.25500000000E-02 0. -1.
         -2   -1    0    0    0  501 -0.00000000000E+00 -0.00000000000E+00 -0.61667065310E+03  0.61667065310E+03  0.25500000000E-02 0.  1.
    8880023    1    1    2    0    0 -0.96062841463E+02  0.31007081641E+03 -0.35699516616E+03  0.81647274028E+03  0.65864270000E+03 0.  1.
    8880022    1    1    2    0    0  0.96062841463E+02 -0.31007081641E+03  0.10453624667E+04  0.11052358664E+04  0.15294330000E+03 0.  0.
<mgrwt>
<rscale>  0 0.61393866E+03</rscale>
<asrwt>0</asrwt>
<pdfrwt beam="1">  1        2 0.20077507E+00 0.73429026E+03</pdfrwt>
<pdfrwt beam="2">  1       -2 0.94872408E-01 0.73429026E+03</pdfrwt>
<totfact> 0.15702616E+01</totfact>
</mgrwt>
</event>
<event>
 4    5  0.2295023E-007  0.6868112E+03  0.7818608E-02  0.1005707E+00
          2   -1    0    0  501    0  0.00000000000E+00  0.00000000000E+00  0.31903399085E+04  0.31903399085E+04  0.25500000000E-02 0. -1.
         -2   -1    0    0    0  501 -0.00000000000E+00 -0.00000000000E+00 -0.26860598926E+03  0.26860598927E+03  0.25500000000E-02 0.  1.
    8880023    1    1    2    0    0  0.18427468017E+02 -0.19380352087E+03  0.18534506336E+03  0.71138061195E+03  0.65864270000E+03 0.  1.
    8880022    1    1    2    0    0 -0.18427468017E+02  0.19380352087E+03  0.27363888558E+04  0.27475652858E+04  0.15294330000E+03 0.  0.
<mgrwt>
<rscale>  0 0.53217274E+03</rscale>
<asrwt>0</asrwt>
<pdfrwt beam="1">  1        2 0.49082148E+00 0.68681117E+03</pdfrwt>
<pdfrwt beam="2">  1       -2 0.41324002E-01 0.68681117E+03</pdfrwt>
<totfact> 0.79126239E+00</totfact>
</mgrwt>
</event>
<event>
 4    5  0.2295023E-007  0.1307410E+04  0.7818608E-02  0.9059187E-01
          2   -1    0    0  501    0  0.00000000000E+00  0.00000000000E+00  0.26044184677E+04  0.26044184677E+04  0.25500000000E-02 0. -1.
         -2   -1    0    0    0  501 -0.00000000000E+00 -0.00000000000E+00 -0.90255209270E+03  0.90255209270E+03  0.25500000000E-02 0.  1.
    8880023    1    1    2    0    0 -0.10592392673E+04 -0.39181969293E+03 -0.16697346461E+03  0.13180291504E+04  0.65864270000E+03 0.  1.
    8880022    1    1    2    0    0  0.10592392673E+04  0.39181969293E+03  0.18688398397E+04  0.21889414100E+04  0.15294330000E+03 0.  0.
<mgrwt>
<rscale>  0 0.12632982E+04</rscale>
<asrwt>0</asrwt>
<pdfrwt beam="1">  1        2 0.40067976E+00 0.13074099E+04</pdfrwt>
<pdfrwt beam="2">  1       -2 0.13885417E+00 0.13074099E+04</pdfrwt>
<totfact> 0.10734181E+00</totfact>
</mgrwt>
</event>
<event>
 4    5  0.2295023E-007  0.1266332E+04  0.7818608E-02  0.9095194E-01
          2   -1    0    0  501    0  0.00000000000E+00  0.00000000000E+00  0.33951995756E+04  0.33951995756E+04  0.25500000000E-02 0. -1.
         -2   -1    0    0    0  501 -0.00000000000E+00 -0.00000000000E+00 -0.53179650687E+03  0.53179650688E+03  0.25500000000E-02 0.  1.
    8880023    1    1    2    0    0 -0.91690582042E+03  0.57364640320E+03  0.57398808494E+03  0.13903449239E+04  0.65864270000E+03 0.  0.
    8880022    1    1    2    0    0  0.91690582042E+03 -0.57364640320E+03  0.22894149838E+04  0.25366511586E+04  0.15294330000E+03 0.  0.
<mgrwt>
<rscale>  0 0.12203906E+04</rscale>
<asrwt>0</asrwt>
<pdfrwt beam="1">  1        2 0.52233837E+00 0.12663320E+04</pdfrwt>
<pdfrwt beam="2">  1       -2 0.81814851E-01 0.12663320E+04</pdfrwt>
<totfact> 0.12520427E+00</totfact>
</mgrwt>
</event>
<event>
 4    5  0.2295023E-007  0.6724800E+03  0.7818608E-02  0.1013944E+00
         -2   -1    0    0    0  501 -0.00000000000E+00  0.00000000000E+00  0.15902642778E+04  0.15902642778E+04  0.25500000000E-02 0.  1.
          2   -1    0    0  501    0  0.00000000000E+00 -0.00000000000E+00 -0.78923146114E+03  0.78923146114E+03  0.25500000000E-02 0. -1.
    8880023    1    1    2    0    0 -0.10526639959E+02  0.13530821633E+03  0.15039449302E+04  0.16474464128E+04  0.65864270000E+03 0.  1.
    8880022    1    1    2    0    0  0.10526639959E+02 -0.13530821633E+03 -0.70291211356E+03  0.73204932618E+03  0.15294330000E+03 0.  0.
<mgrwt>
<rscale>  0 0.49936782E+03</rscale>
<asrwt>0</asrwt>
<pdfrwt beam="1">  1        2 0.12142023E+00 0.67247998E+03</pdfrwt>
<pdfrwt beam="2">  1       -2 0.24465604E+00 0.67247998E+03</pdfrwt>
<totfact> 0.25372293E+00</totfact>
</mgrwt>
</event>
<event>
 4    5  0.2295023E-007  0.1058683E+04  0.7818608E-02  0.9308515E-01
         -2   -1    0    0    0  501 -0.00000000000E+00  0.00000000000E+00  0.82405511460E+03  0.82405511460E+03  0.25500000000E-02 0.  1.
          2   -1    0    0  501    0  0.00000000000E+00 -0.00000000000E+00 -0.18374332586E+04  0.18374332586E+04  0.25500000000E-02 0. -1.
    8880023    1    1    2    0    0  0.51332668024E+03 -0.65076527134E+03 -0.13825497188E+04  0.17413367424E+04  0.65864270000E+03 0.  0.
    8880022    1    1    2    0    0 -0.51332668024E+03  0.65076527134E+03  0.36917157483E+03  0.92015163083E+03  0.15294330000E+03 0.  0.
<mgrwt>
<rscale>  0 0.10000269E+04</rscale>
<asrwt>0</asrwt>
<pdfrwt beam="1">  1        2 0.28268204E+00 0.10586831E+04</pdfrwt>
<pdfrwt beam="2">  1       -2 0.12677771E+00 0.10586831E+04</pdfrwt>
<totfact> 0.37671483E+00</totfact>
</mgrwt>
</event>
<event>
 4    5  0.2295023E-007  0.1176560E+04  0.7818608E-02  0.9180252E-01
         -2   -1    0    0    0  501 -0.00000000000E+00  0.00000000000E+00  0.81433053838E+03  0.81433053838E+03  0.25500000000E-02 0.  1.
          2   -1    0    0  501    0  0.00000000000E+00 -0.00000000000E+00 -0.18783500455E+04  0.18783500455E+04  0.25500000000E-02 0. -1.
    8880023    1    1    2    0    0 -0.36401926373E+03 -0.90441832651E+03 -0.12184878977E+04  0.16938138908E+04  0.65864270000E+03 0.  0.
    8880022    1    1    2    0    0  0.36401926373E+03  0.90441832651E+03  0.15446839061E+03  0.99886669301E+03  0.15294330000E+03 0.  0.
<mgrwt>
<rscale>  0 0.11259610E+04</rscale>
<asrwt>0</asrwt>
<pdfrwt beam="1">  1        2 0.28897693E+00 0.11765597E+04</pdfrwt>
<pdfrwt beam="2">  1       -2 0.12528162E+00 0.11765597E+04</pdfrwt>
<totfact> 0.36380769E+00</totfact>
</mgrwt>
</event>
<event>
 4    5  0.2295023E-007  0.9617211E+03  0.7818608E-02  0.9433447E-01
         -2   -1    0    0    0  501 -0.00000000000E+00  0.00000000000E+00  0.82525748670E+03  0.82525748671E+03  0.25500000000E-02 0.  1.
          2   -1    0    0  501    0  0.00000000000E+00 -0.00000000000E+00 -0.24111184916E+04  0.24111184916E+04  0.25500000000E-02 0. -1.
    8880023    1    1    2    0    0 -0.67085255229E+03 -0.20261821965E+03  0.46170673227E+03  0.10668086064E+04  0.65864270000E+03 0.  0.
    8880022    1    1    2    0    0  0.67085255229E+03  0.20261821965E+03 -0.20475677371E+04  0.21695673718E+04  0.15294330000E+03 0.  0.
<mgrwt>
<rscale>  0 0.89373521E+03</rscale>
<asrwt>0</asrwt>
<pdfrwt beam="1">  1        2 0.37094130E+00 0.96172111E+03</pdfrwt>
<pdfrwt beam="2">  1       -2 0.12696269E+00 0.96172111E+03</pdfrwt>
<totfact> 0.18256870E+00</totfact>
</mgrwt>
</event>
<event>
 4    5  0.2295023E-007  0.8805143E+03  0.7818608E-02  0.9558065E-01
         -2   -1    0    0    0  501 -0.00000000000E+00  0.00000000000E+00  0.39897652276E+03  0.39897652277E+03  0.25500000000E-02 0.  1.
          2   -1    0    0  501    0  0.00000000000E+00 -0.00000000000E+00 -0.28999984549E+04  0.28999984549E+04  0.25500000000E-02 0. -1.
    8880023    1    1    2    0    0 -0.53552591472E+03  0.23389576425E+03 -0.17751353672E+03  0.89822964538E+03  0.65864270000E+03 0.  0.
    8880022    1    1    2    0    0  0.53552591472E+03 -0.23389576425E+03 -0.23235083954E+04  0.24007453323E+04  0.15294330000E+03 0.  0.
<mgrwt>
<rscale>  0 0.80134973E+03</rscale>
<asrwt>0</asrwt>
<pdfrwt beam="1">  1        2 0.44615359E+00 0.88051430E+03</pdfrwt>
<pdfrwt beam="2">  1       -2 0.61381005E-01 0.88051430E+03</pdfrwt>
<totfact> 0.51493387E+00</totfact>
</mgrwt>
</event>
<event>
 4    5  0.2295023E-007  0.9186829E+03  0.7818608E-02  0.9496682E-01
          2   -1    0    0  501    0  0.00000000000E+00  0.00000000000E+00  0.72390132837E+03  0.72390132837E+03  0.25500000000E-02 0. -1.
         -2   -1    0    0    0  501 -0.00000000000E+00 -0.00000000000E+00 -0.31604363544E+04  0.31604363544E+04  0.25500000000E-02 0.  1.
    8880023    1    1    2    0    0  0.34056259011E+03 -0.54238833514E+03 -0.29241017821E+04  0.30650202972E+04  0.65864270000E+03 0.  0.
    8880022    1    1    2    0    0 -0.34056259011E+03  0.54238833514E+03  0.48756675599E+03  0.81931738566E+03  0.15294330000E+03 0.  0.
<mgrwt>
<rscale>  0 0.84528919E+03</rscale>
<asrwt>0</asrwt>
<pdfrwt beam="1">  1        2 0.11136944E+00 0.91868286E+03</pdfrwt>
<pdfrwt beam="2">  1       -2 0.48622097E+00 0.91868286E+03</pdfrwt>
<totfact> 0.81309878E-02</totfact>
</mgrwt>
</event>
<event>
 4    5  0.2295023E-007  0.7237683E+03  0.7818608E-02  0.9910036E-01
         -2   -1    0    0    0  501 -0.00000000000E+00  0.00000000000E+00  0.14014073379E+04  0.14014073379E+04  0.25500000000E-02 0.  1.
          2   -1    0    0  501    0  0.00000000000E+00 -0.00000000000E+00 -0.17796310395E+04  0.17796310396E+04  0.25500000000E-02 0. -1.
    8880023    1    1    2    0    0  0.69468485852E+02  0.29189797392E+03  0.12899948610E+04  0.14791643741E+04  0.65864270000E+03 0.  0.
    8880022    1    1    2    0    0 -0.69468485852E+02 -0.29189797392E+03 -0.16682185627E+04  0.17018740034E+04  0.15294330000E+03 0.  0.
<mgrwt>
<rscale>  0 0.59777368E+03</rscale>
<asrwt>0</asrwt>
<pdfrwt beam="1">  1        2 0.27378939E+00 0.72376827E+03</pdfrwt>
<pdfrwt beam="2">  1       -2 0.21560113E+00 0.72376827E+03</pdfrwt>
<totfact> 0.97719949E-01</totfact>
</mgrwt>
</event>
<event>
 4    5  0.2295023E-007  0.1608668E+04  0.7818608E-02  0.8836484E-01
          2   -1    0    0  501    0  0.00000000000E+00  0.00000000000E+00  0.22971771288E+04  0.22971771288E+04  0.25500000000E-02 0. -1.
         -2   -1    0    0    0  501 -0.00000000000E+00 -0.00000000000E+00 -0.12375582640E+04  0.12375582640E+04  0.25500000000E-02 0.  1.
    8880023    1    1    2    0    0  0.46657464678E+03 -0.13915139812E+04 -0.16507348809E+03  0.16171154948E+04  0.65864270000E+03 0.  0.
    8880022    1    1    2    0    0 -0.46657464678E+03  0.13915139812E+04  0.12246923530E+04  0.19176198980E+04  0.15294330000E+03 0.  0.
<mgrwt>
<rscale>  0 0.15743163E+04</rscale>
<asrwt>0</asrwt>
<pdfrwt beam="1">  1        2 0.35341186E+00 0.16086682E+04</pdfrwt>
<pdfrwt beam="2">  1       -2 0.19039358E+00 0.16086682E+04</pdfrwt>
<totfact> 0.65176985E-01</totfact>
</mgrwt>
</event>
<event>
 4    5  0.3345507E-007  0.1081597E+04  0.7818608E-02  0.9281828E-01
          2   -1    0    0  501    0  0.00000000000E+00  0.00000000000E+00  0.19799404743E+04  0.19799404743E+04  0.25500000000E-02 0. -1.
         -2   -1    0    0    0  501 -0.00000000000E+00 -0.00000000000E+00 -0.21274129867E+04  0.21274129867E+04  0.25500000000E-02 0.  1.
    8880023    1    1    2    0    0 -0.84446849135E+03 -0.15137300902E+03 -0.18794735975E+04  0.21684722804E+04  0.65864270000E+03 0.  1.
    8880022    1    1    2    0    0  0.84446849135E+03  0.15137300902E+03  0.17320010851E+04  0.19388811806E+04  0.15294330000E+03 0.  0.
<mgrwt>
<rscale>  0 0.10247315E+04</rscale>
<asrwt>0</asrwt>
<pdfrwt beam="1">  1        2 0.30460623E+00 0.10815965E+04</pdfrwt>
<pdfrwt beam="2">  1       -2 0.32729431E+00 0.10815965E+04</pdfrwt>
<totfact> 0.14777896E-01</totfact>
</mgrwt>
</event>
<event>
 4    5  0.2295023E-007  0.1214492E+04  0.7818608E-02  0.9143163E-01
          2   -1    0    0  501    0  0.00000000000E+00  0.00000000000E+00  0.19270295969E+04  0.19270295969E+04  0.25500000000E-02 0. -1.
         -2   -1    0    0    0  501 -0.00000000000E+00 -0.00000000000E+00 -0.14953452525E+04  0.14953452525E+04  0.25500000000E-02 0.  1.
    8880023    1    1    2    0    0 -0.35161283531E+03  0.95788734339E+03 -0.10577080661E+04  0.16105080900E+04  0.65864270000E+03 0.  0.
    8880022    1    1    2    0    0  0.35161283531E+03 -0.95788734339E+03  0.14893924105E+04  0.18118667595E+04  0.15294330000E+03 0.  0.
<mgrwt>
<rscale>  0 0.11659844E+04</rscale>
<asrwt>0</asrwt>
<pdfrwt beam="1">  1        2 0.29646609E+00 0.12144916E+04</pdfrwt>
<pdfrwt beam="2">  1       -2 0.23005312E+00 0.12144916E+04</pdfrwt>
<totfact> 0.60772827E-01</totfact>
</mgrwt>
</event>
<event>
 4    5  0.2295023E-007  0.9057230E+03  0.7818608E-02  0.9516906E-01
         -2   -1    0    0    0  501 -0.00000000000E+00  0.00000000000E+00  0.34648516213E+03  0.34648516214E+03  0.25500000000E-02 0.  1.
          2   -1    0    0  501    0  0.00000000000E+00 -0.00000000000E+00 -0.41346618057E+04  0.41346618057E+04  0.25500000000E-02 0. -1.
    8880023    1    1    2    0    0  0.61637308658E+03  0.81290336819E+02 -0.32963471051E+03  0.96384290699E+03  0.65864270000E+03 0.  1.
    8880022    1    1    2    0    0 -0.61637308658E+03 -0.81290336819E+02 -0.34585419330E+04  0.35173040608E+04  0.15294330000E+03 0.  0.
<mgrwt>
<rscale>  0 0.83048795E+03</rscale>
<asrwt>0</asrwt>
<pdfrwt beam="1">  1        2 0.63610178E+00 0.90572297E+03</pdfrwt>
<pdfrwt beam="2">  1       -2 0.53305412E-01 0.90572297E+03</pdfrwt>
<totfact> 0.94802672E-01</totfact>
</mgrwt>
</event>
<event>
 4    5  0.2295023E-007  0.6947312E+03  0.7818608E-02  0.1001980E+00
          2   -1    0    0  501    0  0.00000000000E+00  0.00000000000E+00  0.11784623829E+04  0.11784623829E+04  0.25500000000E-02 0. -1.
         -2   -1    0    0    0  501 -0.00000000000E+00 -0.00000000000E+00 -0.60409468824E+03  0.60409468825E+03  0.25500000000E-02 0.  1.
    8880023    1    1    2    0    0  0.11083383816E+03 -0.19119911562E+03 -0.37944679247E+03  0.79160047756E+03  0.65864270000E+03 0.  0.
    8880022    1    1    2    0    0 -0.11083383816E+03  0.19119911562E+03  0.95381448714E+03  0.99095659360E+03  0.15294330000E+03 0.  0.
<mgrwt>
<rscale>  0 0.54790401E+03</rscale>
<asrwt>0</asrwt>
<pdfrwt beam="1">  1        2 0.18130190E+00 0.69473121E+03</pdfrwt>
<pdfrwt beam="2">  1       -2 0.92937645E-01 0.69473121E+03</pdfrwt>
<totfact> 0.19627902E+01</totfact>
</mgrwt>
</event>
<event>
 4    5  0.2295023E-007  0.1650769E+04  0.7818608E-02  0.8809913E-01
         -2   -1    0    0    0  501 -0.00000000000E+00  0.00000000000E+00  0.23095352778E+04  0.23095352778E+04  0.25500000000E-02 0.  1.
          2   -1    0    0  501    0  0.00000000000E+00 -0.00000000000E+00 -0.17330068249E+04  0.17330068249E+04  0.25500000000E-02 0. -1.
    8880023    1    1    2    0    0 -0.17547968692E+03 -0.15034741356E+04  0.15269451820E+04  0.22486883715E+04  0.65864270000E+03 0.  0.
    8880022    1    1    2    0    0  0.17547968692E+03  0.15034741356E+04 -0.95041672906E+03  0.17938537312E+04  0.15294330000E+03 0.  0.
<mgrwt>
<rscale>  0 0.16174268E+04</rscale>
<asrwt>0</asrwt>
<pdfrwt beam="1">  1        2 0.26661644E+00 0.16507689E+04</pdfrwt>
<pdfrwt beam="2">  1       -2 0.35531312E+00 0.16507689E+04</pdfrwt>
<totfact> 0.12509452E-01</totfact>
</mgrwt>
</event>
<event>
 4    5  0.2295023E-007  0.7507668E+03  0.7818608E-02  0.9829626E-01
          2   -1    0    0  501    0  0.00000000000E+00  0.00000000000E+00  0.74854735144E+03  0.74854735144E+03  0.25500000000E-02 0. -1.
         -2   -1    0    0    0  501 -0.00000000000E+00 -0.00000000000E+00 -0.58709229794E+03  0.58709229795E+03  0.25500000000E-02 0.  1.
    8880023    1    1    2    0    0  0.21941923558E+03  0.28582476843E+03 -0.22682509821E+03  0.78428338669E+03  0.65864270000E+03 0.  1.
    8880022    1    1    2    0    0 -0.21941923558E+03 -0.28582476843E+03  0.38828015170E+03  0.55135626270E+03  0.15294330000E+03 0.  0.
<mgrwt>
<rscale>  0 0.63796606E+03</rscale>
<asrwt>0</asrwt>
<pdfrwt beam="1">  1        2 0.11516113E+00 0.75076681E+03</pdfrwt>
<pdfrwt beam="2">  1       -2 0.90321891E-01 0.75076681E+03</pdfrwt>
<totfact> 0.39933044E+01</totfact>
</mgrwt>
</event>
<event>
 4    5  0.2295023E-007  0.1234299E+04  0.7818608E-02  0.9124481E-01
          2   -1    0    0  501    0  0.00000000000E+00  0.00000000000E+00  0.41740579647E+04  0.41740579647E+04  0.25500000000E-02 0. -1.
         -2   -1    0    0    0  501 -0.00000000000E+00 -0.00000000000E+00 -0.58336828598E+03  0.58336828599E+03  0.25500000000E-02 0.  1.
    8880023    1    1    2    0    0 -0.23337147352E+03 -0.10174589440E+04  0.25699376277E+03  0.12607699821E+04  0.65864270000E+03 0.  0.
    8880022    1    1    2    0    0  0.23337147352E+03  0.10174589440E+04  0.33336959160E+04  0.34966562686E+04  0.15294330000E+03 0.  0.
<mgrwt>
<rscale>  0 0.11868096E+04</rscale>
<asrwt>0</asrwt>
<pdfrwt beam="1">  1        2 0.64216275E+00 0.12342995E+04</pdfrwt>
<pdfrwt beam="2">  1       -2 0.89748968E-01 0.12342995E+04</pdfrwt>
<totfact> 0.26421713E-01</totfact>
</mgrwt>
</event>
<event>
 4    5  0.2295023E-007  0.1178331E+04  0.7818608E-02  0.9178479E-01
         -2   -1    0    0    0  501 -0.00000000000E+00  0.00000000000E+00  0.79890409267E+03  0.79890409268E+03  0.25500000000E-02 0.  1.
          2   -1    0    0  501    0  0.00000000000E+00 -0.00000000000E+00 -0.16633753148E+04  0.16633753148E+04  0.25500000000E-02 0. -1.
    8880023    1    1    2    0    0 -0.84081088301E+03 -0.49768647817E+03 -0.47122942050E+02  0.11792733142E+04  0.65864270000E+03 0.  0.
    8880022    1    1    2    0    0  0.84081088301E+03  0.49768647817E+03 -0.81734828005E+03  0.12830060933E+04  0.15294330000E+03 0.  0.
<mgrwt>
<rscale>  0 0.11278349E+04</rscale>
<asrwt>0</asrwt>
<pdfrwt beam="1">  1        2 0.25590389E+00 0.11783314E+04</pdfrwt>
<pdfrwt beam="2">  1       -2 0.12290832E+00 0.11783314E+04</pdfrwt>
<totfact> 0.50218542E+00</totfact>
</mgrwt>
</event>
<event>
 4    5  0.2295023E-007  0.8574628E+03  0.7818608E-02  0.9598093E-01
          2   -1    0    0  501    0  0.00000000000E+00  0.00000000000E+00  0.21704327199E+04  0.21704327199E+04  0.25500000000E-02 0. -1.
         -2   -1    0    0    0  501 -0.00000000000E+00 -0.00000000000E+00 -0.31659720678E+03  0.31659720679E+03  0.25500000000E-02 0.  1.
    8880023    1    1    2    0    0  0.46743134925E+03  0.28799343287E+03  0.44238698388E+03  0.96485684607E+03  0.65864270000E+03 0.  1.
    8880022    1    1    2    0    0 -0.46743134925E+03 -0.28799343287E+03  0.14114485292E+04  0.15221730806E+04  0.15294330000E+03 0.  0.
<mgrwt>
<rscale>  0 0.77422551E+03</rscale>
<asrwt>0</asrwt>
<pdfrwt beam="1">  1        2 0.33391272E+00 0.85746282E+03</pdfrwt>
<pdfrwt beam="2">  1       -2 0.48707263E-01 0.85746282E+03</pdfrwt>
<totfact> 0.21906425E+01</totfact>
</mgrwt>
</event>
<event>
 4    5  0.2295023E-007  0.8442638E+03  0.7818608E-02  0.9622192E-01
          2   -1    0    0  501    0  0.00000000000E+00  0.00000000000E+00  0.65755050908E+03  0.65755050908E+03  0.25500000000E-02 0. -1.
         -2   -1    0    0    0  501 -0.00000000000E+00 -0.00000000000E+00 -0.91515873882E+03  0.91515873883E+03  0.25500000000E-02 0.  1.
    8880023    1    1    2    0    0  0.15280905399E+02  0.52795609323E+03 -0.48953585057E+03  0.97592351017E+03  0.65864270000E+03 0.  0.
    8880022    1    1    2    0    0 -0.15280905399E+02 -0.52795609323E+03  0.23192762083E+03  0.59678573774E+03  0.15294330000E+03 0.  0.
<mgrwt>
<rscale>  0 0.75844600E+03</rscale>
<asrwt>0</asrwt>
<pdfrwt beam="1">  1        2 0.10116162E+00 0.84426379E+03</pdfrwt>
<pdfrwt beam="2">  1       -2 0.14079365E+00 0.84426379E+03</pdfrwt>
<totfact> 0.15773390E+01</totfact>
</mgrwt>
</event>
<event>
 4    5  0.2295023E-007  0.1137337E+04  0.7818608E-02  0.9220582E-01
          2   -1    0    0  501    0  0.00000000000E+00  0.00000000000E+00  0.14934802298E+04  0.14934802298E+04  0.25500000000E-02 0. -1.
         -2   -1    0    0    0  501 -0.00000000000E+00 -0.00000000000E+00 -0.12394249756E+04  0.12394249756E+04  0.25500000000E-02 0.  1.
    8880023    1    1    2    0    0 -0.78546069265E+03  0.49272286185E+03 -0.74633866151E+03  0.13603513966E+04  0.65864270000E+03 0.  0.
    8880022    1    1    2    0    0  0.78546069265E+03 -0.49272286185E+03  0.10003939158E+04  0.13725538088E+04  0.15294330000E+03 0.  0.
<mgrwt>
<rscale>  0 0.10843487E+04</rscale>
<asrwt>0</asrwt>
<pdfrwt beam="1">  1        2 0.22976619E+00 0.11373366E+04</pdfrwt>
<pdfrwt beam="2">  1       -2 0.19068077E+00 0.11373366E+04</pdfrwt>
<totfact> 0.19180919E+00</totfact>
</mgrwt>
</event>
<event>
 4    5  0.2295023E-007  0.2057911E+04  0.7818608E-02  0.8591870E-01
         -2   -1    0    0    0  501 -0.00000000000E+00  0.00000000000E+00  0.16074980808E+04  0.16074980808E+04  0.25500000000E-02 0.  1.
          2   -1    0    0  501    0  0.00000000000E+00 -0.00000000000E+00 -0.36666518084E+04  0.36666518084E+04  0.25500000000E-02 0. -1.
    8880023    1    1    2    0    0  0.11347411634E+04 -0.15854179838E+04  0.43632892602E+03  0.21036589147E+04  0.65864270000E+03 0.  1.
    8880022    1    1    2    0    0 -0.11347411634E+04  0.15854179838E+04 -0.24954826536E+04  0.31704909744E+04  0.15294330000E+03 0.  0.
<mgrwt>
<rscale>  0 0.20318559E+04</rscale>
<asrwt>0</asrwt>
<pdfrwt beam="1">  1        2 0.56410028E+00 0.20579111E+04</pdfrwt>
<pdfrwt beam="2">  1       -2 0.24730740E+00 0.20579111E+04</pdfrwt>
<totfact> 0.36429824E-02</totfact>
</mgrwt>
</event>
<event>
 4    5  0.2295023E-007  0.8897834E+03  0.7818608E-02  0.9542636E-01
         -2   -1    0    0    0  501 -0.00000000000E+00  0.00000000000E+00  0.44058601513E+03  0.44058601514E+03  0.25500000000E-02 0.  1.
          2   -1    0    0  501    0  0.00000000000E+00 -0.00000000000E+00 -0.23750374642E+04  0.23750374642E+04  0.25500000000E-02 0. -1.
    8880023    1    1    2    0    0 -0.43598380668E+03  0.40966124230E+03 -0.20055322250E+04  0.21940542210E+04  0.65864270000E+03 0. -1.
    8880022    1    1    2    0    0  0.43598380668E+03 -0.40966124230E+03  0.71080775926E+02  0.62156925829E+03  0.15294330000E+03 0.  0.
<mgrwt>
<rscale>  0 0.81212143E+03</rscale>
<asrwt>0</asrwt>
<pdfrwt beam="1">  1        2 0.36539037E+00 0.88978336E+03</pdfrwt>
<pdfrwt beam="2">  1       -2 0.67782465E-01 0.88978336E+03</pdfrwt>
<totfact> 0.83849631E+00</totfact>
</mgrwt>
</event>
<event>
 4    5  0.2295023E-007  0.7925064E+03  0.7818608E-02  0.9727239E-01
         -2   -1    0    0    0  501 -0.00000000000E+00  0.00000000000E+00  0.86095779780E+03  0.86095779780E+03  0.25500000000E-02 0.  1.
          2   -1    0    0  501    0  0.00000000000E+00 -0.00000000000E+00 -0.11934155192E+04  0.11934155192E+04  0.25500000000E-02 0. -1.
    8880023    1    1    2    0    0  0.30948963089E+01  0.44073414061E+03  0.61178150635E+03  0.10011708040E+04  0.65864270000E+03 0.  0.
    8880022    1    1    2    0    0 -0.30948963089E+01 -0.44073414061E+03 -0.94423922773E+03  0.10532025129E+04  0.15294330000E+03 0.  0.
<mgrwt>
<rscale>  0 0.69417883E+03</rscale>
<asrwt>0</asrwt>
<pdfrwt beam="1">  1        2 0.18360239E+00 0.79250638E+03</pdfrwt>
<pdfrwt beam="2">  1       -2 0.13245505E+00 0.79250638E+03</pdfrwt>
<totfact> 0.80321978E+00</totfact>
</mgrwt>
</event>
<event>
 4    5  0.2295023E-007  0.6775766E+03  0.7818608E-02  0.1010729E+00
          2   -1    0    0  501    0  0.00000000000E+00  0.00000000000E+00  0.22420007918E+04  0.22420007918E+04  0.25500000000E-02 0. -1.
         -2   -1    0    0    0  501 -0.00000000000E+00 -0.00000000000E+00 -0.12034560908E+04  0.12034560908E+04  0.25500000000E-02 0.  1.
    8880023    1    1    2    0    0  0.18279643778E+02 -0.15800556108E+03 -0.11019593132E+04  0.12936090742E+04  0.65864270000E+03 0.  1.
    8880022    1    1    2    0    0 -0.18279643778E+02  0.15800556108E+03  0.21405040142E+04  0.21518478084E+04  0.15294330000E+03 0.  0.
<mgrwt>
<rscale>  0 0.51185922E+03</rscale>
<asrwt>0</asrwt>
<pdfrwt beam="1">  1        2 0.34492320E+00 0.67757664E+03</pdfrwt>
<pdfrwt beam="2">  1       -2 0.18514709E+00 0.67757664E+03</pdfrwt>
<totfact> 0.87094835E-01</totfact>
</mgrwt>
</event>
<event>
 4    5  0.2295023E-007  0.1377951E+04  0.7818608E-02  0.9001008E-01
         -2   -1    0    0    0  501 -0.00000000000E+00  0.00000000000E+00  0.26096460419E+04  0.26096460419E+04  0.25500000000E-02 0.  1.
          2   -1    0    0  501    0  0.00000000000E+00 -0.00000000000E+00 -0.84603880944E+03  0.84603880944E+03  0.25500000000E-02 0. -1.
    8880023    1    1    2    0    0  0.90270202937E+03 -0.80626726351E+03  0.17605826057E+04  0.22357099928E+04  0.65864270000E+03 0.  0.
    8880022    1    1    2    0    0 -0.90270202937E+03  0.80626726351E+03  0.30246267055E+01  0.12199748585E+04  0.15294330000E+03 0.  0.
<mgrwt>
<rscale>  0 0.13366344E+04</rscale>
<asrwt>0</asrwt>
<pdfrwt beam="1">  1        2 0.13015982E+00 0.13779507E+04</pdfrwt>
<pdfrwt beam="2">  1       -2 0.40148401E+00 0.13779507E+04</pdfrwt>
<totfact> 0.22398609E-01</totfact>
</mgrwt>
</event>
<event>
 4    5  0.2295023E-007  0.6949593E+03  0.7818608E-02  0.1001879E+00
         -2   -1    0    0    0  501 -0.00000000000E+00  0.00000000000E+00  0.45596024566E+03  0.45596024567E+03  0.25500000000E-02 0.  1.
          2   -1    0    0  501    0  0.00000000000E+00 -0.00000000000E+00 -0.18975200505E+04  0.18975200505E+04  0.25500000000E-02 0. -1.
    8880023    1    1    2    0    0 -0.20981065345E+03  0.71677393424E+02  0.17335726167E+03  0.71625491654E+03  0.65864270000E+03 0.  1.
    8880022    1    1    2    0    0  0.20981065345E+03 -0.71677393424E+02 -0.16149170665E+04  0.16372253796E+04  0.15294330000E+03 0.  0.
<mgrwt>
<rscale>  0 0.54833888E+03</rscale>
<asrwt>0</asrwt>
<pdfrwt beam="1">  1        2 0.29192616E+00 0.69495925E+03</pdfrwt>
<pdfrwt beam="2">  1       -2 0.70147731E-01 0.69495925E+03</pdfrwt>
<totfact> 0.14671177E+01</totfact>
</mgrwt>
</event>
<event>
 4    5  0.2295023E-007  0.1720709E+04  0.7818608E-02  0.8767714E-01
          2   -1    0    0  501    0  0.00000000000E+00  0.00000000000E+00  0.22430500433E+04  0.22430500433E+04  0.25500000000E-02 0. -1.
         -2   -1    0    0    0  501 -0.00000000000E+00 -0.00000000000E+00 -0.14372537362E+04  0.14372537362E+04  0.25500000000E-02 0.  1.
    8880023    1    1    2    0    0 -0.15891298072E+04  0.41177027938E+02 -0.28798832463E+03  0.17446422479E+04  0.65864270000E+03 0.  1.
    8880022    1    1    2    0    0  0.15891298072E+04 -0.41177027938E+02  0.10937846317E+04  0.19356615317E+04  0.15294330000E+03 0.  0.
<mgrwt>
<rscale>  0 0.16889121E+04</rscale>
<asrwt>0</asrwt>
<pdfrwt beam="1">  1        2 0.34508462E+00 0.17207090E+04</pdfrwt>
<pdfrwt beam="2">  1       -2 0.22111596E+00 0.17207090E+04</pdfrwt>
<totfact> 0.43551359E-01</totfact>
</mgrwt>
</event>
<event>
 4    5  0.2295023E-007  0.1218351E+04  0.7818608E-02  0.9139487E-01
          2   -1    0    0  501    0  0.00000000000E+00  0.00000000000E+00  0.13269926758E+04  0.13269926758E+04  0.25500000000E-02 0. -1.
         -2   -1    0    0    0  501 -0.00000000000E+00 -0.00000000000E+00 -0.18492712155E+04  0.18492712155E+04  0.25500000000E-02 0.  1.
    8880023    1    1    2    0    0  0.47046737000E+03 -0.91062029641E+03 -0.13729010469E+04  0.18355479731E+04  0.65864270000E+03 0.  0.
    8880022    1    1    2    0    0 -0.47046737000E+03  0.91062029641E+03  0.85062250728E+03  0.13407159182E+04  0.15294330000E+03 0.  0.
<mgrwt>
<rscale>  0 0.11700458E+04</rscale>
<asrwt>0</asrwt>
<pdfrwt beam="1">  1        2 0.20415272E+00 0.12183510E+04</pdfrwt>
<pdfrwt beam="2">  1       -2 0.28450327E+00 0.12183510E+04</pdfrwt>
<totfact> 0.61287655E-01</totfact>
</mgrwt>
</event>
<event>
 4    5  0.2295023E-007  0.7947028E+03  0.7818608E-02  0.9722369E-01
          2   -1    0    0  501    0  0.00000000000E+00  0.00000000000E+00  0.13796531833E+04  0.13796531833E+04  0.25500000000E-02 0. -1.
         -2   -1    0    0    0  501 -0.00000000000E+00 -0.00000000000E+00 -0.47805824425E+03  0.47805824425E+03  0.25500000000E-02 0.  1.
    8880023    1    1    2    0    0 -0.23830319823E+03 -0.37543830192E+03 -0.49991238490E+02  0.79627361065E+03  0.65864270000E+03 0.  1.
    8880022    1    1    2    0    0  0.23830319823E+03  0.37543830192E+03  0.95158617753E+03  0.10614378169E+04  0.15294330000E+03 0.  0.
<mgrwt>
<rscale>  0 0.69700436E+03</rscale>
<asrwt>0</asrwt>
<pdfrwt beam="1">  1        2 0.21225433E+00 0.79470280E+03</pdfrwt>
<pdfrwt beam="2">  1       -2 0.73547423E-01 0.79470280E+03</pdfrwt>
<totfact> 0.25198444E+01</totfact>
</mgrwt>
</event>
<event>
 4    5  0.2295023E-007  0.9607257E+03  0.7818608E-02  0.9434847E-01
          2   -1    0    0  501    0  0.00000000000E+00  0.00000000000E+00  0.20330882749E+04  0.20330882749E+04  0.25500000000E-02 0. -1.
         -2   -1    0    0    0  501 -0.00000000000E+00 -0.00000000000E+00 -0.73472263221E+03  0.73472263222E+03  0.25500000000E-02 0.  1.
    8880023    1    1    2    0    0 -0.60792431894E+03 -0.34584917914E+03 -0.30819102996E+03  0.10089477437E+04  0.65864270000E+03 0.  1.
    8880022    1    1    2    0    0  0.60792431894E+03  0.34584917914E+03  0.16065566726E+04  0.17588631634E+04  0.15294330000E+03 0.  0.
<mgrwt>
<rscale>  0 0.89262544E+03</rscale>
<asrwt>0</asrwt>
<pdfrwt beam="1">  1        2 0.31278280E+00 0.96072568E+03</pdfrwt>
<pdfrwt beam="2">  1       -2 0.11303425E+00 0.96072568E+03</pdfrwt>
<totfact> 0.39580051E+00</totfact>
</mgrwt>
</event>
<event>
 4    5  0.2295023E-007  0.7306222E+03  0.7818608E-02  0.9888157E-01
         -2   -1    0    0    0  501 -0.00000000000E+00  0.00000000000E+00  0.15488571196E+03  0.15488571198E+03  0.25500000000E-02 0.  1.
          2   -1    0    0  501    0  0.00000000000E+00 -0.00000000000E+00 -0.30188574128E+04  0.30188574128E+04  0.25500000000E-02 0. -1.
    8880023    1    1    2    0    0 -0.45381639068E+01 -0.31619305194E+03 -0.81362480472E+03  0.10935237401E+04  0.65864270000E+03 0.  1.
    8880022    1    1    2    0    0  0.45381639068E+01  0.31619305194E+03 -0.20503468961E+04  0.20802193847E+04  0.15294330000E+03 0.  0.
<mgrwt>
<rscale>  0 0.60838681E+03</rscale>
<asrwt>0</asrwt>
<pdfrwt beam="1">  1        2 0.46443956E+00 0.73062223E+03</pdfrwt>
<pdfrwt beam="2">  1       -2 0.23828573E-01 0.73062223E+03</pdfrwt>
<totfact> 0.28111864E+01</totfact>
</mgrwt>
</event>
<event>
 4    5  0.2295023E-007  0.7403530E+03  0.7818608E-02  0.9858920E-01
          2   -1    0    0  501    0  0.00000000000E+00  0.00000000000E+00  0.89281875609E+03  0.89281875610E+03  0.25500000000E-02 0. -1.
         -2   -1    0    0    0  501 -0.00000000000E+00 -0.00000000000E+00 -0.53742196059E+03  0.53742196060E+03  0.25500000000E-02 0.  1.
    8880023    1    1    2    0    0  0.13726353790E+03  0.30898402247E+03 -0.19576553208E+03  0.76579811621E+03  0.65864270000E+03 0.  1.
    8880022    1    1    2    0    0 -0.13726353790E+03 -0.30898402247E+03  0.55116232758E+03  0.66444260049E+03  0.15294330000E+03 0.  0.
<mgrwt>
<rscale>  0 0.62294182E+03</rscale>
<asrwt>0</asrwt>
<pdfrwt beam="1">  1        2 0.13735673E+00 0.74035303E+03</pdfrwt>
<pdfrwt beam="2">  1       -2 0.82680302E-01 0.74035303E+03</pdfrwt>
<totfact> 0.38642103E+01</totfact>
</mgrwt>
</event>
<event>
 4    5  0.2295023E-007  0.1069204E+04  0.7818608E-02  0.9296145E-01
         -2   -1    0    0    0  501 -0.00000000000E+00  0.00000000000E+00  0.13916606466E+04  0.13916606466E+04  0.25500000000E-02 0.  1.
          2   -1    0    0  501    0  0.00000000000E+00 -0.00000000000E+00 -0.31714868681E+04  0.31714868681E+04  0.25500000000E-02 0. -1.
    8880023    1    1    2    0    0 -0.84126040285E+03 -0.40827829221E+02  0.11147632275E+04  0.15446336902E+04  0.65864270000E+03 0.  0.
    8880022    1    1    2    0    0  0.84126040285E+03  0.40827829221E+02 -0.28945894491E+04  0.30185138245E+04  0.15294330000E+03 0.  0.
<mgrwt>
<rscale>  0 0.10113857E+04</rscale>
<asrwt>0</asrwt>
<pdfrwt beam="1">  1        2 0.48792105E+00 0.10692035E+04</pdfrwt>
<pdfrwt beam="2">  1       -2 0.21410164E+00 0.10692035E+04</pdfrwt>
<totfact> 0.14719679E-01</totfact>
</mgrwt>
</event>
<event>
 4    5  0.2295023E-007  0.9396920E+03  0.7818608E-02  0.9465103E-01
         -2   -1    0    0    0  501 -0.00000000000E+00  0.00000000000E+00  0.15532229720E+04  0.15532229720E+04  0.25500000000E-02 0.  1.
          2   -1    0    0  501    0  0.00000000000E+00 -0.00000000000E+00 -0.71356808176E+03  0.71356808177E+03  0.25500000000E-02 0. -1.
    8880023    1    1    2    0    0  0.63641162000E+03  0.21021692720E+03  0.11728306334E+04  0.15028482317E+04  0.65864270000E+03 0.  1.
    8880022    1    1    2    0    0 -0.63641162000E+03 -0.21021692720E+03 -0.33317574317E+03  0.76394282208E+03  0.15294330000E+03 0.  0.
<mgrwt>
<rscale>  0 0.86906281E+03</rscale>
<asrwt>0</asrwt>
<pdfrwt beam="1">  1        2 0.10977971E+00 0.93969203E+03</pdfrwt>
<pdfrwt beam="2">  1       -2 0.23895738E+00 0.93969203E+03</pdfrwt>
<totfact> 0.30168031E+00</totfact>
</mgrwt>
</event>
<event>
 4    5  0.2295023E-007  0.1463176E+04  0.7818608E-02  0.8936086E-01
          2   -1    0    0  501    0  0.00000000000E+00  0.00000000000E+00  0.10707936196E+04  0.10707936196E+04  0.25500000000E-02 0. -1.
         -2   -1    0    0    0  501 -0.00000000000E+00 -0.00000000000E+00 -0.20443909084E+04  0.20443909084E+04  0.25500000000E-02 0.  1.
    8880023    1    1    2    0    0 -0.18571502150E+03 -0.12932835680E+04 -0.10446036098E+04  0.17977984772E+04  0.65864270000E+03 0.  0.
    8880022    1    1    2    0    0  0.18571502150E+03  0.12932835680E+04  0.71006320993E+02  0.13173860509E+04  0.15294330000E+03 0.  0.
<mgrwt>
<rscale>  0 0.14247631E+04</rscale>
<asrwt>0</asrwt>
<pdfrwt beam="1">  1        2 0.16473748E+00 0.14631755E+04</pdfrwt>
<pdfrwt beam="2">  1       -2 0.31452168E+00 0.14631755E+04</pdfrwt>
<totfact> 0.55883759E-01</totfact>
</mgrwt>
</event>
<event>
 4    5  0.2295023E-007  0.8339111E+03  0.7818608E-02  0.9641770E-01
          2   -1    0    0  501    0  0.00000000000E+00  0.00000000000E+00  0.11375160532E+04  0.11375160532E+04  0.25500000000E-02 0. -1.
         -2   -1    0    0    0  501 -0.00000000000E+00 -0.00000000000E+00 -0.77298871990E+03  0.77298871990E+03  0.25500000000E-02 0.  1.
    8880023    1    1    2    0    0  0.17626587861E+03 -0.48013314478E+03 -0.44161437663E+03  0.94362649422E+03  0.65864270000E+03 0.  1.
    8880022    1    1    2    0    0 -0.17626587861E+03  0.48013314478E+03  0.80614170995E+03  0.96687827890E+03  0.15294330000E+03 0.  0.
<mgrwt>
<rscale>  0 0.74592189E+03</rscale>
<asrwt>0</asrwt>
<pdfrwt beam="1">  1        2 0.17500247E+00 0.83391109E+03</pdfrwt>
<pdfrwt beam="2">  1       -2 0.11892134E+00 0.83391109E+03</pdfrwt>
<totfact> 0.11321499E+01</totfact>
</mgrwt>
</event>
<event>
 4    5  0.2295023E-007  0.1248038E+04  0.7818608E-02  0.9111784E-01
          2   -1    0    0  501    0  0.00000000000E+00  0.00000000000E+00  0.26556394501E+04  0.26556394501E+04  0.25500000000E-02 0. -1.
         -2   -1    0    0    0  501 -0.00000000000E+00 -0.00000000000E+00 -0.84820822720E+03  0.84820822721E+03  0.25500000000E-02 0.  1.
    8880023    1    1    2    0    0 -0.51161541039E+03  0.92845954400E+03 -0.16547142114E+03  0.12589592728E+04  0.65864270000E+03 0.  0.
    8880022    1    1    2    0    0  0.51161541039E+03 -0.92845954400E+03  0.19729026440E+04  0.22448884045E+04  0.15294330000E+03 0.  0.
<mgrwt>
<rscale>  0 0.12012258E+04</rscale>
<asrwt>0</asrwt>
<pdfrwt beam="1">  1        2 0.40855991E+00 0.12480375E+04</pdfrwt>
<pdfrwt beam="2">  1       -2 0.13049358E+00 0.12480375E+04</pdfrwt>
<totfact> 0.11840667E+00</totfact>
</mgrwt>
</event>
<event>
 4    5  0.2295023E-007  0.1086540E+04  0.7818608E-02  0.9276192E-01
          2   -1    0    0  501    0  0.00000000000E+00  0.00000000000E+00  0.23749897226E+04  0.23749897226E+04  0.25500000000E-02 0. -1.
         -2   -1    0    0    0  501 -0.00000000000E+00 -0.00000000000E+00 -0.77958616783E+03  0.77958616783E+03  0.25500000000E-02 0.  1.
    8880023    1    1    2    0    0  0.84227033736E+03 -0.19323306888E+03 -0.24662602212E+03  0.11141781461E+04  0.65864270000E+03 0.  0.
    8880022    1    1    2    0    0 -0.84227033736E+03  0.19323306888E+03  0.18420295769E+04  0.20403977444E+04  0.15294330000E+03 0.  0.
<mgrwt>
<rscale>  0 0.10300448E+04</rscale>
<asrwt>0</asrwt>
<pdfrwt beam="1">  1        2 0.36538303E+00 0.10865397E+04</pdfrwt>
<pdfrwt beam="2">  1       -2 0.11993633E+00 0.10865397E+04</pdfrwt>
<totfact> 0.21696222E+00</totfact>
</mgrwt>
</event>
<event>
 4    5  0.2295023E-007  0.6660563E+03  0.7818608E-02  0.1018663E+00
          2   -1    0    0  501    0  0.00000000000E+00  0.00000000000E+00  0.81961060451E+03  0.81961060452E+03  0.25500000000E-02 0. -1.
         -2   -1    0    0    0  501 -0.00000000000E+00 -0.00000000000E+00 -0.40515106442E+03  0.40515106443E+03  0.25500000000E-02 0.  1.
    8880023    1    1    2    0    0 -0.77778699130E+02  0.61410794486E+02 -0.10498128498E+03  0.67427893944E+03  0.65864270000E+03 0.  1.
    8880022    1    1    2    0    0  0.77778699130E+02 -0.61410794486E+02  0.51944082507E+03  0.55048272951E+03  0.15294330000E+03 0.  0.
<mgrwt>
<rscale>  0 0.48172130E+03</rscale>
<asrwt>0</asrwt>
<pdfrwt beam="1">  1        2 0.12609394E+00 0.66605632E+03</pdfrwt>
<pdfrwt beam="2">  1       -2 0.62330934E-01 0.66605632E+03</pdfrwt>
<totfact> 0.81188652E+01</totfact>
</mgrwt>
</event>
<event>
 4    5  0.2295023E-007  0.8016346E+03  0.7818608E-02  0.9707273E-01
          2   -1    0    0  501    0  0.00000000000E+00  0.00000000000E+00  0.21622249128E+04  0.21622249128E+04  0.25500000000E-02 0. -1.
         -2   -1    0    0    0  501 -0.00000000000E+00 -0.00000000000E+00 -0.23598387090E+03  0.23598387091E+03  0.25500000000E-02 0.  1.
    8880023    1    1    2    0    0 -0.20926212475E+03  0.40622304617E+03  0.16700198042E+04  0.18524535494E+04  0.65864270000E+03 0.  0.
    8880022    1    1    2    0    0  0.20926212475E+03 -0.40622304617E+03  0.25622123771E+03  0.54575523430E+03  0.15294330000E+03 0.  0.
<mgrwt>
<rscale>  0 0.70585417E+03</rscale>
<asrwt>0</asrwt>
<pdfrwt beam="1">  1        2 0.33264999E+00 0.80163458E+03</pdfrwt>
<pdfrwt beam="2">  1       -2 0.36305210E-01 0.80163458E+03</pdfrwt>
<totfact> 0.39790309E+01</totfact>
</mgrwt>
</event>
<event>
 4    5  0.2295023E-007  0.8623402E+03  0.7818608E-02  0.9589414E-01
         -2   -1    0    0    0  501 -0.00000000000E+00  0.00000000000E+00  0.60474675783E+03  0.60474675784E+03  0.25500000000E-02 0.  1.
          2   -1    0    0  501    0  0.00000000000E+00 -0.00000000000E+00 -0.12735014106E+04  0.12735014106E+04  0.25500000000E-02 0. -1.
    8880023    1    1    2    0    0 -0.45429140416E+03 -0.32162036692E+03  0.15118777987E+03  0.87549317036E+03  0.65864270000E+03 0.  1.
    8880022    1    1    2    0    0  0.45429140416E+03  0.32162036692E+03 -0.81994243262E+03  0.10027549981E+04  0.15294330000E+03 0.  0.
<mgrwt>
<rscale>  0 0.78000796E+03</rscale>
<asrwt>0</asrwt>
<pdfrwt beam="1">  1        2 0.19592329E+00 0.86234016E+03</pdfrwt>
<pdfrwt beam="2">  1       -2 0.93037963E-01 0.86234016E+03</pdfrwt>
<totfact> 0.16896844E+01</totfact>
</mgrwt>
</event>
<event>
 4    5  0.2295023E-007  0.6966567E+03  0.7818608E-02  0.1001136E+00
         -2   -1    0    0    0  501 -0.00000000000E+00  0.00000000000E+00  0.25282597182E+03  0.25282597183E+03  0.25500000000E-02 0.  1.
          2   -1    0    0  501    0  0.00000000000E+00 -0.00000000000E+00 -0.16074602106E+04  0.16074602106E+04  0.25500000000E-02 0. -1.
    8880023    1    1    2    0    0  0.96450114797E+02 -0.20546964182E+03 -0.27912022640E+03  0.75049230869E+03  0.65864270000E+03 0.  1.
    8880022    1    1    2    0    0 -0.96450114797E+02  0.20546964182E+03 -0.10755140124E+04  0.11097938738E+04  0.15294330000E+03 0.  0.
<mgrwt>
<rscale>  0 0.55154772E+03</rscale>
<asrwt>0</asrwt>
<pdfrwt beam="1">  1        2 0.24730156E+00 0.69665673E+03</pdfrwt>
<pdfrwt beam="2">  1       -2 0.38896304E-01 0.69665673E+03</pdfrwt>
<totfact> 0.70883947E+01</totfact>
</mgrwt>
</event>
<event>
 4    5  0.2295023E-007  0.6847023E+03  0.7818608E-02  0.1006780E+00
         -2   -1    0    0    0  501 -0.00000000000E+00  0.00000000000E+00  0.25503968832E+03  0.25503968833E+03  0.25500000000E-02 0.  1.
          2   -1    0    0  501    0  0.00000000000E+00 -0.00000000000E+00 -0.20852309000E+04  0.20852309000E+04  0.25500000000E-02 0. -1.
    8880023    1    1    2    0    0 -0.20134922871E+02  0.18601524738E+03 -0.23054503156E+03  0.72247374016E+03  0.65864270000E+03 0.  1.
    8880022    1    1    2    0    0  0.20134922871E+02 -0.18601524738E+03 -0.15996461801E+04  0.16177968482E+04  0.15294330000E+03 0.  0.
<mgrwt>
<rscale>  0 0.52774824E+03</rscale>
<asrwt>0</asrwt>
<pdfrwt beam="1">  1        2 0.32080474E+00 0.68470234E+03</pdfrwt>
<pdfrwt beam="2">  1       -2 0.39236877E-01 0.68470234E+03</pdfrwt>
<totfact> 0.38329269E+01</totfact>
</mgrwt>
</event>
<event>
 4    5  0.2295023E-007  0.9299323E+03  0.7818608E-02  0.9479595E-01
         -2   -1    0    0    0  501 -0.00000000000E+00  0.00000000000E+00  0.18903530815E+04  0.18903530815E+04  0.25500000000E-02 0.  1.
          2   -1    0    0  501    0  0.00000000000E+00 -0.00000000000E+00 -0.39735769176E+03  0.39735769177E+03  0.25500000000E-02 0. -1.
    8880023    1    1    2    0    0 -0.50595216678E+03  0.41830174774E+03  0.12773461699E+04  0.15799960099E+04  0.65864270000E+03 0.  1.
    8880022    1    1    2    0    0  0.50595216678E+03 -0.41830174774E+03  0.21564921977E+03  0.70771476332E+03  0.15294330000E+03 0.  0.
<mgrwt>
<rscale>  0 0.85805080E+03</rscale>
<asrwt>0</asrwt>
<pdfrwt beam="1">  1        2 0.61131951E-01 0.92993234E+03</pdfrwt>
<pdfrwt beam="2">  1       -2 0.29082356E+00 0.92993234E+03</pdfrwt>
<totfact> 0.29404432E+00</totfact>
</mgrwt>
</event>
<event>
 4    5  0.2295023E-007  0.1230095E+04  0.7818608E-02  0.9128409E-01
         -2   -1    0    0    0  501 -0.00000000000E+00  0.00000000000E+00  0.22762077986E+04  0.22762077986E+04  0.25500000000E-02 0.  1.
          2   -1    0    0  501    0  0.00000000000E+00 -0.00000000000E+00 -0.14238933752E+04  0.14238933752E+04  0.25500000000E-02 0. -1.
    8880023    1    1    2    0    0  0.39983979502E+03 -0.95888003827E+03  0.18696503089E+04  0.22380181575E+04  0.65864270000E+03 0.  0.
    8880022    1    1    2    0    0 -0.39983979502E+03  0.95888003827E+03 -0.10173358855E+04  0.14620830162E+04  0.15294330000E+03 0.  0.
<mgrwt>
<rscale>  0 0.11823929E+04</rscale>
<asrwt>0</asrwt>
<pdfrwt beam="1">  1        2 0.21906052E+00 0.12300947E+04</pdfrwt>
<pdfrwt beam="2">  1       -2 0.35018582E+00 0.12300947E+04</pdfrwt>
<totfact> 0.21236407E-01</totfact>
</mgrwt>
</event>
<event>
 4    5  0.2295023E-007  0.9468674E+03  0.7818608E-02  0.9454636E-01
          2   -1    0    0  501    0  0.00000000000E+00  0.00000000000E+00  0.36105732136E+04  0.36105732136E+04  0.25500000000E-02 0. -1.
         -2   -1    0    0    0  501 -0.00000000000E+00 -0.00000000000E+00 -0.46106534668E+03  0.46106534668E+03  0.25500000000E-02 0.  1.
    8880023    1    1    2    0    0  0.16425711780E+03 -0.66012673762E+03  0.11005780568E+03  0.95324217139E+03  0.65864270000E+03 0.  1.
    8880022    1    1    2    0    0 -0.16425711780E+03  0.66012673762E+03  0.30394500612E+04  0.31183963889E+04  0.15294330000E+03 0.  0.
<mgrwt>
<rscale>  0 0.87712599E+03</rscale>
<asrwt>0</asrwt>
<pdfrwt beam="1">  1        2 0.55547278E+00 0.94686742E+03</pdfrwt>
<pdfrwt beam="2">  1       -2 0.70933134E-01 0.94686742E+03</pdfrwt>
<totfact> 0.12856174E+00</totfact>
</mgrwt>
</event>
<event>
 4    5  0.2295023E-007  0.1070609E+04  0.7818608E-02  0.9294507E-01
          2   -1    0    0  501    0  0.00000000000E+00  0.00000000000E+00  0.35636009851E+04  0.35636009851E+04  0.25500000000E-02 0. -1.
         -2   -1    0    0    0  501 -0.00000000000E+00 -0.00000000000E+00 -0.56650511441E+03  0.56650511441E+03  0.25500000000E-02 0.  1.
    8880023    1    1    2    0    0 -0.75569703535E+03 -0.37592046284E+03  0.62186006349E+02  0.10724138703E+04  0.65864270000E+03 0.  1.
    8880022    1    1    2    0    0  0.75569703535E+03  0.37592046284E+03  0.29349098643E+04  0.30576922292E+04  0.15294330000E+03 0.  0.
<mgrwt>
<rscale>  0 0.10129015E+04</rscale>
<asrwt>0</asrwt>
<pdfrwt beam="1">  1        2 0.54824631E+00 0.10706094E+04</pdfrwt>
<pdfrwt beam="2">  1       -2 0.87154633E-01 0.10706094E+04</pdfrwt>
<totfact> 0.85429237E-01</totfact>
</mgrwt>
</event>
<event>
 4    5  0.2295023E-007  0.7590391E+03  0.7818608E-02  0.9807601E-01
          2   -1    0    0  501    0  0.00000000000E+00  0.00000000000E+00  0.42226836527E+04  0.42226836527E+04  0.25500000000E-02 0. -1.
         -2   -1    0    0    0  501 -0.00000000000E+00 -0.00000000000E+00 -0.79915632143E+03  0.79915632144E+03  0.25500000000E-02 0.  1.
    8880023    1    1    2    0    0 -0.37345520331E+03  0.53492311192E+02 -0.60632473997E+03  0.97147831309E+03  0.65864270000E+03 0.  1.
    8880022    1    1    2    0    0  0.37345520331E+03 -0.53492311192E+02  0.40298520713E+04  0.40503616611E+04  0.15294330000E+03 0.  0.
<mgrwt>
<rscale>  0 0.64956200E+03</rscale>
<asrwt>0</asrwt>
<pdfrwt beam="1">  1        2 0.64964364E+00 0.75903914E+03</pdfrwt>
<pdfrwt beam="2">  1       -2 0.12294713E+00 0.75903914E+03</pdfrwt>
<totfact> 0.12492110E-01</totfact>
</mgrwt>
</event>
<event>
 4    5  0.2295023E-007  0.1022578E+04  0.7818608E-02  0.9352596E-01
         -2   -1    0    0    0  501 -0.00000000000E+00  0.00000000000E+00  0.93914787917E+03  0.93914787918E+03  0.25500000000E-02 0.  1.
          2   -1    0    0  501    0  0.00000000000E+00 -0.00000000000E+00 -0.13050151641E+04  0.13050151641E+04  0.25500000000E-02 0. -1.
    8880023    1    1    2    0    0 -0.44516559956E+03 -0.64318280086E+03  0.43774323891E+03  0.11123335272E+04  0.65864270000E+03 0.  1.
    8880022    1    1    2    0    0  0.44516559956E+03  0.64318280086E+03 -0.80361052388E+03  0.11318295161E+04  0.15294330000E+03 0.  0.
<mgrwt>
<rscale>  0 0.96081641E+03</rscale>
<asrwt>0</asrwt>
<pdfrwt beam="1">  1        2 0.20077156E+00 0.10225785E+04</pdfrwt>
<pdfrwt beam="2">  1       -2 0.14448429E+00 0.10225785E+04</pdfrwt>
<totfact> 0.53740665E+00</totfact>
</mgrwt>
</event>
<event>
 4    5  0.2295023E-007  0.7156911E+03  0.7818608E-02  0.9937445E-01
          2   -1    0    0  501    0  0.00000000000E+00  0.00000000000E+00  0.41251664596E+03  0.41251664596E+03  0.25500000000E-02 0. -1.
         -2   -1    0    0    0  501 -0.00000000000E+00 -0.00000000000E+00 -0.79224962388E+03  0.79224962388E+03  0.25500000000E-02 0.  1.
    8880023    1    1    2    0    0  0.14567897844E+03  0.23912578610E+03 -0.48981529054E+03  0.86725586274E+03  0.65864270000E+03 0.  1.
    8880022    1    1    2    0    0 -0.14567897844E+03 -0.23912578610E+03  0.11008231262E+03  0.33751040711E+03  0.15294330000E+03 0.  0.
<mgrwt>
<rscale>  0 0.58480367E+03</rscale>
<asrwt>0</asrwt>
<pdfrwt beam="1">  1        2 0.63464099E-01 0.71569107E+03</pdfrwt>
<pdfrwt beam="2">  1       -2 0.12188456E+00 0.71569107E+03</pdfrwt>
<totfact> 0.39771418E+01</totfact>
</mgrwt>
</event>
<event>
 4    5  0.2295023E-007  0.1451449E+04  0.7818608E-02  0.8944703E-01
         -2   -1    0    0    0  501 -0.00000000000E+00  0.00000000000E+00  0.19061710288E+04  0.19061710288E+04  0.25500000000E-02 0.  1.
          2   -1    0    0  501    0  0.00000000000E+00 -0.00000000000E+00 -0.16227856684E+04  0.16227856684E+04  0.25500000000E-02 0. -1.
    8880023    1    1    2    0    0  0.38114922208E+03 -0.12359687734E+04  0.12431940410E+04  0.19110821982E+04  0.65864270000E+03 0.  0.
    8880022    1    1    2    0    0 -0.38114922208E+03  0.12359687734E+04 -0.95980868061E+03  0.16178744990E+04  0.15294330000E+03 0.  0.
<mgrwt>
<rscale>  0 0.14126633E+04</rscale>
<asrwt>0</asrwt>
<pdfrwt beam="1">  1        2 0.24965933E+00 0.14514488E+04</pdfrwt>
<pdfrwt beam="2">  1       -2 0.29325708E+00 0.14514488E+04</pdfrwt>
<totfact> 0.35761384E-01</totfact>
</mgrwt>
</event>
<event>
 4    5  0.2295023E-007  0.6775321E+03  0.7818608E-02  0.1010756E+00
          2   -1    0    0  501    0  0.00000000000E+00  0.00000000000E+00  0.31205142150E+03  0.31205142151E+03  0.25500000000E-02 0. -1.
         -2   -1    0    0    0  501 -0.00000000000E+00 -0.00000000000E+00 -0.24316556994E+04  0.24316556994E+04  0.25500000000E-02 0.  1.
    8880023    1    1    2    0    0 -0.48622397047E+02 -0.15124628241E+03 -0.23374873502E+04  0.24337002473E+04  0.65864270000E+03 0.  1.
    8880022    1    1    2    0    0  0.48622397047E+02  0.15124628241E+03  0.21788307230E+03  0.31000687355E+03  0.15294330000E+03 0.  0.
<mgrwt>
<rscale>  0 0.51175468E+03</rscale>
<asrwt>0</asrwt>
<pdfrwt beam="1">  1        2 0.48007913E-01 0.67753213E+03</pdfrwt>
<pdfrwt beam="2">  1       -2 0.37410086E+00 0.67753213E+03</pdfrwt>
<totfact> 0.12299268E+00</totfact>
</mgrwt>
</event>
<event>
 4    5  0.2295023E-007  0.7249663E+03  0.7818608E-02  0.9906127E-01
         -2   -1    0    0    0  501 -0.00000000000E+00  0.00000000000E+00  0.19138510855E+03  0.19138510856E+03  0.25500000000E-02 0.  1.
          2   -1    0    0  501    0  0.00000000000E+00 -0.00000000000E+00 -0.41303219912E+04  0.41303219912E+04  0.25500000000E-02 0. -1.
    8880023    1    1    2    0    0 -0.20283363385E+03  0.22499871380E+03 -0.53525766144E+03  0.90115308057E+03  0.65864270000E+03 0.  1.
    8880022    1    1    2    0    0  0.20283363385E+03 -0.22499871380E+03 -0.34036792212E+04  0.34205540192E+04  0.15294330000E+03 0.  0.
<mgrwt>
<rscale>  0 0.59965286E+03</rscale>
<asrwt>0</asrwt>
<pdfrwt beam="1">  1        2 0.63543409E+00 0.72496628E+03</pdfrwt>
<pdfrwt beam="2">  1       -2 0.29443866E-01 0.72496628E+03</pdfrwt>
<totfact> 0.31706862E+00</totfact>
</mgrwt>
</event>
<event>
 4    5  0.2295023E-007  0.7224232E+03  0.7818608E-02  0.9914470E-01
         -2   -1    0    0    0  501 -0.00000000000E+00  0.00000000000E+00  0.20763793396E+04  0.20763793396E+04  0.25500000000E-02 0.  1.
          2   -1    0    0  501    0  0.00000000000E+00 -0.00000000000E+00 -0.34251369681E+03  0.34251369682E+03  0.25500000000E-02 0. -1.
    8880023    1    1    2    0    0 -0.13402764812E+03 -0.26480486902E+03  0.19095324067E+04  0.20416192710E+04  0.65864270000E+03 0.  1.
    8880022    1    1    2    0    0  0.13402764812E+03  0.26480486902E+03 -0.17566676392E+03  0.37727376543E+03  0.15294330000E+03 0.  0.
<mgrwt>
<rscale>  0 0.59565083E+03</rscale>
<asrwt>0</asrwt>
<pdfrwt beam="1">  1        2 0.52694414E-01 0.72242317E+03</pdfrwt>
<pdfrwt beam="2">  1       -2 0.31944298E+00 0.72242317E+03</pdfrwt>
<totfact> 0.23979806E+00</totfact>
</mgrwt>
</event>
<event>
 4    5  0.2295023E-007  0.1966327E+04  0.7818608E-02  0.8635713E-01
          2   -1    0    0  501    0  0.00000000000E+00  0.00000000000E+00  0.22089216432E+04  0.22089216432E+04  0.25500000000E-02 0. -1.
         -2   -1    0    0    0  501 -0.00000000000E+00 -0.00000000000E+00 -0.19091326719E+04  0.19091326719E+04  0.25500000000E-02 0.  1.
    8880023    1    1    2    0    0 -0.11398877685E+04 -0.14605784736E+04 -0.59569904931E+03  0.20545805328E+04  0.65864270000E+03 0. -1.
    8880022    1    1    2    0    0  0.11398877685E+04  0.14605784736E+04  0.89548802065E+03  0.20634737823E+04  0.15294330000E+03 0.  0.
<mgrwt>
<rscale>  0 0.19389384E+04</rscale>
<asrwt>0</asrwt>
<pdfrwt beam="1">  1        2 0.33983410E+00 0.19663275E+04</pdfrwt>
<pdfrwt beam="2">  1       -2 0.29371272E+00 0.19663275E+04</pdfrwt>
<totfact> 0.15810764E-01</totfact>
</mgrwt>
</event>
<event>
 4    5  0.2295023E-007  0.9197660E+03  0.7818608E-02  0.9495018E-01
          2   -1    0    0  501    0  0.00000000000E+00  0.00000000000E+00  0.20493991026E+04  0.20493991026E+04  0.25500000000E-02 0. -1.
         -2   -1    0    0    0  501 -0.00000000000E+00 -0.00000000000E+00 -0.37346286135E+03  0.37346286136E+03  0.25500000000E-02 0.  1.
    8880023    1    1    2    0    0 -0.34340100021E+03 -0.54243432806E+03  0.43521644532E+03  0.10175376198E+04  0.65864270000E+03 0.  0.
    8880022    1    1    2    0    0  0.34340100021E+03  0.54243432806E+03  0.12407197959E+04  0.14053243441E+04  0.15294330000E+03 0.  0.
<mgrwt>
<rscale>  0 0.84652126E+03</rscale>
<asrwt>0</asrwt>
<pdfrwt beam="1">  1        2 0.31529217E+00 0.91976598E+03</pdfrwt>
<pdfrwt beam="2">  1       -2 0.57455825E-01 0.91976598E+03</pdfrwt>
<totfact> 0.18031193E+01</totfact>
</mgrwt>
</event>
<event>
 4    5  0.2295023E-007  0.7104044E+03  0.7818608E-02  0.9956502E-01
          2   -1    0    0  501    0  0.00000000000E+00  0.00000000000E+00  0.37971365184E+04  0.37971365184E+04  0.25500000000E-02 0. -1.
         -2   -1    0    0    0  501 -0.00000000000E+00 -0.00000000000E+00 -0.22738277671E+03  0.22738277672E+03  0.25500000000E-02 0.  1.
    8880023    1    1    2    0    0 -0.26428500332E+03 -0.31900366041E+02  0.35322867687E+03  0.79337563661E+03  0.65864270000E+03 0.  0.
    8880022    1    1    2    0    0  0.26428500332E+03  0.31900366041E+02  0.32165250648E+04  0.32311436585E+04  0.15294330000E+03 0.  0.
<mgrwt>
<rscale>  0 0.57599375E+03</rscale>
<asrwt>0</asrwt>
<pdfrwt beam="1">  1        2 0.58417483E+00 0.71040439E+03</pdfrwt>
<pdfrwt beam="2">  1       -2 0.34981967E-01 0.71040439E+03</pdfrwt>
<totfact> 0.41868842E+00</totfact>
</mgrwt>
</event>
<event>
 4    5  0.2295023E-007  0.8326553E+03  0.7818608E-02  0.9644188E-01
          2   -1    0    0  501    0  0.00000000000E+00  0.00000000000E+00  0.12723877621E+04  0.12723877621E+04  0.25500000000E-02 0. -1.
         -2   -1    0    0    0  501 -0.00000000000E+00 -0.00000000000E+00 -0.46958011030E+03  0.46958011031E+03  0.25500000000E-02 0.  1.
    8880023    1    1    2    0    0  0.18104657134E+03  0.47615830419E+03  0.68774553192E+02  0.83549071633E+03  0.65864270000E+03 0.  0.
    8880022    1    1    2    0    0 -0.18104657134E+03 -0.47615830419E+03  0.73403309865E+03  0.90647715612E+03  0.15294330000E+03 0.  0.
<mgrwt>
<rscale>  0 0.74439307E+03</rscale>
<asrwt>0</asrwt>
<pdfrwt beam="1">  1        2 0.19575196E+00 0.83265527E+03</pdfrwt>
<pdfrwt beam="2">  1       -2 0.72243096E-01 0.83265527E+03</pdfrwt>
<totfact> 0.30097759E+01</totfact>
</mgrwt>
</event>
<event>
 4    5  0.2295023E-007  0.8229539E+03  0.7818608E-02  0.9663201E-01
          2   -1    0    0  501    0  0.00000000000E+00  0.00000000000E+00  0.11363800538E+04  0.11363800538E+04  0.25500000000E-02 0. -1.
         -2   -1    0    0    0  501 -0.00000000000E+00 -0.00000000000E+00 -0.60181815673E+03  0.60181815673E+03  0.25500000000E-02 0.  1.
    8880023    1    1    2    0    0 -0.49292103712E+03  0.21721579599E+02 -0.19359969816E+03  0.84541943747E+03  0.65864270000E+03 0.  1.
    8880022    1    1    2    0    0  0.49292103712E+03 -0.21721579599E+02  0.72816159523E+03  0.89277877306E+03  0.15294330000E+03 0.  0.
<mgrwt>
<rscale>  0 0.73250724E+03</rscale>
<asrwt>0</asrwt>
<pdfrwt beam="1">  1        2 0.17482770E+00 0.82295394E+03</pdfrwt>
<pdfrwt beam="2">  1       -2 0.92587410E-01 0.82295394E+03</pdfrwt>
<totfact> 0.20694539E+01</totfact>
</mgrwt>
</event>
<event>
 4    5  0.2295023E-007  0.7153358E+03  0.7818608E-02  0.9938696E-01
         -2   -1    0    0    0  501 -0.00000000000E+00  0.00000000000E+00  0.92922381234E+03  0.92922381235E+03  0.25500000000E-02 0.  1.
          2   -1    0    0  501    0  0.00000000000E+00 -0.00000000000E+00 -0.64015408614E+03  0.64015408614E+03  0.25500000000E-02 0. -1.
    8880023    1    1    2    0    0 -0.31043061214E+02 -0.27736523248E+03  0.73231247135E+03  0.10237123159E+04  0.65864270000E+03 0.  0.
    8880022    1    1    2    0    0  0.31043061214E+02  0.27736523248E+03 -0.44324274515E+03  0.54566558255E+03  0.15294330000E+03 0.  0.
<mgrwt>
<rscale>  0 0.58422023E+03</rscale>
<asrwt>0</asrwt>
<pdfrwt beam="1">  1        2 0.98485244E-01 0.71533583E+03</pdfrwt>
<pdfrwt beam="2">  1       -2 0.14295751E+00 0.71533583E+03</pdfrwt>
<totfact> 0.15859939E+01</totfact>
</mgrwt>
</event>
<event>
 4    5  0.2295023E-007  0.6873168E+03  0.7818608E-02  0.1005455E+00
         -2   -1    0    0    0  501 -0.00000000000E+00  0.00000000000E+00  0.83493994519E+03  0.83493994520E+03  0.25500000000E-02 0.  1.
          2   -1    0    0  501    0  0.00000000000E+00 -0.00000000000E+00 -0.23545382733E+04  0.23545382733E+04  0.25500000000E-02 0. -1.
    8880023    1    1    2    0    0  0.11430304359E+03  0.15977779439E+03  0.68528844587E+03  0.97057951228E+03  0.65864270000E+03 0.  1.
    8880022    1    1    2    0    0 -0.11430304359E+03 -0.15977779439E+03 -0.22048867740E+04  0.22188987063E+04  0.15294330000E+03 0.  0.
<mgrwt>
<rscale>  0 0.53321728E+03</rscale>
<asrwt>0</asrwt>
<pdfrwt beam="1">  1        2 0.36223665E+00 0.68731677E+03</pdfrwt>
<pdfrwt beam="2">  1       -2 0.12845230E+00 0.68731677E+03</pdfrwt>
<totfact> 0.20031465E+00</totfact>
</mgrwt>
</event>
<event>
 4    5  0.2295023E-007  0.8419590E+03  0.7818608E-02  0.9626497E-01
         -2   -1    0    0    0  501 -0.00000000000E+00  0.00000000000E+00  0.42525929898E+03  0.42525929899E+03  0.25500000000E-02 0.  1.
          2   -1    0    0  501    0  0.00000000000E+00 -0.00000000000E+00 -0.23964328178E+04  0.23964328178E+04  0.25500000000E-02 0. -1.
    8880023    1    1    2    0    0 -0.29486322532E+03  0.43375160065E+03 -0.71466119864E+02  0.84498661840E+03  0.65864270000E+03 0.  1.
    8880022    1    1    2    0    0  0.29486322532E+03 -0.43375160065E+03 -0.18997073990E+04  0.19767054984E+04  0.15294330000E+03 0.  0.
<mgrwt>
<rscale>  0 0.75566963E+03</rscale>
<asrwt>0</asrwt>
<pdfrwt beam="1">  1        2 0.36868197E+00 0.84195901E+03</pdfrwt>
<pdfrwt beam="2">  1       -2 0.65424509E-01 0.84195901E+03</pdfrwt>
<totfact> 0.88654865E+00</totfact>
</mgrwt>
</event>
<event>
 4    5  0.2295023E-007  0.1361300E+04  0.7818608E-02  0.9014352E-01
          2   -1    0    0  501    0  0.00000000000E+00  0.00000000000E+00  0.15875256174E+04  0.15875256174E+04  0.25500000000E-02 0. -1.
         -2   -1    0    0    0  501 -0.00000000000E+00 -0.00000000000E+00 -0.16439996812E+04  0.16439996812E+04  0.25500000000E-02 0.  1.
    8880023    1    1    2    0    0 -0.21276478147E+03  0.11722028783E+04 -0.10123482178E+04  0.16964632506E+04  0.65864270000E+03 0.  1.
    8880022    1    1    2    0    0  0.21276478147E+03 -0.11722028783E+04  0.95587415394E+03  0.15350620481E+04  0.15294330000E+03 0.  0.
<mgrwt>
<rscale>  0 0.13193597E+04</rscale>
<asrwt>0</asrwt>
<pdfrwt beam="1">  1        2 0.24423471E+00 0.13613004E+04</pdfrwt>
<pdfrwt beam="2">  1       -2 0.25292303E+00 0.13613004E+04</pdfrwt>
<totfact> 0.66625020E-01</totfact>
</mgrwt>
</event>
<event>
 4    5  0.2295023E-007  0.7494965E+03  0.7818608E-02  0.9833101E-01
          2   -1    0    0  501    0  0.00000000000E+00  0.00000000000E+00  0.17413685948E+04  0.17413685948E+04  0.25500000000E-02 0. -1.
         -2   -1    0    0    0  501 -0.00000000000E+00 -0.00000000000E+00 -0.29666213746E+03  0.29666213747E+03  0.25500000000E-02 0.  1.
    8880023    1    1    2    0    0 -0.24569456688E+03 -0.25994031678E+03  0.26358032710E+03  0.79449328731E+03  0.65864270000E+03 0.  0.
    8880022    1    1    2    0    0  0.24569456688E+03  0.25994031678E+03  0.11811261302E+04  0.12435374449E+04  0.15294330000E+03 0.  0.
<mgrwt>
<rscale>  0 0.63616029E+03</rscale>
<asrwt>0</asrwt>
<pdfrwt beam="1">  1        2 0.26790286E+00 0.74949649E+03</pdfrwt>
<pdfrwt beam="2">  1       -2 0.45640330E-01 0.74949649E+03</pdfrwt>
<totfact> 0.43447801E+01</totfact>
</mgrwt>
</event>
<event>
 4    5  0.2295023E-007  0.1233273E+04  0.7818608E-02  0.9125439E-01
         -2   -1    0    0    0  501 -0.00000000000E+00  0.00000000000E+00  0.95042866446E+03  0.95042866446E+03  0.25500000000E-02 0.  1.
          2   -1    0    0  501    0  0.00000000000E+00 -0.00000000000E+00 -0.19080003806E+04  0.19080003806E+04  0.25500000000E-02 0. -1.
    8880023    1    1    2    0    0 -0.37404744379E+02  0.10419942104E+04 -0.12589470247E+04  0.17623588927E+04  0.65864270000E+03 0. -1.
    8880022    1    1    2    0    0  0.37404744379E+02 -0.10419942104E+04  0.30137530852E+03  0.10960701524E+04  0.15294330000E+03 0.  0.
<mgrwt>
<rscale>  0 0.11857311E+04</rscale>
<asrwt>0</asrwt>
<pdfrwt beam="1">  1        2 0.29353852E+00 0.12332726E+04</pdfrwt>
<pdfrwt beam="2">  1       -2 0.14621979E+00 0.12332726E+04</pdfrwt>
<totfact> 0.23361565E+00</totfact>
</mgrwt>
</event>
<event>
 4    5  0.2295023E-007  0.7667217E+03  0.7818608E-02  0.9788006E-01
          2   -1    0    0  501    0  0.00000000000E+00  0.00000000000E+00  0.19548322928E+04  0.19548322928E+04  0.25500000000E-02 0. -1.
         -2   -1    0    0    0  501 -0.00000000000E+00 -0.00000000000E+00 -0.39692383042E+03  0.39692383043E+03  0.25500000000E-02 0.  1.
    8880023    1    1    2    0    0  0.39191662848E+03 -0.21292031396E+02  0.30502791144E+02  0.76732823538E+03  0.65864270000E+03 0.  1.
    8880022    1    1    2    0    0 -0.39191662848E+03  0.21292031396E+02  0.15274056713E+04  0.15844278879E+04  0.15294330000E+03 0.  0.
<mgrwt>
<rscale>  0 0.66010175E+03</rscale>
<asrwt>0</asrwt>
<pdfrwt beam="1">  1        2 0.30074343E+00 0.76672172E+03</pdfrwt>
<pdfrwt beam="2">  1       -2 0.61065205E-01 0.76672172E+03</pdfrwt>
<totfact> 0.18208928E+01</totfact>
</mgrwt>
</event>
<event>
 4    5  0.2295023E-007  0.8570478E+03  0.7818608E-02  0.9598837E-01
          2   -1    0    0  501    0  0.00000000000E+00  0.00000000000E+00  0.15293851589E+04  0.15293851589E+04  0.25500000000E-02 0. -1.
         -2   -1    0    0    0  501 -0.00000000000E+00 -0.00000000000E+00 -0.11725119600E+04  0.11725119600E+04  0.25500000000E-02 0.  1.
    8880023    1    1    2    0    0  0.42514408591E+03 -0.34637151353E+03 -0.94815484609E+03  0.12780956684E+04  0.65864270000E+03 0.  1.
    8880022    1    1    2    0    0 -0.42514408591E+03  0.34637151353E+03  0.13050280450E+04  0.14238014505E+04  0.15294330000E+03 0.  0.
<mgrwt>
<rscale>  0 0.77373231E+03</rscale>
<asrwt>0</asrwt>
<pdfrwt beam="1">  1        2 0.23529002E+00 0.85704780E+03</pdfrwt>
<pdfrwt beam="2">  1       -2 0.18038646E+00 0.85704780E+03</pdfrwt>
<totfact> 0.22298046E+00</totfact>
</mgrwt>
</event>
<event>
 4    5  0.2295023E-007  0.1716993E+04  0.7818608E-02  0.8769898E-01
          2   -1    0    0  501    0  0.00000000000E+00  0.00000000000E+00  0.21952190020E+04  0.21952190020E+04  0.25500000000E-02 0. -1.
         -2   -1    0    0    0  501 -0.00000000000E+00 -0.00000000000E+00 -0.19519747458E+04  0.19519747458E+04  0.25500000000E-02 0.  1.
    8880023    1    1    2    0    0 -0.57573440237E+03 -0.14774253357E+04 -0.11204332186E+04  0.20502284088E+04  0.65864270000E+03 0.  0.
    8880022    1    1    2    0    0  0.57573440237E+03  0.14774253357E+04  0.13636774747E+04  0.20969653390E+04  0.15294330000E+03 0.  0.
<mgrwt>
<rscale>  0 0.16851181E+04</rscale>
<asrwt>0</asrwt>
<pdfrwt beam="1">  1        2 0.33772600E+00 0.17169933E+04</pdfrwt>
<pdfrwt beam="2">  1       -2 0.30030381E+00 0.17169933E+04</pdfrwt>
<totfact> 0.15036608E-01</totfact>
</mgrwt>
</event>
<event>
 4    5  0.2295023E-007  0.1000129E+04  0.7818608E-02  0.9381389E-01
         -2   -1    0    0    0  501 -0.00000000000E+00  0.00000000000E+00  0.89840481727E+03  0.89840481727E+03  0.25500000000E-02 0.  1.
          2   -1    0    0  501    0  0.00000000000E+00 -0.00000000000E+00 -0.98272051107E+03  0.98272051107E+03  0.25500000000E-02 0. -1.
    8880023    1    1    2    0    0 -0.74335833713E+03  0.11775415909E+03  0.26910305528E+03  0.10356999179E+04  0.65864270000E+03 0.  0.
    8880022    1    1    2    0    0  0.74335833713E+03 -0.11775415909E+03 -0.35341874908E+03  0.84542541042E+03  0.15294330000E+03 0.  0.
<mgrwt>
<rscale>  0 0.93623248E+03</rscale>
<asrwt>0</asrwt>
<pdfrwt beam="1">  1        2 0.15118777E+00 0.10001289E+04</pdfrwt>
<pdfrwt beam="2">  1       -2 0.13821613E+00 0.10001289E+04</pdfrwt>
<totfact> 0.95165946E+00</totfact>
</mgrwt>
</event>
<event>
 4    5  0.2295023E-007  0.7245964E+03  0.7818608E-02  0.9907330E-01
          2   -1    0    0  501    0  0.00000000000E+00  0.00000000000E+00  0.75494538180E+03  0.75494538180E+03  0.25500000000E-02 0. -1.
         -2   -1    0    0    0  501 -0.00000000000E+00 -0.00000000000E+00 -0.10870051835E+04  0.10870051835E+04  0.25500000000E-02 0.  1.
    8880023    1    1    2    0    0 -0.92376911563E+02 -0.28756942679E+03 -0.91540479443E+03  0.11674783993E+04  0.65864270000E+03 0.  1.
    8880022    1    1    2    0    0  0.92376911563E+02  0.28756942679E+03  0.58334499276E+03  0.67447216593E+03  0.15294330000E+03 0.  0.
<mgrwt>
<rscale>  0 0.59907374E+03</rscale>
<asrwt>0</asrwt>
<pdfrwt beam="1">  1        2 0.11614544E+00 0.72459635E+03</pdfrwt>
<pdfrwt beam="2">  1       -2 0.16723157E+00 0.72459635E+03</pdfrwt>
<totfact> 0.84625747E+00</totfact>
</mgrwt>
</event>
<event>
 4    5  0.2295023E-007  0.8292815E+03  0.7818608E-02  0.9650732E-01
          2   -1    0    0  501    0  0.00000000000E+00  0.00000000000E+00  0.13142215478E+04  0.13142215478E+04  0.25500000000E-02 0. -1.
         -2   -1    0    0    0  501 -0.00000000000E+00 -0.00000000000E+00 -0.92197419926E+03  0.92197419927E+03  0.25500000000E-02 0.  1.
    8880023    1    1    2    0    0  0.32342419889E+03  0.38638632430E+03 -0.65978902055E+03  0.10597307969E+04  0.65864270000E+03 0.  0.
    8880022    1    1    2    0    0 -0.32342419889E+03 -0.38638632430E+03  0.10520363691E+04  0.11764649502E+04  0.15294330000E+03 0.  0.
<mgrwt>
<rscale>  0 0.74027505E+03</rscale>
<asrwt>0</asrwt>
<pdfrwt beam="1">  1        2 0.20218793E+00 0.82928150E+03</pdfrwt>
<pdfrwt beam="2">  1       -2 0.14184218E+00 0.82928150E+03</pdfrwt>
<totfact> 0.56963515E+00</totfact>
</mgrwt>
</event>
<event>
 4    5  0.2295023E-007  0.9676383E+03  0.7818608E-02  0.9425178E-01
         -2   -1    0    0    0  501 -0.00000000000E+00  0.00000000000E+00  0.10867167600E+04  0.10867167600E+04  0.25500000000E-02 0.  1.
          2   -1    0    0  501    0  0.00000000000E+00 -0.00000000000E+00 -0.12601864818E+04  0.12601864818E+04  0.25500000000E-02 0. -1.
    8880023    1    1    2    0    0  0.65740712372E+03  0.26519718657E+03  0.71273662652E+03  0.12017975616E+04  0.65864270000E+03 0.  0.
    8880022    1    1    2    0    0 -0.65740712372E+03 -0.26519718657E+03 -0.88620634828E+03  0.11451056802E+04  0.15294330000E+03 0.  0.
<mgrwt>
<rscale>  0 0.90032277E+03</rscale>
<asrwt>0</asrwt>
<pdfrwt beam="1">  1        2 0.19387484E+00 0.96763830E+03</pdfrwt>
<pdfrwt beam="2">  1       -2 0.16718719E+00 0.96763830E+03</pdfrwt>
<totfact> 0.38751191E+00</totfact>
</mgrwt>
</event>
<event>
 4    5  0.2295023E-007  0.1228642E+04  0.7818608E-02  0.9129771E-01
         -2   -1    0    0    0  501 -0.00000000000E+00  0.00000000000E+00  0.19722939165E+04  0.19722939165E+04  0.25500000000E-02 0.  1.
          2   -1    0    0  501    0  0.00000000000E+00 -0.00000000000E+00 -0.15447023359E+04  0.15447023359E+04  0.25500000000E-02 0. -1.
    8880023    1    1    2    0    0  0.35097565268E+02 -0.10365903311E+04  0.15521239460E+04  0.19795581081E+04  0.65864270000E+03 0.  1.
    8880022    1    1    2    0    0 -0.35097565268E+02  0.10365903311E+04 -0.11245323655E+04  0.15374381443E+04  0.15294330000E+03 0.  0.
<mgrwt>
<rscale>  0 0.11808666E+04</rscale>
<asrwt>0</asrwt>
<pdfrwt beam="1">  1        2 0.23764651E+00 0.12286422E+04</pdfrwt>
<pdfrwt beam="2">  1       -2 0.30342983E+00 0.12286422E+04</pdfrwt>
<totfact> 0.35258763E-01</totfact>
</mgrwt>
</event>
<event>
 4    5  0.2295023E-007  0.7468488E+03  0.7818608E-02  0.9840428E-01
         -2   -1    0    0    0  501 -0.00000000000E+00  0.00000000000E+00  0.45142682827E+03  0.45142682828E+03  0.25500000000E-02 0.  1.
          2   -1    0    0  501    0  0.00000000000E+00 -0.00000000000E+00 -0.14628675372E+04  0.14628675372E+04  0.25500000000E-02 0. -1.
    8880023    1    1    2    0    0 -0.14525819039E+03 -0.32073816696E+03  0.85873917908E+02  0.75176954558E+03  0.65864270000E+03 0.  1.
    8880022    1    1    2    0    0  0.14525819039E+03  0.32073816696E+03 -0.10973146269E+04  0.11625248199E+04  0.15294330000E+03 0.  0.
<mgrwt>
<rscale>  0 0.63237348E+03</rscale>
<asrwt>0</asrwt>
<pdfrwt beam="1">  1        2 0.22505654E+00 0.74684879E+03</pdfrwt>
<pdfrwt beam="2">  1       -2 0.69450282E-01 0.74684879E+03</pdfrwt>
<totfact> 0.25785798E+01</totfact>
</mgrwt>
</event>
<event>
 4    5  0.2295023E-007  0.8503412E+03  0.7818608E-02  0.9610981E-01
         -2   -1    0    0    0  501 -0.00000000000E+00  0.00000000000E+00  0.59946134727E+03  0.59946134727E+03  0.25500000000E-02 0.  1.
          2   -1    0    0  501    0  0.00000000000E+00 -0.00000000000E+00 -0.17867549918E+04  0.17867549918E+04  0.25500000000E-02 0. -1.
    8880023    1    1    2    0    0 -0.52749905623E+03 -0.10495103703E+03  0.21453198325E+03  0.87698583375E+03  0.65864270000E+03 0.  0.
    8880022    1    1    2    0    0  0.52749905623E+03  0.10495103703E+03 -0.14018256278E+04  0.15092305053E+04  0.15294330000E+03 0.  0.
<mgrwt>
<rscale>  0 0.76573632E+03</rscale>
<asrwt>0</asrwt>
<pdfrwt beam="1">  1        2 0.27488538E+00 0.85034121E+03</pdfrwt>
<pdfrwt beam="2">  1       -2 0.92224824E-01 0.85034121E+03</pdfrwt>
<totfact> 0.89086414E+00</totfact>
</mgrwt>
</event>
<event>
 4    5  0.2295023E-007  0.1076049E+04  0.7818608E-02  0.9288203E-01
          2   -1    0    0  501    0  0.00000000000E+00  0.00000000000E+00  0.11275333587E+04  0.11275333587E+04  0.25500000000E-02 0. -1.
         -2   -1    0    0    0  501 -0.00000000000E+00 -0.00000000000E+00 -0.19920882946E+04  0.19920882946E+04  0.25500000000E-02 0.  1.
    8880023    1    1    2    0    0  0.64039287160E+03 -0.56032903194E+03 -0.16378395356E+04  0.19596939058E+04  0.65864270000E+03 0.  0.
    8880022    1    1    2    0    0 -0.64039287160E+03  0.56032903194E+03  0.77328459969E+03  0.11599277474E+04  0.15294330000E+03 0.  0.
<mgrwt>
<rscale>  0 0.10187622E+04</rscale>
<asrwt>0</asrwt>
<pdfrwt beam="1">  1        2 0.17346667E+00 0.10760492E+04</pdfrwt>
<pdfrwt beam="2">  1       -2 0.30647512E+00 0.10760492E+04</pdfrwt>
<totfact> 0.60399020E-01</totfact>
</mgrwt>
</event>
<event>
 4    5  0.2295023E-007  0.6649126E+03  0.7818608E-02  0.1019607E+00
          2   -1    0    0  501    0  0.00000000000E+00  0.00000000000E+00  0.18924624690E+04  0.18924624690E+04  0.25500000000E-02 0. -1.
         -2   -1    0    0    0  501 -0.00000000000E+00 -0.00000000000E+00 -0.22938269166E+03  0.22938269167E+03  0.25500000000E-02 0.  1.
    8880023    1    1    2    0    0  0.90102054552E+02 -0.13423338055E+02  0.27033116617E+03  0.71776577789E+03  0.65864270000E+03 0.  0.
    8880022    1    1    2    0    0 -0.90102054552E+02  0.13423338055E+02  0.13927486112E+04  0.14040793828E+04  0.15294330000E+03 0. -1.
<mgrwt>
<rscale>  0 0.47828755E+03</rscale>
<asrwt>0</asrwt>
<pdfrwt beam="1">  1        2 0.29114808E+00 0.66491261E+03</pdfrwt>
<pdfrwt beam="2">  1       -2 0.35289644E-01 0.66491261E+03</pdfrwt>
<totfact> 0.59984801E+01</totfact>
</mgrwt>
</event>
<event>
 4    5  0.2295023E-007  0.6989637E+03  0.7818608E-02  0.1000153E+00
          2   -1    0    0  501    0  0.00000000000E+00  0.00000000000E+00  0.11860243068E+04  0.11860243068E+04  0.25500000000E-02 0. -1.
         -2   -1    0    0    0  501 -0.00000000000E+00 -0.00000000000E+00 -0.10261951118E+04  0.10261951118E+04  0.25500000000E-02 0.  1.
    8880023    1    1    2    0    0  0.10004434729E+03  0.21149746972E+03 -0.88666548413E+03  0.11290376159E+04  0.65864270000E+03 0.  1.
    8880022    1    1    2    0    0 -0.10004434729E+03 -0.21149746972E+03  0.10464946791E+04  0.10831818026E+04  0.15294330000E+03 0.  0.
<mgrwt>
<rscale>  0 0.55583307E+03</rscale>
<asrwt>0</asrwt>
<pdfrwt beam="1">  1        2 0.18246528E+00 0.69896370E+03</pdfrwt>
<pdfrwt beam="2">  1       -2 0.15787617E+00 0.69896370E+03</pdfrwt>
<totfact> 0.51921046E+00</totfact>
</mgrwt>
</event>
<event>
 4    5  0.2295023E-007  0.9236927E+03  0.7818608E-02  0.9489020E-01
         -2   -1    0    0    0  501 -0.00000000000E+00  0.00000000000E+00  0.55060409935E+03  0.55060409936E+03  0.25500000000E-02 0.  1.
          2   -1    0    0  501    0  0.00000000000E+00 -0.00000000000E+00 -0.17804998681E+04  0.17804998681E+04  0.25500000000E-02 0. -1.
    8880023    1    1    2    0    0  0.25084666820E+03 -0.59705443643E+03  0.10208226609E+02  0.92374913540E+03  0.65864270000E+03 0.  1.
    8880022    1    1    2    0    0 -0.25084666820E+03  0.59705443643E+03 -0.12401039953E+04  0.14073548320E+04  0.15294330000E+03 0.  0.
<mgrwt>
<rscale>  0 0.85098192E+03</rscale>
<asrwt>0</asrwt>
<pdfrwt beam="1">  1        2 0.27392305E+00 0.92369273E+03</pdfrwt>
<pdfrwt beam="2">  1       -2 0.84708324E-01 0.92369273E+03</pdfrwt>
<totfact> 0.10824880E+01</totfact>
</mgrwt>
</event>
<event>
 4    5  0.2295023E-007  0.6846248E+03  0.7818608E-02  0.1006820E+00
          2   -1    0    0  501    0  0.00000000000E+00  0.00000000000E+00  0.19286828050E+04  0.19286828050E+04  0.25500000000E-02 0. -1.
         -2   -1    0    0    0  501 -0.00000000000E+00 -0.00000000000E+00 -0.16906331369E+03  0.16906331370E+03  0.25500000000E-02 0.  1.
    8880023    1    1    2    0    0  0.17720977052E+03  0.59140499289E+02  0.59094691038E+03  0.90439447067E+03  0.65864270000E+03 0.  1.
    8880022    1    1    2    0    0 -0.17720977052E+03 -0.59140499289E+02  0.11686725809E+04  0.11933516480E+04  0.15294330000E+03 0.  0.
<mgrwt>
<rscale>  0 0.52758338E+03</rscale>
<asrwt>0</asrwt>
<pdfrwt beam="1">  1        2 0.29672042E+00 0.68462479E+03</pdfrwt>
<pdfrwt beam="2">  1       -2 0.26009741E-01 0.68462479E+03</pdfrwt>
<totfact> 0.10077518E+02</totfact>
</mgrwt>
</event>
<event>
 4    5  0.2295023E-007  0.8169860E+03  0.7818608E-02  0.9675205E-01
         -2   -1    0    0    0  501 -0.00000000000E+00  0.00000000000E+00  0.58748708681E+03  0.58748708682E+03  0.25500000000E-02 0.  1.
          2   -1    0    0  501    0  0.00000000000E+00 -0.00000000000E+00 -0.29157223511E+04  0.29157223511E+04  0.25500000000E-02 0. -1.
    8880023    1    1    2    0    0  0.75414431660E+02 -0.47746057376E+03  0.26654036654E+03  0.85936599261E+03  0.65864270000E+03 0.  1.
    8880022    1    1    2    0    0 -0.75414431660E+02  0.47746057376E+03 -0.25947756308E+04  0.26438434453E+04  0.15294330000E+03 0.  0.
<mgrwt>
<rscale>  0 0.72512463E+03</rscale>
<asrwt>0</asrwt>
<pdfrwt beam="1">  1        2 0.44857266E+00 0.81698601E+03</pdfrwt>
<pdfrwt beam="2">  1       -2 0.90382631E-01 0.81698601E+03</pdfrwt>
<totfact> 0.21597096E+00</totfact>
</mgrwt>
</event>
<event>
 4    5  0.2295023E-007  0.6997332E+03  0.7818608E-02  0.9998310E-01
          2   -1    0    0  501    0  0.00000000000E+00  0.00000000000E+00  0.80464958047E+03  0.80464958047E+03  0.25500000000E-02 0. -1.
         -2   -1    0    0    0  501 -0.00000000000E+00 -0.00000000000E+00 -0.10880362374E+04  0.10880362374E+04  0.25500000000E-02 0.  1.
    8880023    1    1    2    0    0  0.13974775766E+03  0.19049113545E+03 -0.94374576537E+03  0.11748542822E+04  0.65864270000E+03 0.  1.
    8880022    1    1    2    0    0 -0.13974775766E+03 -0.19049113545E+03  0.66035910846E+03  0.71783153567E+03  0.15294330000E+03 0.  0.
<mgrwt>
<rscale>  0 0.55724407E+03</rscale>
<asrwt>0</asrwt>
<pdfrwt beam="1">  1        2 0.12379224E+00 0.69973317E+03</pdfrwt>
<pdfrwt beam="2">  1       -2 0.16739019E+00 0.69973317E+03</pdfrwt>
<totfact> 0.77884366E+00</totfact>
</mgrwt>
</event>
<event>
 4    5  0.2295023E-007  0.7735071E+03  0.7818608E-02  0.9771316E-01
         -2   -1    0    0    0  501 -0.00000000000E+00  0.00000000000E+00  0.10414804846E+04  0.10414804846E+04  0.25500000000E-02 0.  1.
          2   -1    0    0  501    0  0.00000000000E+00 -0.00000000000E+00 -0.10423416776E+04  0.10423416776E+04  0.25500000000E-02 0. -1.
    8880023    1    1    2    0    0  0.22037002733E+03  0.34049980064E+03  0.83748600249E+03  0.11400421369E+04  0.65864270000E+03 0.  1.
    8880022    1    1    2    0    0 -0.22037002733E+03 -0.34049980064E+03 -0.83834719545E+03  0.94378002539E+03  0.15294330000E+03 0.  0.
<mgrwt>
<rscale>  0 0.66924874E+03</rscale>
<asrwt>0</asrwt>
<pdfrwt beam="1">  1        2 0.16036026E+00 0.77350712E+03</pdfrwt>
<pdfrwt beam="2">  1       -2 0.16022777E+00 0.77350712E+03</pdfrwt>
<totfact> 0.60384885E+00</totfact>
</mgrwt>
</event>
<event>
 4    5  0.2295023E-007  0.6998280E+03  0.7818608E-02  0.9997915E-01
         -2   -1    0    0    0  501 -0.00000000000E+00  0.00000000000E+00  0.27032061011E+03  0.27032061012E+03  0.25500000000E-02 0.  1.
          2   -1    0    0  501    0  0.00000000000E+00 -0.00000000000E+00 -0.16577689514E+04  0.16577689514E+04  0.25500000000E-02 0. -1.
    8880023    1    1    2    0    0 -0.23225140811E+03 -0.44814649509E+02 -0.22968755526E+03  0.73655661608E+03  0.65864270000E+03 0.  1.
    8880022    1    1    2    0    0  0.23225140811E+03  0.44814649509E+02 -0.11577607860E+04  0.11915329454E+04  0.15294330000E+03 0.  0.
<mgrwt>
<rscale>  0 0.55741740E+03</rscale>
<asrwt>0</asrwt>
<pdfrwt beam="1">  1        2 0.25504137E+00 0.69982803E+03</pdfrwt>
<pdfrwt beam="2">  1       -2 0.41587787E-01 0.69982803E+03</pdfrwt>
<totfact> 0.58363278E+01</totfact>
</mgrwt>
</event>
<event>
 4    5  0.2295023E-007  0.1532959E+04  0.7818608E-02  0.8886707E-01
         -2   -1    0    0    0  501 -0.00000000000E+00  0.00000000000E+00  0.12498148862E+04  0.12498148862E+04  0.25500000000E-02 0.  1.
          2   -1    0    0  501    0  0.00000000000E+00 -0.00000000000E+00 -0.24224714262E+04  0.24224714262E+04  0.25500000000E-02 0. -1.
    8880023    1    1    2    0    0  0.12068498052E+04  0.67798662922E+03 -0.15996819153E+04  0.22156138558E+04  0.65864270000E+03 0.  0.
    8880022    1    1    2    0    0 -0.12068498052E+04 -0.67798662922E+03  0.42702537525E+03  0.14566724566E+04  0.15294330000E+03 0.  0.
<mgrwt>
<rscale>  0 0.14966157E+04</rscale>
<asrwt>0</asrwt>
<pdfrwt beam="1">  1        2 0.37268791E+00 0.15329587E+04</pdfrwt>
<pdfrwt beam="2">  1       -2 0.19227921E+00 0.15329587E+04</pdfrwt>
<totfact> 0.54092840E-01</totfact>
</mgrwt>
</event>
<event>
 4    5  0.2295023E-007  0.7268710E+03  0.7818608E-02  0.9899988E-01
          2   -1    0    0  501    0  0.00000000000E+00  0.00000000000E+00  0.10557970697E+04  0.10557970698E+04  0.25500000000E-02 0. -1.
         -2   -1    0    0    0  501 -0.00000000000E+00 -0.00000000000E+00 -0.15572598212E+04  0.15572598212E+04  0.25500000000E-02 0.  1.
    8880023    1    1    2    0    0 -0.26052721779E+03  0.16326902317E+03 -0.14403363352E+04  0.16133537027E+04  0.65864270000E+03 0.  1.
    8880022    1    1    2    0    0  0.26052721779E+03 -0.16326902317E+03  0.93887358382E+03  0.99970318822E+03  0.15294330000E+03 0.  0.
<mgrwt>
<rscale>  0 0.60261889E+03</rscale>
<asrwt>0</asrwt>
<pdfrwt beam="1">  1        2 0.16243032E+00 0.72687097E+03</pdfrwt>
<pdfrwt beam="2">  1       -2 0.23957843E+00 0.72687097E+03</pdfrwt>
<totfact> 0.17930869E+00</totfact>
</mgrwt>
</event>
<event>
 4    5  0.2295023E-007  0.1527668E+04  0.7818608E-02  0.8890342E-01
         -2   -1    0    0    0  501 -0.00000000000E+00  0.00000000000E+00  0.21084359666E+04  0.21084359666E+04  0.25500000000E-02 0.  1.
          2   -1    0    0  501    0  0.00000000000E+00 -0.00000000000E+00 -0.30704791702E+04  0.30704791702E+04  0.25500000000E-02 0. -1.
    8880023    1    1    2    0    0 -0.11945295976E+04  0.68779226261E+03 -0.26105167643E+04  0.30246598386E+04  0.65864270000E+03 0.  0.
    8880022    1    1    2    0    0  0.11945295976E+04 -0.68779226261E+03  0.16484735607E+04  0.21542552981E+04  0.15294330000E+03 0.  0.
<mgrwt>
<rscale>  0 0.14911765E+04</rscale>
<asrwt>0</asrwt>
<pdfrwt beam="1">  1        2 0.47238141E+00 0.15276679E+04</pdfrwt>
<pdfrwt beam="2">  1       -2 0.32437476E+00 0.15276679E+04</pdfrwt>
<totfact> 0.33175745E-02</totfact>
</mgrwt>
</event>
<event>
 4    5  0.2295023E-007  0.1496001E+04  0.7818608E-02  0.8912465E-01
         -2   -1    0    0    0  501 -0.00000000000E+00  0.00000000000E+00  0.14220026147E+04  0.14220026147E+04  0.25500000000E-02 0.  1.
          2   -1    0    0  501    0  0.00000000000E+00 -0.00000000000E+00 -0.16501570934E+04  0.16501570934E+04  0.25500000000E-02 0. -1.
    8880023    1    1    2    0    0 -0.10532585802E+04  0.83358059386E+03  0.44659152775E+03  0.15612381120E+04  0.65864270000E+03 0. -1.
    8880022    1    1    2    0    0  0.10532585802E+04 -0.83358059386E+03 -0.67474600647E+03  0.15109215961E+04  0.15294330000E+03 0.  0.
<mgrwt>
<rscale>  0 0.14585933E+04</rscale>
<asrwt>0</asrwt>
<pdfrwt beam="1">  1        2 0.25387032E+00 0.14960015E+04</pdfrwt>
<pdfrwt beam="2">  1       -2 0.21876963E+00 0.14960015E+04</pdfrwt>
<totfact> 0.98931088E-01</totfact>
</mgrwt>
</event>
<event>
 4    5  0.2295023E-007  0.1177173E+04  0.7818608E-02  0.9179638E-01
         -2   -1    0    0    0  501 -0.00000000000E+00  0.00000000000E+00  0.10291000036E+04  0.10291000036E+04  0.25500000000E-02 0.  1.
          2   -1    0    0  501    0  0.00000000000E+00 -0.00000000000E+00 -0.19715863862E+04  0.19715863862E+04  0.25500000000E-02 0. -1.
    8880023    1    1    2    0    0 -0.69096598492E+03  0.68883371932E+03  0.47809123011E+03  0.12705539405E+04  0.65864270000E+03 0.  0.
    8880022    1    1    2    0    0  0.69096598492E+03 -0.68883371932E+03 -0.14205776127E+04  0.17301324493E+04  0.15294330000E+03 0.  0.
<mgrwt>
<rscale>  0 0.11266096E+04</rscale>
<asrwt>0</asrwt>
<pdfrwt beam="1">  1        2 0.30332098E+00 0.11771729E+04</pdfrwt>
<pdfrwt beam="2">  1       -2 0.15832308E+00 0.11771729E+04</pdfrwt>
<totfact> 0.17514645E+00</totfact>
</mgrwt>
</event>
<event>
 4    5  0.2295023E-007  0.1089278E+04  0.7818608E-02  0.9273088E-01
         -2   -1    0    0    0  501 -0.00000000000E+00  0.00000000000E+00  0.59772227042E+03  0.59772227042E+03  0.25500000000E-02 0.  1.
          2   -1    0    0  501    0  0.00000000000E+00 -0.00000000000E+00 -0.20440031876E+04  0.20440031876E+04  0.25500000000E-02 0. -1.
    8880023    1    1    2    0    0 -0.52078065133E+03  0.69390544555E+03 -0.18751454158E+03  0.11053004857E+04  0.65864270000E+03 0.  1.
    8880022    1    1    2    0    0  0.52078065133E+03 -0.69390544555E+03 -0.12587663756E+04  0.15364249723E+04  0.15294330000E+03 0.  0.
<mgrwt>
<rscale>  0 0.10329862E+04</rscale>
<asrwt>0</asrwt>
<pdfrwt beam="1">  1        2 0.31446202E+00 0.10892784E+04</pdfrwt>
<pdfrwt beam="2">  1       -2 0.91957274E-01 0.10892784E+04</pdfrwt>
<totfact> 0.62957783E+00</totfact>
</mgrwt>
</event>
<event>
 4    5  0.2295023E-007  0.1828869E+04  0.7818608E-02  0.8706733E-01
          2   -1    0    0  501    0  0.00000000000E+00  0.00000000000E+00  0.21173254475E+04  0.21173254475E+04  0.25500000000E-02 0. -1.
         -2   -1    0    0    0  501 -0.00000000000E+00 -0.00000000000E+00 -0.17787369477E+04  0.17787369477E+04  0.25500000000E-02 0.  1.
    8880023    1    1    2    0    0  0.17056314812E+04 -0.42094565728E+02 -0.62245935040E+03  0.19318945497E+04  0.65864270000E+03 0.  0.
    8880022    1    1    2    0    0 -0.17056314812E+04  0.42094565728E+02  0.96104785021E+03  0.19641678455E+04  0.15294330000E+03 0.  0.
<mgrwt>
<rscale>  0 0.17991847E+04</rscale>
<asrwt>0</asrwt>
<pdfrwt beam="1">  1        2 0.32574237E+00 0.18288688E+04</pdfrwt>
<pdfrwt beam="2">  1       -2 0.27365184E+00 0.18288688E+04</pdfrwt>
<totfact> 0.23949854E-01</totfact>
</mgrwt>
</event>
<event>
 4    5  0.2295023E-007  0.6937941E+03  0.7818608E-02  0.1002399E+00
         -2   -1    0    0    0  501 -0.00000000000E+00  0.00000000000E+00  0.32645502996E+03  0.32645502997E+03  0.25500000000E-02 0.  1.
          2   -1    0    0  501    0  0.00000000000E+00 -0.00000000000E+00 -0.19172989858E+04  0.19172989858E+04  0.25500000000E-02 0. -1.
    8880023    1    1    2    0    0  0.21591349127E+03 -0.30355790030E+02 -0.67236928537E+02  0.69704456136E+03  0.65864270000E+03 0.  1.
    8880022    1    1    2    0    0 -0.21591349127E+03  0.30355790030E+02 -0.15236070273E+04  0.15467094544E+04  0.15294330000E+03 0.  0.
<mgrwt>
<rscale>  0 0.54610741E+03</rscale>
<asrwt>0</asrwt>
<pdfrwt beam="1">  1        2 0.29496907E+00 0.69379415E+03</pdfrwt>
<pdfrwt beam="2">  1       -2 0.50223852E-01 0.69379415E+03</pdfrwt>
<totfact> 0.28933527E+01</totfact>
</mgrwt>
</event>
<event>
 4    5  0.2295023E-007  0.7397646E+03  0.7818608E-02  0.9860633E-01
          2   -1    0    0  501    0  0.00000000000E+00  0.00000000000E+00  0.24175275268E+03  0.24175275269E+03  0.25500000000E-02 0. -1.
         -2   -1    0    0    0  501 -0.00000000000E+00 -0.00000000000E+00 -0.17959461312E+04  0.17959461312E+04  0.25500000000E-02 0.  1.
    8880023    1    1    2    0    0  0.85620828423E+02 -0.32574621323E+03 -0.14882342991E+04  0.16619545893E+04  0.65864270000E+03 0.  1.
    8880022    1    1    2    0    0 -0.85620828423E+02  0.32574621323E+03 -0.65959079359E+02  0.37574429451E+03  0.15294330000E+03 0.  0.
<mgrwt>
<rscale>  0 0.62207694E+03</rscale>
<asrwt>0</asrwt>
<pdfrwt beam="1">  1        2 0.37192732E-01 0.73976464E+03</pdfrwt>
<pdfrwt beam="2">  1       -2 0.27629940E+00 0.73976464E+03</pdfrwt>
<totfact> 0.64093634E+00</totfact>
</mgrwt>
</event>
<event>
 4    5  0.2295023E-007  0.7849157E+03  0.7818608E-02  0.9744414E-01
          2   -1    0    0  501    0  0.00000000000E+00  0.00000000000E+00  0.12343504328E+04  0.12343504328E+04  0.25500000000E-02 0. -1.
         -2   -1    0    0    0  501 -0.00000000000E+00 -0.00000000000E+00 -0.12258125022E+04  0.12258125022E+04  0.25500000000E-02 0.  1.
    8880023    1    1    2    0    0  0.26409011226E+03  0.33546801656E+03 -0.10486129676E+04  0.13098403489E+04  0.65864270000E+03 0.  0.
    8880022    1    1    2    0    0 -0.26409011226E+03 -0.33546801656E+03  0.10571508982E+04  0.11503225861E+04  0.15294330000E+03 0.  0.
<mgrwt>
<rscale>  0 0.68432858E+03</rscale>
<asrwt>0</asrwt>
<pdfrwt beam="1">  1        2 0.18990007E+00 0.78491565E+03</pdfrwt>
<pdfrwt beam="2">  1       -2 0.18858654E+00 0.78491565E+03</pdfrwt>
<totfact> 0.29211911E+00</totfact>
</mgrwt>
</event>
<event>
 4    5  0.2295023E-007  0.1909288E+04  0.7818608E-02  0.8664376E-01
          2   -1    0    0  501    0  0.00000000000E+00  0.00000000000E+00  0.46610817122E+04  0.46610817122E+04  0.25500000000E-02 0. -1.
         -2   -1    0    0    0  501 -0.00000000000E+00 -0.00000000000E+00 -0.13362516623E+04  0.13362516623E+04  0.25500000000E-02 0.  1.
    8880023    1    1    2    0    0 -0.15729742657E+03 -0.17851684595E+04 -0.31714124483E+03  0.19354476703E+04  0.65864270000E+03 0.  0.
    8880022    1    1    2    0    0  0.15729742657E+03  0.17851684595E+04  0.36419712947E+04  0.40618857041E+04  0.15294330000E+03 0.  0.
<mgrwt>
<rscale>  0 0.18809928E+04</rscale>
<asrwt>0</asrwt>
<pdfrwt beam="1">  1        2 0.71708948E+00 0.19092876E+04</pdfrwt>
<pdfrwt beam="2">  1       -2 0.20557718E+00 0.19092876E+04</pdfrwt>
<totfact> 0.94117586E-03</totfact>
</mgrwt>
</event>
<event>
 4    5  0.2295023E-007  0.9363756E+03  0.7818608E-02  0.9469994E-01
         -2   -1    0    0    0  501 -0.00000000000E+00  0.00000000000E+00  0.89336576998E+03  0.89336576998E+03  0.25500000000E-02 0.  1.
          2   -1    0    0  501    0  0.00000000000E+00 -0.00000000000E+00 -0.10952418413E+04  0.10952418413E+04  0.25500000000E-02 0. -1.
    8880023    1    1    2    0    0 -0.66348780966E+03  0.52659415629E+02  0.45498265237E+03  0.10410612412E+04  0.65864270000E+03 0.  1.
    8880022    1    1    2    0    0  0.66348780966E+03 -0.52659415629E+02 -0.65685872369E+03  0.94754637012E+03  0.15294330000E+03 0.  0.
<mgrwt>
<rscale>  0 0.86532679E+03</rscale>
<asrwt>0</asrwt>
<pdfrwt beam="1">  1        2 0.16849874E+00 0.93637562E+03</pdfrwt>
<pdfrwt beam="2">  1       -2 0.13744089E+00 0.93637562E+03</pdfrwt>
<totfact> 0.82458936E+00</totfact>
</mgrwt>
</event>
<event>
 4    5  0.2295023E-007  0.7882258E+03  0.7818608E-02  0.9736857E-01
         -2   -1    0    0    0  501 -0.00000000000E+00  0.00000000000E+00  0.68122086367E+03  0.68122086367E+03  0.25500000000E-02 0.  1.
          2   -1    0    0  501    0  0.00000000000E+00 -0.00000000000E+00 -0.24657772323E+04  0.24657772323E+04  0.25500000000E-02 0. -1.
    8880023    1    1    2    0    0 -0.42849431944E+03 -0.62308525659E+02  0.42136605688E+03  0.89378369548E+03  0.65864270000E+03 0.  1.
    8880022    1    1    2    0    0  0.42849431944E+03  0.62308525659E+02 -0.22059224255E+04  0.22532144005E+04  0.15294330000E+03 0.  0.
<mgrwt>
<rscale>  0 0.68864084E+03</rscale>
<asrwt>0</asrwt>
<pdfrwt beam="1">  1        2 0.37935034E+00 0.78822582E+03</pdfrwt>
<pdfrwt beam="2">  1       -2 0.10480321E+00 0.78822582E+03</pdfrwt>
<totfact> 0.28035090E+00</totfact>
</mgrwt>
</event>
<event>
 4    5  0.2295023E-007  0.8535157E+03  0.7818608E-02  0.9605204E-01
         -2   -1    0    0    0  501 -0.00000000000E+00  0.00000000000E+00  0.31933485060E+03  0.31933485061E+03  0.25500000000E-02 0.  1.
          2   -1    0    0  501    0  0.00000000000E+00 -0.00000000000E+00 -0.24617988686E+04  0.24617988686E+04  0.25500000000E-02 0. -1.
    8880023    1    1    2    0    0  0.50721387427E+02 -0.54046841146E+03 -0.38673037724E+03  0.93704287729E+03  0.65864270000E+03 0.  1.
    8880022    1    1    2    0    0 -0.50721387427E+02  0.54046841146E+03 -0.17557336408E+04  0.18440908420E+04  0.15294330000E+03 0. -1.
<mgrwt>
<rscale>  0 0.76952729E+03</rscale>
<asrwt>0</asrwt>
<pdfrwt beam="1">  1        2 0.37873827E+00 0.85351565E+03</pdfrwt>
<pdfrwt beam="2">  1       -2 0.49128440E-01 0.85351565E+03</pdfrwt>
<totfact> 0.14802981E+01</totfact>
</mgrwt>
</event>
<event>
 4    5  0.2295023E-007  0.1229828E+04  0.7818608E-02  0.9128659E-01
         -2   -1    0    0    0  501 -0.00000000000E+00  0.00000000000E+00  0.23709422119E+04  0.23709422119E+04  0.25500000000E-02 0.  1.
          2   -1    0    0  501    0  0.00000000000E+00 -0.00000000000E+00 -0.10718395649E+04  0.10718395649E+04  0.25500000000E-02 0. -1.
    8880023    1    1    2    0    0  0.63228447758E+03  0.82394307854E+03  0.18773220119E+04  0.22442847413E+04  0.65864270000E+03 0.  0.
    8880022    1    1    2    0    0 -0.63228447758E+03 -0.82394307854E+03 -0.57821936491E+03  0.11984970356E+04  0.15294330000E+03 0. -1.
<mgrwt>
<rscale>  0 0.11821123E+04</rscale>
<asrwt>0</asrwt>
<pdfrwt beam="1">  1        2 0.16489839E+00 0.12298277E+04</pdfrwt>
<pdfrwt beam="2">  1       -2 0.36476034E+00 0.12298277E+04</pdfrwt>
<totfact> 0.27856424E-01</totfact>
</mgrwt>
</event>
<event>
 4    5  0.2295023E-007  0.9141069E+03  0.7818608E-02  0.9503755E-01
          2   -1    0    0  501    0  0.00000000000E+00  0.00000000000E+00  0.15749154038E+04  0.15749154038E+04  0.25500000000E-02 0. -1.
         -2   -1    0    0    0  501 -0.00000000000E+00 -0.00000000000E+00 -0.68671628974E+03  0.68671628974E+03  0.25500000000E-02 0.  1.
    8880023    1    1    2    0    0  0.11189868344E+02 -0.63376337605E+03 -0.25195266513E+03  0.94819385239E+03  0.65864270000E+03 0.  0.
    8880022    1    1    2    0    0 -0.11189868344E+02  0.63376337605E+03  0.11401517792E+04  0.13134378411E+04  0.15294330000E+03 0.  0.
<mgrwt>
<rscale>  0 0.84007573E+03</rscale>
<asrwt>0</asrwt>
<pdfrwt beam="1">  1        2 0.24229467E+00 0.91410691E+03</pdfrwt>
<pdfrwt beam="2">  1       -2 0.10564866E+00 0.91410691E+03</pdfrwt>
<totfact> 0.83848151E+00</totfact>
</mgrwt>
</event>
<event>
 4    5  0.2295023E-007  0.8330895E+03  0.7818608E-02  0.9643351E-01
         -2   -1    0    0    0  501 -0.00000000000E+00  0.00000000000E+00  0.79548557875E+03  0.79548557875E+03  0.25500000000E-02 0.  1.
          2   -1    0    0  501    0  0.00000000000E+00 -0.00000000000E+00 -0.12245537142E+04  0.12245537142E+04  0.25500000000E-02 0. -1.
    8880023    1    1    2    0    0  0.45987281283E+03 -0.22078232649E+03  0.48365510816E+03  0.96330696540E+03  0.65864270000E+03 0.  1.
    8880022    1    1    2    0    0 -0.45987281283E+03  0.22078232649E+03 -0.91272324361E+03  0.10567323276E+04  0.15294330000E+03 0.  0.
<mgrwt>
<rscale>  0 0.74492189E+03</rscale>
<asrwt>0</asrwt>
<pdfrwt beam="1">  1        2 0.18839288E+00 0.83308946E+03</pdfrwt>
<pdfrwt beam="2">  1       -2 0.12238240E+00 0.83308946E+03</pdfrwt>
<totfact> 0.93517771E+00</totfact>
</mgrwt>
</event>
<event>
 4    5  0.2295023E-007  0.1235382E+04  0.7818608E-02  0.9123473E-01
          2   -1    0    0  501    0  0.00000000000E+00  0.00000000000E+00  0.14355300233E+04  0.14355300233E+04  0.25500000000E-02 0. -1.
         -2   -1    0    0    0  501 -0.00000000000E+00 -0.00000000000E+00 -0.11976106555E+04  0.11976106555E+04  0.25500000000E-02 0.  1.
    8880023    1    1    2    0    0  0.80004020737E+03 -0.67252847894E+03 -0.51245323254E+03  0.13374518347E+04  0.65864270000E+03 0.  0.
    8880022    1    1    2    0    0 -0.80004020737E+03  0.67252847894E+03  0.75037260030E+03  0.12956888441E+04  0.15294330000E+03 0.  0.
<mgrwt>
<rscale>  0 0.11879465E+04</rscale>
<asrwt>0</asrwt>
<pdfrwt beam="1">  1        2 0.22085077E+00 0.12353822E+04</pdfrwt>
<pdfrwt beam="2">  1       -2 0.18424779E+00 0.12353822E+04</pdfrwt>
<totfact> 0.22638248E+00</totfact>
</mgrwt>
</event>
<event>
 4    5  0.2295023E-007  0.1232318E+04  0.7818608E-02  0.9126330E-01
         -2   -1    0    0    0  501 -0.00000000000E+00  0.00000000000E+00  0.43897192849E+03  0.43897192850E+03  0.25500000000E-02 0.  1.
          2   -1    0    0  501    0  0.00000000000E+00 -0.00000000000E+00 -0.38298396542E+04  0.38298396542E+04  0.25500000000E-02 0. -1.
    8880023    1    1    2    0    0  0.41354156733E+03 -0.95591834712E+03 -0.79212197698E+03  0.14649450321E+04  0.65864270000E+03 0.  0.
    8880022    1    1    2    0    0 -0.41354156733E+03  0.95591834712E+03 -0.25987457488E+04  0.28038665507E+04  0.15294330000E+03 0.  0.
<mgrwt>
<rscale>  0 0.11847281E+04</rscale>
<asrwt>0</asrwt>
<pdfrwt beam="1">  1        2 0.58920608E+00 0.12323176E+04</pdfrwt>
<pdfrwt beam="2">  1       -2 0.67534145E-01 0.12323176E+04</pdfrwt>
<totfact> 0.94491868E-01</totfact>
</mgrwt>
</event>
<event>
 4    5  0.2295023E-007  0.7752198E+03  0.7818608E-02  0.9767188E-01
         -2   -1    0    0    0  501 -0.00000000000E+00  0.00000000000E+00  0.13786050501E+04  0.13786050501E+04  0.25500000000E-02 0.  1.
          2   -1    0    0  501    0  0.00000000000E+00 -0.00000000000E+00 -0.18525348260E+04  0.18525348261E+04  0.25500000000E-02 0. -1.
    8880023    1    1    2    0    0  0.14381629904E+03  0.38271712075E+03  0.12400616714E+04  0.14624358712E+04  0.65864270000E+03 0.  1.
    8880022    1    1    2    0    0 -0.14381629904E+03 -0.38271712075E+03 -0.17139914473E+04  0.17687040049E+04  0.15294330000E+03 0.  0.
<mgrwt>
<rscale>  0 0.67153547E+03</rscale>
<asrwt>0</asrwt>
<pdfrwt beam="1">  1        2 0.28500536E+00 0.77521979E+03</pdfrwt>
<pdfrwt beam="2">  1       -2 0.21209308E+00 0.77521979E+03</pdfrwt>
<totfact> 0.92879922E-01</totfact>
</mgrwt>
</event>
<event>
 4    5  0.2295023E-007  0.9346867E+03  0.7818608E-02  0.9472498E-01
          2   -1    0    0  501    0  0.00000000000E+00  0.00000000000E+00  0.32860598260E+04  0.32860598260E+04  0.25500000000E-02 0. -1.
         -2   -1    0    0    0  501 -0.00000000000E+00 -0.00000000000E+00 -0.82019882676E+03  0.82019882676E+03  0.25500000000E-02 0.  1.
    8880023    1    1    2    0    0 -0.25912475322E+02  0.66268959273E+03 -0.50227263297E+03  0.10610923413E+04  0.65864270000E+03 0.  0.
    8880022    1    1    2    0    0  0.25912475322E+02 -0.66268959273E+03  0.29681336322E+04  0.30451663114E+04  0.15294330000E+03 0.  0.
<mgrwt>
<rscale>  0 0.86342182E+03</rscale>
<asrwt>0</asrwt>
<pdfrwt beam="1">  1        2 0.50554767E+00 0.93468666E+03</pdfrwt>
<pdfrwt beam="2">  1       -2 0.12618443E+00 0.93468666E+03</pdfrwt>
<totfact> 0.55298081E-01</totfact>
</mgrwt>
</event>
<event>
 4    5  0.2295023E-007  0.9730236E+03  0.7818608E-02  0.9417734E-01
          2   -1    0    0  501    0  0.00000000000E+00  0.00000000000E+00  0.10218859128E+04  0.10218859128E+04  0.25500000000E-02 0. -1.
         -2   -1    0    0    0  501 -0.00000000000E+00 -0.00000000000E+00 -0.15868405697E+04  0.15868405697E+04  0.25500000000E-02 0.  1.
    8880023    1    1    2    0    0 -0.14518673954E+03  0.70134545496E+03 -0.12647778501E+04  0.15957562010E+04  0.65864270000E+03 0.  0.
    8880022    1    1    2    0    0  0.14518673954E+03 -0.70134545496E+03  0.69982319318E+03  0.10129702815E+04  0.15294330000E+03 0.  0.
<mgrwt>
<rscale>  0 0.90630461E+03</rscale>
<asrwt>0</asrwt>
<pdfrwt beam="1">  1        2 0.15721322E+00 0.97302356E+03</pdfrwt>
<pdfrwt beam="2">  1       -2 0.24412932E+00 0.97302356E+03</pdfrwt>
<totfact> 0.17026504E+00</totfact>
</mgrwt>
</event>
<event>
 4    5  0.2295023E-007  0.9164886E+03  0.7818608E-02  0.9500064E-01
         -2   -1    0    0    0  501 -0.00000000000E+00  0.00000000000E+00  0.86217306151E+03  0.86217306151E+03  0.25500000000E-02 0.  1.
          2   -1    0    0  501    0  0.00000000000E+00 -0.00000000000E+00 -0.13290745654E+04  0.13290745654E+04  0.25500000000E-02 0. -1.
    8880023    1    1    2    0    0  0.50744780936E+03  0.38553570469E+03  0.48394461941E+03  0.10364138458E+04  0.65864270000E+03 0.  1.
    8880022    1    1    2    0    0 -0.50744780936E+03 -0.38553570469E+03 -0.95084612332E+03  0.11548337811E+04  0.15294330000E+03 0.  0.
<mgrwt>
<rscale>  0 0.84279085E+03</rscale>
<asrwt>0</asrwt>
<pdfrwt beam="1">  1        2 0.20447301E+00 0.91648855E+03</pdfrwt>
<pdfrwt beam="2">  1       -2 0.13264201E+00 0.91648855E+03</pdfrwt>
<totfact> 0.65700817E+00</totfact>
</mgrwt>
</event>
<event>
 4    5  0.2295023E-007  0.1551221E+04  0.7818608E-02  0.8874289E-01
         -2   -1    0    0    0  501 -0.00000000000E+00  0.00000000000E+00  0.20226552819E+04  0.20226552819E+04  0.25500000000E-02 0.  1.
          2   -1    0    0  501    0  0.00000000000E+00 -0.00000000000E+00 -0.12799586789E+04  0.12799586789E+04  0.25500000000E-02 0. -1.
    8880023    1    1    2    0    0 -0.12818003730E+03 -0.13985876541E+04 -0.25641235644E+03  0.15722706672E+04  0.65864270000E+03 0.  0.
    8880022    1    1    2    0    0  0.12818003730E+03  0.13985876541E+04  0.99910895937E+03  0.17303432936E+04  0.15294330000E+03 0.  0.
<mgrwt>
<rscale>  0 0.15153810E+04</rscale>
<asrwt>0</asrwt>
<pdfrwt beam="1">  1        2 0.19691672E+00 0.15512214E+04</pdfrwt>
<pdfrwt beam="2">  1       -2 0.31117773E+00 0.15512214E+04</pdfrwt>
<totfact> 0.43270591E-01</totfact>
</mgrwt>
</event>
<event>
 4    5  0.2295023E-007  0.1041740E+04  0.7818608E-02  0.9328877E-01
         -2   -1    0    0    0  501 -0.00000000000E+00  0.00000000000E+00  0.16480205463E+04  0.16480205463E+04  0.25500000000E-02 0.  1.
          2   -1    0    0  501    0  0.00000000000E+00 -0.00000000000E+00 -0.80291678610E+03  0.80291678611E+03  0.25500000000E-02 0. -1.
    8880023    1    1    2    0    0  0.78111473603E+03  0.20315590287E+03  0.11708899340E+04  0.15672287630E+04  0.65864270000E+03 0.  0.
    8880022    1    1    2    0    0 -0.78111473603E+03 -0.20315590287E+03 -0.32578617377E+03  0.88370856947E+03  0.15294330000E+03 0.  0.
<mgrwt>
<rscale>  0 0.98167291E+03</rscale>
<asrwt>0</asrwt>
<pdfrwt beam="1">  1        2 0.12352566E+00 0.10417403E+04</pdfrwt>
<pdfrwt beam="2">  1       -2 0.25354162E+00 0.10417403E+04</pdfrwt>
<totfact> 0.20806757E+00</totfact>
</mgrwt>
</event>
<event>
 4    5  0.2295023E-007  0.9710447E+03  0.7818608E-02  0.9420461E-01
         -2   -1    0    0    0  501 -0.00000000000E+00  0.00000000000E+00  0.11387831294E+04  0.11387831294E+04  0.25500000000E-02 0.  1.
          2   -1    0    0  501    0  0.00000000000E+00 -0.00000000000E+00 -0.17443455083E+04  0.17443455083E+04  0.25500000000E-02 0. -1.
    8880023    1    1    2    0    0 -0.43254940880E+03 -0.56746679395E+03  0.82695565012E+03  0.12754541963E+04  0.65864270000E+03 0.  1.
    8880022    1    1    2    0    0  0.43254940880E+03  0.56746679395E+03 -0.14325180290E+04  0.16076744415E+04  0.15294330000E+03 0.  0.
<mgrwt>
<rscale>  0 0.90410797E+03</rscale>
<asrwt>0</asrwt>
<pdfrwt beam="1">  1        2 0.26836085E+00 0.97104467E+03</pdfrwt>
<pdfrwt beam="2">  1       -2 0.17519740E+00 0.97104467E+03</pdfrwt>
<totfact> 0.18122115E+00</totfact>
</mgrwt>
</event>
<event>
 4    5  0.2295023E-007  0.8849008E+03  0.7818608E-02  0.9550719E-01
         -2   -1    0    0    0  501 -0.00000000000E+00  0.00000000000E+00  0.99164371492E+03  0.99164371492E+03  0.25500000000E-02 0.  1.
          2   -1    0    0  501    0  0.00000000000E+00 -0.00000000000E+00 -0.24743048016E+04  0.24743048016E+04  0.25500000000E-02 0. -1.
    8880023    1    1    2    0    0  0.39393348777E+03 -0.44051751983E+03  0.74463456191E+03  0.11565163704E+04  0.65864270000E+03 0.  0.
    8880022    1    1    2    0    0 -0.39393348777E+03  0.44051751983E+03 -0.22272956486E+04  0.23094321460E+04  0.15294330000E+03 0.  0.
<mgrwt>
<rscale>  0 0.80645626E+03</rscale>
<asrwt>0</asrwt>
<pdfrwt beam="1">  1        2 0.38066228E+00 0.88490083E+03</pdfrwt>
<pdfrwt beam="2">  1       -2 0.15256057E+00 0.88490083E+03</pdfrwt>
<totfact> 0.10572567E+00</totfact>
</mgrwt>
</event>
<event>
 4    5  0.2295023E-007  0.1005395E+04  0.7818608E-02  0.9374534E-01
          2   -1    0    0  501    0  0.00000000000E+00  0.00000000000E+00  0.79059627627E+03  0.79059627628E+03  0.25500000000E-02 0. -1.
         -2   -1    0    0    0  501 -0.00000000000E+00 -0.00000000000E+00 -0.14111821346E+04  0.14111821346E+04  0.25500000000E-02 0.  1.
    8880023    1    1    2    0    0 -0.21469132038E+03  0.72863977748E+03 -0.92796020115E+03  0.13681844282E+04  0.65864270000E+03 0.  0.
    8880022    1    1    2    0    0  0.21469132038E+03 -0.72863977748E+03  0.30737434281E+03  0.83359398270E+03  0.15294330000E+03 0.  0.
<mgrwt>
<rscale>  0 0.94201436E+03</rscale>
<asrwt>0</asrwt>
<pdfrwt beam="1">  1        2 0.12163020E+00 0.10053947E+04</pdfrwt>
<pdfrwt beam="2">  1       -2 0.21710494E+00 0.10053947E+04</pdfrwt>
<totfact> 0.35848908E+00</totfact>
</mgrwt>
</event>
<event>
 4    5  0.2295023E-007  0.7183271E+03  0.7818608E-02  0.9928288E-01
         -2   -1    0    0    0  501 -0.00000000000E+00  0.00000000000E+00  0.29669063989E+03  0.29669063990E+03  0.25500000000E-02 0.  1.
          2   -1    0    0  501    0  0.00000000000E+00 -0.00000000000E+00 -0.29998098770E+04  0.29998098770E+04  0.25500000000E-02 0. -1.
    8880023    1    1    2    0    0 -0.27970104734E+03  0.62855977373E+02 -0.16417492815E+03  0.73684948468E+03  0.65864270000E+03 0.  1.
    8880022    1    1    2    0    0  0.27970104734E+03 -0.62855977373E+02 -0.25389443089E+04  0.25596510322E+04  0.15294330000E+03 0.  0.
<mgrwt>
<rscale>  0 0.58909713E+03</rscale>
<asrwt>0</asrwt>
<pdfrwt beam="1">  1        2 0.46150919E+00 0.71832705E+03</pdfrwt>
<pdfrwt beam="2">  1       -2 0.45644716E-01 0.71832705E+03</pdfrwt>
<totfact> 0.84842969E+00</totfact>
</mgrwt>
</event>
<event>
 4    5  0.2295023E-007  0.8791175E+03  0.7818608E-02  0.9560422E-01
          2   -1    0    0  501    0  0.00000000000E+00  0.00000000000E+00  0.21685347156E+04  0.21685347156E+04  0.25500000000E-02 0. -1.
         -2   -1    0    0    0  501 -0.00000000000E+00 -0.00000000000E+00 -0.43499269300E+03  0.43499269301E+03  0.25500000000E-02 0.  1.
    8880023    1    1    2    0    0 -0.50515351528E+03 -0.28958117499E+03  0.12744368654E+03  0.88830705863E+03  0.65864270000E+03 0.  1.
    8880022    1    1    2    0    0  0.50515351528E+03  0.28958117499E+03  0.16060983361E+04  0.17152203500E+04  0.15294330000E+03 0.  0.
<mgrwt>
<rscale>  0 0.79972017E+03</rscale>
<asrwt>0</asrwt>
<pdfrwt beam="1">  1        2 0.33362073E+00 0.87911748E+03</pdfrwt>
<pdfrwt beam="2">  1       -2 0.66921953E-01 0.87911748E+03</pdfrwt>
<totfact> 0.11252035E+01</totfact>
</mgrwt>
</event>
<event>
 4    5  0.2295023E-007  0.1132716E+04  0.7818608E-02  0.9225476E-01
         -2   -1    0    0    0  501 -0.00000000000E+00  0.00000000000E+00  0.53534125085E+03  0.53534125085E+03  0.25500000000E-02 0.  1.
          2   -1    0    0  501    0  0.00000000000E+00 -0.00000000000E+00 -0.29095022221E+04  0.29095022221E+04  0.25500000000E-02 0. -1.
    8880023    1    1    2    0    0 -0.76329462028E+03  0.51634984518E+03 -0.30265706506E+03  0.11724535578E+04  0.65864270000E+03 0.  1.
    8880022    1    1    2    0    0  0.76329462028E+03 -0.51634984518E+03 -0.20715039062E+04  0.22723899151E+04  0.15294330000E+03 0.  0.
<mgrwt>
<rscale>  0 0.10794299E+04</rscale>
<asrwt>0</asrwt>
<pdfrwt beam="1">  1        2 0.44761572E+00 0.11327162E+04</pdfrwt>
<pdfrwt beam="2">  1       -2 0.82360194E-01 0.11327162E+04</pdfrwt>
<totfact> 0.25661848E+00</totfact>
</mgrwt>
</event>
<event>
 4    5  0.2295023E-007  0.6663178E+03  0.7818608E-02  0.1018453E+00
         -2   -1    0    0    0  501 -0.00000000000E+00  0.00000000000E+00  0.13460986823E+04  0.13460986823E+04  0.25500000000E-02 0.  1.
          2   -1    0    0  501    0  0.00000000000E+00 -0.00000000000E+00 -0.18681332008E+04  0.18681332008E+04  0.25500000000E-02 0. -1.
    8880023    1    1    2    0    0  0.17953328284E+02 -0.99231291076E+02  0.12586537417E+04  0.14241448729E+04  0.65864270000E+03 0.  0.
    8880022    1    1    2    0    0 -0.17953328284E+02  0.99231291076E+02 -0.17806882602E+04  0.17900870102E+04  0.15294330000E+03 0. -1.
<mgrwt>
<rscale>  0 0.48249201E+03</rscale>
<asrwt>0</asrwt>
<pdfrwt beam="1">  1        2 0.28740511E+00 0.66631778E+03</pdfrwt>
<pdfrwt beam="2">  1       -2 0.20709211E+00 0.66631778E+03</pdfrwt>
<totfact> 0.10030869E+00</totfact>
</mgrwt>
</event>
<event>
 4    5  0.2295023E-007  0.8597974E+03  0.7818608E-02  0.9593924E-01
         -2   -1    0    0    0  501 -0.00000000000E+00  0.00000000000E+00  0.20809667090E+04  0.20809667090E+04  0.25500000000E-02 0.  1.
          2   -1    0    0  501    0  0.00000000000E+00 -0.00000000000E+00 -0.10200024933E+04  0.10200024933E+04  0.25500000000E-02 0. -1.
    8880023    1    1    2    0    0 -0.27813039045E+03  0.47758223217E+03  0.18995443397E+04  0.20850707920E+04  0.65864270000E+03 0.  0.
    8880022    1    1    2    0    0  0.27813039045E+03 -0.47758223217E+03 -0.83858012407E+03  0.10158984103E+04  0.15294330000E+03 0.  0.
<mgrwt>
<rscale>  0 0.77699639E+03</rscale>
<asrwt>0</asrwt>
<pdfrwt beam="1">  1        2 0.15692346E+00 0.85979736E+03</pdfrwt>
<pdfrwt beam="2">  1       -2 0.32014872E+00 0.85979736E+03</pdfrwt>
<totfact> 0.60195331E-01</totfact>
</mgrwt>
</event>
<event>
 4    5  0.2295023E-007  0.9365665E+03  0.7818608E-02  0.9469711E-01
          2   -1    0    0  501    0  0.00000000000E+00  0.00000000000E+00  0.10296821978E+04  0.10296821978E+04  0.25500000000E-02 0. -1.
         -2   -1    0    0    0  501 -0.00000000000E+00 -0.00000000000E+00 -0.86664628487E+03  0.86664628488E+03  0.25500000000E-02 0.  1.
    8880023    1    1    2    0    0 -0.56600168542E+03 -0.35069750477E+03  0.57457405243E+03  0.10987684905E+04  0.65864270000E+03 0. -1.
    8880022    1    1    2    0    0  0.56600168542E+03  0.35069750477E+03 -0.41153813953E+03  0.79755999214E+03  0.15294330000E+03 0.  0.
<mgrwt>
<rscale>  0 0.86554201E+03</rscale>
<asrwt>0</asrwt>
<pdfrwt beam="1">  1        2 0.15841265E+00 0.93656652E+03</pdfrwt>
<pdfrwt beam="2">  1       -2 0.13333020E+00 0.93656652E+03</pdfrwt>
<totfact> 0.97968271E+00</totfact>
</mgrwt>
</event>
<event>
 4    5  0.2295023E-007  0.1136516E+04  0.7818608E-02  0.9221450E-01
          2   -1    0    0  501    0  0.00000000000E+00  0.00000000000E+00  0.16825622937E+04  0.16825622937E+04  0.25500000000E-02 0. -1.
         -2   -1    0    0    0  501 -0.00000000000E+00 -0.00000000000E+00 -0.13774594997E+04  0.13774594997E+04  0.25500000000E-02 0.  1.
    8880023    1    1    2    0    0 -0.28025258248E+02  0.92578184462E+03 -0.95790303260E+03  0.14863532101E+04  0.65864270000E+03 0.  1.
    8880022    1    1    2    0    0  0.28025258248E+02 -0.92578184462E+03  0.12630058266E+04  0.15736685833E+04  0.15294330000E+03 0.  0.
<mgrwt>
<rscale>  0 0.10834750E+04</rscale>
<asrwt>0</asrwt>
<pdfrwt beam="1">  1        2 0.25885574E+00 0.11365156E+04</pdfrwt>
<pdfrwt beam="2">  1       -2 0.21191685E+00 0.11365156E+04</pdfrwt>
<totfact> 0.10914361E+00</totfact>
</mgrwt>
</event>
<event>
 4    5  0.2295023E-007  0.1291324E+04  0.7818608E-02  0.9073088E-01
         -2   -1    0    0    0  501 -0.00000000000E+00  0.00000000000E+00  0.12684762045E+04  0.12684762045E+04  0.25500000000E-02 0.  1.
          2   -1    0    0  501    0  0.00000000000E+00 -0.00000000000E+00 -0.17045415714E+04  0.17045415715E+04  0.25500000000E-02 0. -1.
    8880023    1    1    2    0    0  0.76340752673E+03  0.80679451416E+03  0.62028113646E+03  0.14325736751E+04  0.65864270000E+03 0.  0.
    8880022    1    1    2    0    0 -0.76340752673E+03 -0.80679451416E+03 -0.10563465034E+04  0.15404441009E+04  0.15294330000E+03 0.  0.
<mgrwt>
<rscale>  0 0.12465157E+04</rscale>
<asrwt>0</asrwt>
<pdfrwt beam="1">  1        2 0.26223717E+00 0.12913244E+04</pdfrwt>
<pdfrwt beam="2">  1       -2 0.19515018E+00 0.12913244E+04</pdfrwt>
<totfact> 0.13409068E+00</totfact>
</mgrwt>
</event>
<event>
 4    5  0.2295023E-007  0.2021145E+04  0.7818608E-02  0.8609163E-01
          2   -1    0    0  501    0  0.00000000000E+00  0.00000000000E+00  0.28724342170E+04  0.28724342170E+04  0.25500000000E-02 0. -1.
         -2   -1    0    0    0  501 -0.00000000000E+00 -0.00000000000E+00 -0.19440385245E+04  0.19440385245E+04  0.25500000000E-02 0.  1.
    8880023    1    1    2    0    0  0.19095914857E+04  0.68381641979E+02 -0.85844892161E+03  0.21958962746E+04  0.65864270000E+03 0.  0.
    8880022    1    1    2    0    0 -0.19095914857E+04 -0.68381641979E+02  0.17868446141E+04  0.26205764670E+04  0.15294330000E+03 0.  0.
<mgrwt>
<rscale>  0 0.19945706E+04</rscale>
<asrwt>0</asrwt>
<pdfrwt beam="1">  1        2 0.44191295E+00 0.20211447E+04</pdfrwt>
<pdfrwt beam="2">  1       -2 0.29908285E+00 0.20211447E+04</pdfrwt>
<totfact> 0.59392217E-02</totfact>
</mgrwt>
</event>
<event>
 4    5  0.2295023E-007  0.8668496E+03  0.7818608E-02  0.9581494E-01
         -2   -1    0    0    0  501 -0.00000000000E+00  0.00000000000E+00  0.22202052526E+03  0.22202052527E+03  0.25500000000E-02 0.  1.
          2   -1    0    0  501    0  0.00000000000E+00 -0.00000000000E+00 -0.33002480904E+04  0.33002480904E+04  0.25500000000E-02 0. -1.
    8880023    1    1    2    0    0 -0.39966765629E+03 -0.39734583189E+03 -0.83253012228E+03  0.12018879134E+04  0.65864270000E+03 0.  0.
    8880022    1    1    2    0    0  0.39966765629E+03  0.39734583189E+03 -0.22456974428E+04  0.23203807022E+04  0.15294330000E+03 0.  0.
<mgrwt>
<rscale>  0 0.78533260E+03</rscale>
<asrwt>0</asrwt>
<pdfrwt beam="1">  1        2 0.50773044E+00 0.86684956E+03</pdfrwt>
<pdfrwt beam="2">  1       -2 0.34157006E-01 0.86684956E+03</pdfrwt>
<totfact> 0.93950180E+00</totfact>
</mgrwt>
</event>
<event>
 4    5  0.2295023E-007  0.1001011E+04  0.7818608E-02  0.9380236E-01
         -2   -1    0    0    0  501 -0.00000000000E+00  0.00000000000E+00  0.10927663758E+04  0.10927663758E+04  0.25500000000E-02 0.  1.
          2   -1    0    0  501    0  0.00000000000E+00 -0.00000000000E+00 -0.16066635947E+04  0.16066635947E+04  0.25500000000E-02 0. -1.
    8880023    1    1    2    0    0 -0.55920198842E+03 -0.50547676298E+03  0.72862194119E+03  0.12381089456E+04  0.65864270000E+03 0.  0.
    8880022    1    1    2    0    0  0.55920198842E+03  0.50547676298E+03 -0.12425191601E+04  0.14613210249E+04  0.15294330000E+03 0.  0.
<mgrwt>
<rscale>  0 0.93720214E+03</rscale>
<asrwt>0</asrwt>
<pdfrwt beam="1">  1        2 0.24717902E+00 0.10010114E+04</pdfrwt>
<pdfrwt beam="2">  1       -2 0.16811790E+00 0.10010114E+04</pdfrwt>
<totfact> 0.24141976E+00</totfact>
</mgrwt>
</event>
<event>
 4    5  0.2295023E-007  0.9604192E+03  0.7818608E-02  0.9435279E-01
         -2   -1    0    0    0  501 -0.00000000000E+00  0.00000000000E+00  0.48513988196E+03  0.48513988197E+03  0.25500000000E-02 0.  1.
          2   -1    0    0  501    0  0.00000000000E+00 -0.00000000000E+00 -0.30857670529E+04  0.30857670529E+04  0.25500000000E-02 0. -1.
    8880023    1    1    2    0    0  0.67701197906E+03  0.17392408481E+03 -0.94990353507E+02  0.96510526918E+03  0.65864270000E+03 0.  1.
    8880022    1    1    2    0    0 -0.67701197906E+03 -0.17392408481E+03 -0.25056368174E+04  0.26058016657E+04  0.15294330000E+03 0.  0.
<mgrwt>
<rscale>  0 0.89228364E+03</rscale>
<asrwt>0</asrwt>
<pdfrwt beam="1">  1        2 0.47473338E+00 0.96041919E+03</pdfrwt>
<pdfrwt beam="2">  1       -2 0.74636907E-01 0.96041919E+03</pdfrwt>
<totfact> 0.25553746E+00</totfact>
</mgrwt>
</event>
<event>
 4    5  0.2295023E-007  0.6647573E+03  0.7818608E-02  0.1019738E+00
         -2   -1    0    0    0  501 -0.00000000000E+00  0.00000000000E+00  0.55476090179E+03  0.55476090180E+03  0.25500000000E-02 0.  1.
          2   -1    0    0  501    0  0.00000000000E+00 -0.00000000000E+00 -0.26318657567E+04  0.26318657567E+04  0.25500000000E-02 0. -1.
    8880023    1    1    2    0    0 -0.57334412380E+02 -0.69317163872E+02  0.35121422379E+03  0.75183358618E+03  0.65864270000E+03 0.  1.
    8880022    1    1    2    0    0  0.57334412380E+02  0.69317163872E+02 -0.24283190787E+04  0.24347930723E+04  0.15294330000E+03 0.  0.
<mgrwt>
<rscale>  0 0.47781323E+03</rscale>
<asrwt>0</asrwt>
<pdfrwt beam="1">  1        2 0.40490242E+00 0.66475733E+03</pdfrwt>
<pdfrwt beam="2">  1       -2 0.85347833E-01 0.66475733E+03</pdfrwt>
<totfact> 0.37317926E+00</totfact>
</mgrwt>
</event>
<event>
 4    5  0.2295023E-007  0.1081979E+04  0.7818608E-02  0.9281391E-01
          2   -1    0    0  501    0  0.00000000000E+00  0.00000000000E+00  0.24472115995E+04  0.24472115995E+04  0.25500000000E-02 0. -1.
         -2   -1    0    0    0  501 -0.00000000000E+00 -0.00000000000E+00 -0.78926096872E+03  0.78926096873E+03  0.25500000000E-02 0.  1.
    8880023    1    1    2    0    0 -0.50917574639E+03  0.69109157967E+03 -0.27464113941E+03  0.11162909450E+04  0.65864270000E+03 0.  0.
    8880022    1    1    2    0    0  0.50917574639E+03 -0.69109157967E+03  0.19325917702E+04  0.21201816232E+04  0.15294330000E+03 0.  0.
<mgrwt>
<rscale>  0 0.10251424E+04</rscale>
<asrwt>0</asrwt>
<pdfrwt beam="1">  1        2 0.37649408E+00 0.10819786E+04</pdfrwt>
<pdfrwt beam="2">  1       -2 0.12142477E+00 0.10819786E+04</pdfrwt>
<totfact> 0.19153015E+00</totfact>
</mgrwt>
</event>
<event>
 4    5  0.2295023E-007  0.7654639E+03  0.7818608E-02  0.9791162E-01
         -2   -1    0    0    0  501 -0.00000000000E+00  0.00000000000E+00  0.23143940964E+03  0.23143940965E+03  0.25500000000E-02 0.  1.
          2   -1    0    0  501    0  0.00000000000E+00 -0.00000000000E+00 -0.18913818425E+04  0.18913818425E+04  0.25500000000E-02 0. -1.
    8880023    1    1    2    0    0  0.37867666554E+03  0.93427949463E+02 -0.56775012187E+03  0.95303473489E+03  0.65864270000E+03 0.  0.
    8880022    1    1    2    0    0 -0.37867666554E+03 -0.93427949463E+02 -0.10921923110E+04  0.11697865173E+04  0.15294330000E+03 0.  0.
<mgrwt>
<rscale>  0 0.65839007E+03</rscale>
<asrwt>0</asrwt>
<pdfrwt beam="1">  1        2 0.29098181E+00 0.76546391E+03</pdfrwt>
<pdfrwt beam="2">  1       -2 0.35606064E-01 0.76546391E+03</pdfrwt>
<totfact> 0.58348823E+01</totfact>
</mgrwt>
</event>
<event>
 4    5  0.2295023E-007  0.1015089E+04  0.7818608E-02  0.9362077E-01
          2   -1    0    0  501    0  0.00000000000E+00  0.00000000000E+00  0.73009721414E+03  0.73009721414E+03  0.25500000000E-02 0. -1.
         -2   -1    0    0    0  501 -0.00000000000E+00 -0.00000000000E+00 -0.21935623799E+04  0.21935623799E+04  0.25500000000E-02 0.  1.
    8880023    1    1    2    0    0  0.30048814529E+03  0.71154949970E+03 -0.18006859462E+04  0.20670935874E+04  0.65864270000E+03 0.  0.
    8880022    1    1    2    0    0 -0.30048814529E+03 -0.71154949970E+03  0.33722078043E+03  0.85656600665E+03  0.15294330000E+03 0.  0.
<mgrwt>
<rscale>  0 0.95263385E+03</rscale>
<asrwt>0</asrwt>
<pdfrwt beam="1">  1        2 0.11232265E+00 0.10150892E+04</pdfrwt>
<pdfrwt beam="2">  1       -2 0.33747113E+00 0.10150892E+04</pdfrwt>
<totfact> 0.73023885E-01</totfact>
</mgrwt>
</event>
<event>
 4    5  0.2295023E-007  0.1247992E+04  0.7818608E-02  0.9111826E-01
          2   -1    0    0  501    0  0.00000000000E+00  0.00000000000E+00  0.29291961856E+04  0.29291961856E+04  0.25500000000E-02 0. -1.
         -2   -1    0    0    0  501 -0.00000000000E+00 -0.00000000000E+00 -0.71703291349E+03  0.71703291350E+03  0.25500000000E-02 0.  1.
    8880023    1    1    2    0    0  0.75672280359E+03 -0.74232317836E+03  0.68455547245E+02  0.12498677813E+04  0.65864270000E+03 0.  0.
    8880022    1    1    2    0    0 -0.75672280359E+03  0.74232317836E+03  0.21437077249E+04  0.23963613178E+04  0.15294330000E+03 0.  0.
<mgrwt>
<rscale>  0 0.12011777E+04</rscale>
<asrwt>0</asrwt>
<pdfrwt beam="1">  1        2 0.45064557E+00 0.12479917E+04</pdfrwt>
<pdfrwt beam="2">  1       -2 0.11031276E+00 0.12479917E+04</pdfrwt>
<totfact> 0.12347635E+00</totfact>
</mgrwt>
</event>
<event>
 4    5  0.2295023E-007  0.9688824E+03  0.7818608E-02  0.9423452E-01
          2   -1    0    0  501    0  0.00000000000E+00  0.00000000000E+00  0.22980200004E+04  0.22980200004E+04  0.25500000000E-02 0. -1.
         -2   -1    0    0    0  501 -0.00000000000E+00 -0.00000000000E+00 -0.67582455453E+03  0.67582455454E+03  0.25500000000E-02 0.  1.
    8880023    1    1    2    0    0  0.36500507083E+03  0.60966732900E+03 -0.21990894433E+03  0.99352559295E+03  0.65864270000E+03 0.  1.
    8880022    1    1    2    0    0 -0.36500507083E+03 -0.60966732900E+03  0.18421043902E+04  0.19803189620E+04  0.15294330000E+03 0.  0.
<mgrwt>
<rscale>  0 0.90170585E+03</rscale>
<asrwt>0</asrwt>
<pdfrwt beam="1">  1        2 0.35354154E+00 0.96888243E+03</pdfrwt>
<pdfrwt beam="2">  1       -2 0.10397301E+00 0.96888243E+03</pdfrwt>
<totfact> 0.34515613E+00</totfact>
</mgrwt>
</event>
<event>
 4    5  0.2295023E-007  0.1980558E+04  0.7818608E-02  0.8628730E-01
         -2   -1    0    0    0  501 -0.00000000000E+00  0.00000000000E+00  0.16687992212E+04  0.16687992212E+04  0.25500000000E-02 0.  1.
          2   -1    0    0  501    0  0.00000000000E+00 -0.00000000000E+00 -0.27410387056E+04  0.27410387056E+04  0.25500000000E-02 0. -1.
    8880023    1    1    2    0    0  0.50202853196E+03  0.17991016401E+04  0.40743250620E+03  0.20220313577E+04  0.65864270000E+03 0.  0.
    8880022    1    1    2    0    0 -0.50202853196E+03 -0.17991016401E+04 -0.14796719906E+04  0.23878065690E+04  0.15294330000E+03 0.  0.
<mgrwt>
<rscale>  0 0.19533853E+04</rscale>
<asrwt>0</asrwt>
<pdfrwt beam="1">  1        2 0.42169826E+00 0.19805579E+04</pdfrwt>
<pdfrwt beam="2">  1       -2 0.25673834E+00 0.19805579E+04</pdfrwt>
<totfact> 0.13047681E-01</totfact>
</mgrwt>
</event>
<event>
 4    5  0.2295023E-007  0.7352381E+03  0.7818608E-02  0.9874042E-01
          2   -1    0    0  501    0  0.00000000000E+00  0.00000000000E+00  0.17289580662E+04  0.17289580662E+04  0.25500000000E-02 0. -1.
         -2   -1    0    0    0  501 -0.00000000000E+00 -0.00000000000E+00 -0.81852470942E+03  0.81852470942E+03  0.25500000000E-02 0.  1.
    8880023    1    1    2    0    0  0.35321353715E+02 -0.32483422489E+03 -0.62823477160E+03  0.96708531485E+03  0.65864270000E+03 0.  1.
    8880022    1    1    2    0    0 -0.35321353715E+02  0.32483422489E+03  0.15386681284E+04  0.15803974608E+04  0.15294330000E+03 0.  0.
<mgrwt>
<rscale>  0 0.61535998E+03</rscale>
<asrwt>0</asrwt>
<pdfrwt beam="1">  1        2 0.26599355E+00 0.73523811E+03</pdfrwt>
<pdfrwt beam="2">  1       -2 0.12592688E+00 0.73523811E+03</pdfrwt>
<totfact> 0.45923843E+00</totfact>
</mgrwt>
</event>
<event>
 4    5  0.2295023E-007  0.6908422E+03  0.7818608E-02  0.1003755E+00
          2   -1    0    0  501    0  0.00000000000E+00  0.00000000000E+00  0.12856051805E+04  0.12856051805E+04  0.25500000000E-02 0. -1.
         -2   -1    0    0    0  501 -0.00000000000E+00 -0.00000000000E+00 -0.52656701605E+03  0.52656701606E+03  0.25500000000E-02 0.  1.
    8880023    1    1    2    0    0 -0.19145106403E+03 -0.82457050978E+02 -0.27704120961E+03  0.74432164637E+03  0.65864270000E+03 0.  1.
    8880022    1    1    2    0    0  0.19145106403E+03  0.82457050978E+02  0.10360793740E+04  0.10678505501E+04  0.15294330000E+03 0.  0.
<mgrwt>
<rscale>  0 0.54034009E+03</rscale>
<asrwt>0</asrwt>
<pdfrwt beam="1">  1        2 0.19778541E+00 0.69084215E+03</pdfrwt>
<pdfrwt beam="2">  1       -2 0.81010311E-01 0.69084215E+03</pdfrwt>
<totfact> 0.23267272E+01</totfact>
</mgrwt>
</event>
<event>
 4    5  0.2295023E-007  0.8462819E+03  0.7818608E-02  0.9618447E-01
         -2   -1    0    0    0  501 -0.00000000000E+00  0.00000000000E+00  0.43000999586E+03  0.43000999586E+03  0.25500000000E-02 0.  1.
          2   -1    0    0  501    0  0.00000000000E+00 -0.00000000000E+00 -0.36867009027E+04  0.36867009027E+04  0.25500000000E-02 0. -1.
    8880023    1    1    2    0    0 -0.36517860332E+03  0.38604072974E+03 -0.34043743373E+02  0.84696637482E+03  0.65864270000E+03 0.  0.
    8880022    1    1    2    0    0  0.36517860332E+03 -0.38604072974E+03 -0.32226471634E+04  0.32697445237E+04  0.15294330000E+03 0.  0.
<mgrwt>
<rscale>  0 0.76087174E+03</rscale>
<asrwt>0</asrwt>
<pdfrwt beam="1">  1        2 0.56718473E+00 0.84628191E+03</pdfrwt>
<pdfrwt beam="2">  1       -2 0.66155386E-01 0.84628191E+03</pdfrwt>
<totfact> 0.13468103E+00</totfact>
</mgrwt>
</event>
<event>
 4    5  0.2295023E-007  0.2218198E+04  0.7818608E-02  0.8520855E-01
         -2   -1    0    0    0  501 -0.00000000000E+00  0.00000000000E+00  0.14081698852E+04  0.14081698852E+04  0.25500000000E-02 0.  1.
          2   -1    0    0  501    0  0.00000000000E+00 -0.00000000000E+00 -0.42235309436E+04  0.42235309436E+04  0.25500000000E-02 0. -1.
    8880023    1    1    2    0    0  0.17941357201E+04 -0.11259084170E+04 -0.27146101054E+04  0.35056398811E+04  0.65864270000E+03 0.  0.
    8880022    1    1    2    0    0 -0.17941357201E+04  0.11259084170E+04 -0.10075095312E+03  0.21260609477E+04  0.15294330000E+03 0.  0.
<mgrwt>
<rscale>  0 0.21941794E+04</rscale>
<asrwt>0</asrwt>
<pdfrwt beam="1">  1        2 0.64977399E+00 0.22181981E+04</pdfrwt>
<pdfrwt beam="2">  1       -2 0.21664152E+00 0.22181981E+04</pdfrwt>
<totfact> 0.20121197E-02</totfact>
</mgrwt>
</event>
<event>
 4    5  0.2295023E-007  0.1140025E+04  0.7818608E-02  0.9217749E-01
          2   -1    0    0  501    0  0.00000000000E+00  0.00000000000E+00  0.15256249445E+04  0.15256249445E+04  0.25500000000E-02 0. -1.
         -2   -1    0    0    0  501 -0.00000000000E+00 -0.00000000000E+00 -0.76910789850E+03  0.76910789851E+03  0.25500000000E-02 0.  1.
    8880023    1    1    2    0    0 -0.49773821786E+03 -0.78619585806E+03  0.97309742826E+02  0.11441707272E+04  0.65864270000E+03 0.  1.
    8880022    1    1    2    0    0  0.49773821786E+03  0.78619585806E+03  0.65920730321E+03  0.11505621158E+04  0.15294330000E+03 0.  0.
<mgrwt>
<rscale>  0 0.10872093E+04</rscale>
<asrwt>0</asrwt>
<pdfrwt beam="1">  1        2 0.23471153E+00 0.11400252E+04</pdfrwt>
<pdfrwt beam="2">  1       -2 0.11832429E+00 0.11400252E+04</pdfrwt>
<totfact> 0.66197948E+00</totfact>
</mgrwt>
</event>
<event>
 4    5  0.2295023E-007  0.9144665E+03  0.7818608E-02  0.9503196E-01
          2   -1    0    0  501    0  0.00000000000E+00  0.00000000000E+00  0.15974201617E+04  0.15974201617E+04  0.25500000000E-02 0. -1.
         -2   -1    0    0    0  501 -0.00000000000E+00 -0.00000000000E+00 -0.55225404126E+03  0.55225404126E+03  0.25500000000E-02 0.  1.
    8880023    1    1    2    0    0  0.56042460657E+03  0.29725905602E+03  0.11703176108E+04  0.14852246303E+04  0.65864270000E+03 0.  0.
    8880022    1    1    2    0    0 -0.56042460657E+03 -0.29725905602E+03 -0.12515149038E+03  0.66444957265E+03  0.15294330000E+03 0.  0.
<mgrwt>
<rscale>  0 0.84048585E+03</rscale>
<asrwt>0</asrwt>
<pdfrwt beam="1">  1        2 0.24575695E+00 0.91446645E+03</pdfrwt>
<pdfrwt beam="2">  1       -2 0.84962161E-01 0.91446645E+03</pdfrwt>
<totfact> 0.13579924E+01</totfact>
</mgrwt>
</event>
<event>
 4    5  0.2295023E-007  0.7183453E+03  0.7818608E-02  0.9928225E-01
          2   -1    0    0  501    0  0.00000000000E+00  0.00000000000E+00  0.32785761748E+04  0.32785761748E+04  0.25500000000E-02 0. -1.
         -2   -1    0    0    0  501 -0.00000000000E+00 -0.00000000000E+00 -0.19220577211E+03  0.19220577212E+03  0.25500000000E-02 0.  1.
    8880023    1    1    2    0    0 -0.11852108101E+03  0.26107954943E+03  0.52715541853E+03  0.89101785578E+03  0.65864270000E+03 0.  1.
    8880022    1    1    2    0    0  0.11852108101E+03 -0.26107954943E+03  0.25592149842E+04  0.25797640912E+04  0.15294330000E+03 0.  0.
<mgrwt>
<rscale>  0 0.58912665E+03</rscale>
<asrwt>0</asrwt>
<pdfrwt beam="1">  1        2 0.50439634E+00 0.71834531E+03</pdfrwt>
<pdfrwt beam="2">  1       -2 0.29570119E-01 0.71834531E+03</pdfrwt>
<totfact> 0.13052248E+01</totfact>
</mgrwt>
</event>
<event>
 4    5  0.2295023E-007  0.8701738E+03  0.7818608E-02  0.9575716E-01
         -2   -1    0    0    0  501 -0.00000000000E+00  0.00000000000E+00  0.58491384612E+03  0.58491384612E+03  0.25500000000E-02 0.  1.
          2   -1    0    0  501    0  0.00000000000E+00 -0.00000000000E+00 -0.27714231148E+04  0.27714231148E+04  0.25500000000E-02 0. -1.
    8880023    1    1    2    0    0 -0.56414088897E+03 -0.71674793391E+02  0.20449690757E+03  0.89387997521E+03  0.65864270000E+03 0.  1.
    8880022    1    1    2    0    0  0.56414088897E+03  0.71674793391E+02 -0.23910061762E+04  0.24624569857E+04  0.15294330000E+03 0.  0.
<mgrwt>
<rscale>  0 0.78924504E+03</rscale>
<asrwt>0</asrwt>
<pdfrwt beam="1">  1        2 0.42637278E+00 0.87017379E+03</pdfrwt>
<pdfrwt beam="2">  1       -2 0.89986747E-01 0.87017379E+03</pdfrwt>
<totfact> 0.26352558E+00</totfact>
</mgrwt>
</event>
<event>
 4    5  0.2295023E-007  0.9705019E+03  0.7818608E-02  0.9421210E-01
         -2   -1    0    0    0  501 -0.00000000000E+00  0.00000000000E+00  0.51181617275E+03  0.51181617276E+03  0.25500000000E-02 0.  1.
          2   -1    0    0  501    0  0.00000000000E+00 -0.00000000000E+00 -0.19758809630E+04  0.19758809630E+04  0.25500000000E-02 0. -1.
    8880023    1    1    2    0    0  0.58603787818E+03 -0.40573792567E+03 -0.14594809588E+03  0.98141464832E+03  0.65864270000E+03 0.  0.
    8880022    1    1    2    0    0 -0.58603787818E+03  0.40573792567E+03 -0.13181166944E+04  0.15062824875E+04  0.15294330000E+03 0.  0.
<mgrwt>
<rscale>  0 0.90350513E+03</rscale>
<asrwt>0</asrwt>
<pdfrwt beam="1">  1        2 0.30398168E+00 0.97050186E+03</pdfrwt>
<pdfrwt beam="2">  1       -2 0.78740951E-01 0.97050186E+03</pdfrwt>
<totfact> 0.99233283E+00</totfact>
</mgrwt>
</event>
<event>
 4    5  0.2295023E-007  0.7073536E+03  0.7818608E-02  0.9967962E-01
         -2   -1    0    0    0  501 -0.00000000000E+00  0.00000000000E+00  0.34629757881E+03  0.34629757882E+03  0.25500000000E-02 0.  1.
          2   -1    0    0  501    0  0.00000000000E+00 -0.00000000000E+00 -0.17570772057E+04  0.17570772057E+04  0.25500000000E-02 0. -1.
    8880023    1    1    2    0    0  0.19365360033E+03 -0.17040321888E+03 -0.49090646328E+02  0.70905505551E+03  0.65864270000E+03 0.  1.
    8880022    1    1    2    0    0 -0.19365360033E+03  0.17040321888E+03 -0.13616889806E+04  0.13943197290E+04  0.15294330000E+03 0.  0.
<mgrwt>
<rscale>  0 0.57077626E+03</rscale>
<asrwt>0</asrwt>
<pdfrwt beam="1">  1        2 0.27031956E+00 0.70735365E+03</pdfrwt>
<pdfrwt beam="2">  1       -2 0.53276552E-01 0.70735365E+03</pdfrwt>
<totfact> 0.31281663E+01</totfact>
</mgrwt>
</event>
<event>
 4    5  0.2295023E-007  0.1213182E+04  0.7818608E-02  0.9144414E-01
         -2   -1    0    0    0  501 -0.00000000000E+00  0.00000000000E+00  0.11570262938E+04  0.11570262938E+04  0.25500000000E-02 0.  1.
          2   -1    0    0  501    0  0.00000000000E+00 -0.00000000000E+00 -0.38059372137E+04  0.38059372137E+04  0.25500000000E-02 0. -1.
    8880023    1    1    2    0    0  0.83870874038E+03 -0.57841829279E+03  0.73990203014E+03  0.14210085479E+04  0.65864270000E+03 0.  0.
    8880022    1    1    2    0    0 -0.83870874038E+03  0.57841829279E+03 -0.33888129500E+04  0.35419549596E+04  0.15294330000E+03 0.  0.
<mgrwt>
<rscale>  0 0.11646057E+04</rscale>
<asrwt>0</asrwt>
<pdfrwt beam="1">  1        2 0.58552880E+00 0.12131819E+04</pdfrwt>
<pdfrwt beam="2">  1       -2 0.17800405E+00 0.12131819E+04</pdfrwt>
<totfact> 0.90838752E-02</totfact>
</mgrwt>
</event>
<event>
 4    5  0.2295023E-007  0.9654375E+03  0.7818608E-02  0.9428242E-01
          2   -1    0    0  501    0  0.00000000000E+00  0.00000000000E+00  0.30853350598E+04  0.30853350598E+04  0.25500000000E-02 0. -1.
         -2   -1    0    0    0  501 -0.00000000000E+00 -0.00000000000E+00 -0.87827764147E+03  0.87827764148E+03  0.25500000000E-02 0.  1.
    8880023    1    1    2    0    0  0.62621354826E+03  0.32575455938E+03 -0.55164747986E+03  0.11119283202E+04  0.65864270000E+03 0.  1.
    8880022    1    1    2    0    0 -0.62621354826E+03 -0.32575455938E+03  0.27587048982E+04  0.28516843811E+04  0.15294330000E+03 0.  0.
<mgrwt>
<rscale>  0 0.89787453E+03</rscale>
<asrwt>0</asrwt>
<pdfrwt beam="1">  1        2 0.47466693E+00 0.96543754E+03</pdfrwt>
<pdfrwt beam="2">  1       -2 0.13511964E+00 0.96543754E+03</pdfrwt>
<totfact> 0.62079447E-01</totfact>
</mgrwt>
</event>
<event>
 4    5  0.2295023E-007  0.1419766E+04  0.7818608E-02  0.8968474E-01
         -2   -1    0    0    0  501 -0.00000000000E+00  0.00000000000E+00  0.10021507308E+04  0.10021507308E+04  0.25500000000E-02 0.  1.
          2   -1    0    0  501    0  0.00000000000E+00 -0.00000000000E+00 -0.29027644525E+04  0.29027644525E+04  0.25500000000E-02 0. -1.
    8880023    1    1    2    0    0  0.12021392088E+04  0.36984569201E+03  0.21794049687E+03  0.14363957601E+04  0.65864270000E+03 0.  0.
    8880022    1    1    2    0    0 -0.12021392088E+04 -0.36984569201E+03 -0.21185542186E+04  0.24685194233E+04  0.15294330000E+03 0.  0.
<mgrwt>
<rscale>  0 0.13799317E+04</rscale>
<asrwt>0</asrwt>
<pdfrwt beam="1">  1        2 0.44657914E+00 0.14197657E+04</pdfrwt>
<pdfrwt beam="2">  1       -2 0.15417704E+00 0.14197657E+04</pdfrwt>
<totfact> 0.53237137E-01</totfact>
</mgrwt>
</event>
<event>
 4    5  0.2295023E-007  0.9134670E+03  0.7818608E-02  0.9504750E-01
          2   -1    0    0  501    0  0.00000000000E+00  0.00000000000E+00  0.24701728610E+04  0.24701728610E+04  0.25500000000E-02 0. -1.
         -2   -1    0    0    0  501 -0.00000000000E+00 -0.00000000000E+00 -0.11278834362E+04  0.11278834362E+04  0.25500000000E-02 0.  1.
    8880023    1    1    2    0    0  0.16229073774E+03  0.61177888911E+03 -0.88842126842E+03  0.12742504656E+04  0.65864270000E+03 0.  0.
    8880022    1    1    2    0    0 -0.16229073774E+03 -0.61177888911E+03  0.22307106933E+04  0.23238058316E+04  0.15294330000E+03 0. -1.
<mgrwt>
<rscale>  0 0.83934556E+03</rscale>
<asrwt>0</asrwt>
<pdfrwt beam="1">  1        2 0.38002659E+00 0.91346697E+03</pdfrwt>
<pdfrwt beam="2">  1       -2 0.17352053E+00 0.91346697E+03</pdfrwt>
<totfact> 0.74364217E-01</totfact>
</mgrwt>
</event>
<event>
 4    5  0.2295023E-007  0.1336254E+04  0.7818608E-02  0.9034868E-01
          2   -1    0    0  501    0  0.00000000000E+00  0.00000000000E+00  0.38770736518E+04  0.38770736518E+04  0.25500000000E-02 0. -1.
         -2   -1    0    0    0  501 -0.00000000000E+00 -0.00000000000E+00 -0.57302416011E+03  0.57302416012E+03  0.25500000000E-02 0.  1.
    8880023    1    1    2    0    0 -0.71717410181E+03 -0.91510937900E+03  0.52846962946E+03  0.14369600632E+04  0.65864270000E+03 0.  0.
    8880022    1    1    2    0    0  0.71717410181E+03  0.91510937900E+03  0.27755798622E+04  0.30131377487E+04  0.15294330000E+03 0.  0.
<mgrwt>
<rscale>  0 0.12933340E+04</rscale>
<asrwt>0</asrwt>
<pdfrwt beam="1">  1        2 0.59647286E+00 0.13362537E+04</pdfrwt>
<pdfrwt beam="2">  1       -2 0.88157564E-01 0.13362537E+04</pdfrwt>
<totfact> 0.47082724E-01</totfact>
</mgrwt>
</event>
<event>
 4    5  0.2295023E-007  0.6856224E+03  0.7818608E-02  0.1006307E+00
          2   -1    0    0  501    0  0.00000000000E+00  0.00000000000E+00  0.27435489584E+03  0.27435489586E+03  0.25500000000E-02 0. -1.
         -2   -1    0    0    0  501 -0.00000000000E+00 -0.00000000000E+00 -0.80635161068E+03  0.80635161068E+03  0.25500000000E-02 0.  1.
    8880023    1    1    2    0    0  0.10010735260E+03 -0.16200746906E+03 -0.46153141832E+03  0.82649220107E+03  0.65864270000E+03 0.  0.
    8880022    1    1    2    0    0 -0.10010735260E+03  0.16200746906E+03 -0.70465296520E+02  0.25421430547E+03  0.15294330000E+03 0. -1.
<mgrwt>
<rscale>  0 0.52969242E+03</rscale>
<asrwt>0</asrwt>
<pdfrwt beam="1">  1        2 0.42208446E-01 0.68562242E+03</pdfrwt>
<pdfrwt beam="2">  1       -2 0.12405409E+00 0.68562242E+03</pdfrwt>
<totfact> 0.60095169E+01</totfact>
</mgrwt>
</event>
<event>
 4    5  0.2295023E-007  0.7730064E+03  0.7818608E-02  0.9772529E-01
         -2   -1    0    0    0  501 -0.00000000000E+00  0.00000000000E+00  0.72642736099E+03  0.72642736099E+03  0.25500000000E-02 0.  1.
          2   -1    0    0  501    0  0.00000000000E+00 -0.00000000000E+00 -0.91385639385E+03  0.91385639385E+03  0.25500000000E-02 0. -1.
    8880023    1    1    2    0    0 -0.40328977272E+03  0.32956221916E+02  0.43141292329E+03  0.88524350886E+03  0.65864270000E+03 0.  0.
    8880022    1    1    2    0    0  0.40328977272E+03 -0.32956221916E+02 -0.61884195615E+03  0.75504024598E+03  0.15294330000E+03 0.  0.
<mgrwt>
<rscale>  0 0.66857861E+03</rscale>
<asrwt>0</asrwt>
<pdfrwt beam="1">  1        2 0.14059329E+00 0.77300644E+03</pdfrwt>
<pdfrwt beam="2">  1       -2 0.11175806E+00 0.77300644E+03</pdfrwt>
<totfact> 0.18384242E+01</totfact>
</mgrwt>
</event>
<event>
 4    5  0.2295023E-007  0.6789928E+03  0.7818608E-02  0.1009899E+00
         -2   -1    0    0    0  501 -0.00000000000E+00  0.00000000000E+00  0.20481148292E+03  0.20481148294E+03  0.25500000000E-02 0.  1.
          2   -1    0    0  501    0  0.00000000000E+00 -0.00000000000E+00 -0.14756565867E+04  0.14756565867E+04  0.25500000000E-02 0. -1.
    8880023    1    1    2    0    0  0.14317725143E+03 -0.81983472417E+02 -0.41550734361E+03  0.79603867615E+03  0.65864270000E+03 0.  1.
    8880022    1    1    2    0    0 -0.14317725143E+03  0.81983472417E+02 -0.85533776020E+03  0.88442939352E+03  0.15294330000E+03 0.  0.
<mgrwt>
<rscale>  0 0.51514713E+03</rscale>
<asrwt>0</asrwt>
<pdfrwt beam="1">  1        2 0.22702408E+00 0.67899280E+03</pdfrwt>
<pdfrwt beam="2">  1       -2 0.31509460E-01 0.67899280E+03</pdfrwt>
<totfact> 0.12536634E+02</totfact>
</mgrwt>
</event>
<event>
 4    5  0.2295023E-007  0.7931758E+03  0.7818608E-02  0.9725750E-01
         -2   -1    0    0    0  501 -0.00000000000E+00  0.00000000000E+00  0.78868449392E+03  0.78868449392E+03  0.25500000000E-02 0.  1.
          2   -1    0    0  501    0  0.00000000000E+00 -0.00000000000E+00 -0.18576407709E+04  0.18576407709E+04  0.25500000000E-02 0. -1.
    8880023    1    1    2    0    0 -0.45399731262E+02 -0.43960941271E+03  0.54736339277E+03  0.96370870150E+03  0.65864270000E+03 0.  1.
    8880022    1    1    2    0    0  0.45399731262E+02  0.43960941271E+03 -0.16163196698E+04  0.16826165633E+04  0.15294330000E+03 0.  0.
<mgrwt>
<rscale>  0 0.69504106E+03</rscale>
<asrwt>0</asrwt>
<pdfrwt beam="1">  1        2 0.28579089E+00 0.79317575E+03</pdfrwt>
<pdfrwt beam="2">  1       -2 0.12133608E+00 0.79317575E+03</pdfrwt>
<totfact> 0.42477802E+00</totfact>
</mgrwt>
</event>
<event>
 4    5  0.2295023E-007  0.1299942E+04  0.7818608E-02  0.9065610E-01
         -2   -1    0    0    0  501 -0.00000000000E+00  0.00000000000E+00  0.20092049907E+04  0.20092049907E+04  0.25500000000E-02 0.  1.
          2   -1    0    0  501    0  0.00000000000E+00 -0.00000000000E+00 -0.93283391655E+03  0.93283391655E+03  0.25500000000E-02 0. -1.
    8880023    1    1    2    0    0  0.26391178605E+03  0.10892154566E+04  0.12431546605E+04  0.17986893722E+04  0.65864270000E+03 0.  0.
    8880022    1    1    2    0    0 -0.26391178605E+03 -0.10892154566E+04 -0.16678358629E+03  0.11433495351E+04  0.15294330000E+03 0.  0.
<mgrwt>
<rscale>  0 0.12555100E+04</rscale>
<asrwt>0</asrwt>
<pdfrwt beam="1">  1        2 0.14351291E+00 0.12999423E+04</pdfrwt>
<pdfrwt beam="2">  1       -2 0.30910846E+00 0.12999423E+04</pdfrwt>
<totfact> 0.75450546E-01</totfact>
</mgrwt>
</event>
<event>
 4    5  0.2295023E-007  0.7856324E+03  0.7818608E-02  0.9742769E-01
          2   -1    0    0  501    0  0.00000000000E+00  0.00000000000E+00  0.37298922894E+04  0.37298922894E+04  0.25500000000E-02 0. -1.
         -2   -1    0    0    0  501 -0.00000000000E+00 -0.00000000000E+00 -0.27368089821E+03  0.27368089823E+03  0.25500000000E-02 0.  1.
    8880023    1    1    2    0    0 -0.10203124424E+03  0.41592983304E+03  0.34286444615E+03  0.85718973134E+03  0.65864270000E+03 0.  1.
    8880022    1    1    2    0    0  0.10203124424E+03 -0.41592983304E+03  0.31133469450E+04  0.31463834563E+04  0.15294330000E+03 0.  0.
<mgrwt>
<rscale>  0 0.68526452E+03</rscale>
<asrwt>0</asrwt>
<pdfrwt beam="1">  1        2 0.57382955E+00 0.78563236E+03</pdfrwt>
<pdfrwt beam="2">  1       -2 0.42104756E-01 0.78563236E+03</pdfrwt>
<totfact> 0.32226877E+00</totfact>
</mgrwt>
</event>
<event>
 4    5  0.2295023E-007  0.8645710E+03  0.7818608E-02  0.9585484E-01
         -2   -1    0    0    0  501 -0.00000000000E+00  0.00000000000E+00  0.55245649599E+03  0.55245649600E+03  0.25500000000E-02 0.  1.
          2   -1    0    0  501    0  0.00000000000E+00 -0.00000000000E+00 -0.17644896595E+04  0.17644896595E+04  0.25500000000E-02 0. -1.
    8880023    1    1    2    0    0  0.15711972816E+03  0.53757438754E+03  0.11144753911E+03  0.87172449280E+03  0.65864270000E+03 0.  1.
    8880022    1    1    2    0    0 -0.15711972816E+03 -0.53757438754E+03 -0.13234807027E+04  0.14452216627E+04  0.15294330000E+03 0.  0.
<mgrwt>
<rscale>  0 0.78264466E+03</rscale>
<asrwt>0</asrwt>
<pdfrwt beam="1">  1        2 0.27145994E+00 0.86457101E+03</pdfrwt>
<pdfrwt beam="2">  1       -2 0.84993308E-01 0.86457101E+03</pdfrwt>
<totfact> 0.11038557E+01</totfact>
</mgrwt>
</event>
<event>
 4    5  0.2295023E-007  0.8253590E+03  0.7818608E-02  0.9658431E-01
          2   -1    0    0  501    0  0.00000000000E+00  0.00000000000E+00  0.30198765583E+04  0.30198765583E+04  0.25500000000E-02 0. -1.
         -2   -1    0    0    0  501 -0.00000000000E+00 -0.00000000000E+00 -0.29887923537E+03  0.29887923538E+03  0.25500000000E-02 0.  1.
    8880023    1    1    2    0    0 -0.15767522796E+03 -0.47174764345E+03  0.35889820659E+03  0.90001413632E+03  0.65864270000E+03 0.  0.
    8880022    1    1    2    0    0  0.15767522796E+03  0.47174764345E+03  0.23620991163E+04  0.24187416573E+04  0.15294330000E+03 0.  0.
<mgrwt>
<rscale>  0 0.73546677E+03</rscale>
<asrwt>0</asrwt>
<pdfrwt beam="1">  1        2 0.46459637E+00 0.82535903E+03</pdfrwt>
<pdfrwt beam="2">  1       -2 0.45981423E-01 0.82535903E+03</pdfrwt>
<totfact> 0.79735199E+00</totfact>
</mgrwt>
</event>
<event>
 4    5  0.2295023E-007  0.1145155E+04  0.7818608E-02  0.9212372E-01
          2   -1    0    0  501    0  0.00000000000E+00  0.00000000000E+00  0.24069538385E+04  0.24069538385E+04  0.25500000000E-02 0. -1.
         -2   -1    0    0    0  501 -0.00000000000E+00 -0.00000000000E+00 -0.77205635183E+03  0.77205635184E+03  0.25500000000E-02 0.  1.
    8880023    1    1    2    0    0  0.66638670676E+03 -0.65840592526E+03  0.18776171816E+04  0.21992785390E+04  0.65864270000E+03 0. -1.
    8880022    1    1    2    0    0 -0.66638670676E+03  0.65840592526E+03 -0.24271969488E+03  0.97973165135E+03  0.15294330000E+03 0.  0.
<mgrwt>
<rscale>  0 0.10926635E+04</rscale>
<asrwt>0</asrwt>
<pdfrwt beam="1">  1        2 0.37030059E+00 0.11451549E+04</pdfrwt>
<pdfrwt beam="2">  1       -2 0.11877790E+00 0.11451549E+04</pdfrwt>
<totfact> 0.21163018E+00</totfact>
</mgrwt>
</event>
<event>
 4    5  0.2295023E-007  0.1262394E+04  0.7818608E-02  0.9098735E-01
          2   -1    0    0  501    0  0.00000000000E+00  0.00000000000E+00  0.15386522736E+04  0.15386522736E+04  0.25500000000E-02 0. -1.
         -2   -1    0    0    0  501 -0.00000000000E+00 -0.00000000000E+00 -0.14811843819E+04  0.14811843819E+04  0.25500000000E-02 0.  1.
    8880023    1    1    2    0    0  0.70543494308E+03  0.81375058180E+03 -0.91630323769E+03  0.15598879120E+04  0.65864270000E+03 0.  1.
    8880022    1    1    2    0    0 -0.70543494308E+03 -0.81375058180E+03  0.97377112939E+03  0.14599487435E+04  0.15294330000E+03 0.  0.
<mgrwt>
<rscale>  0 0.12162683E+04</rscale>
<asrwt>0</asrwt>
<pdfrwt beam="1">  1        2 0.23671574E+00 0.12623940E+04</pdfrwt>
<pdfrwt beam="2">  1       -2 0.22787452E+00 0.12623940E+04</pdfrwt>
<totfact> 0.10255638E+00</totfact>
</mgrwt>
</event>
<event>
 4    5  0.2295023E-007  0.8069321E+03  0.7818608E-02  0.9696003E-01
         -2   -1    0    0    0  501 -0.00000000000E+00  0.00000000000E+00  0.52470578041E+03  0.52470578042E+03  0.25500000000E-02 0.  1.
          2   -1    0    0  501    0  0.00000000000E+00 -0.00000000000E+00 -0.27645785189E+04  0.27645785189E+04  0.25500000000E-02 0. -1.
    8880023    1    1    2    0    0  0.40887231925E+03  0.22394780892E+03 -0.25727887535E+04  0.26963644729E+04  0.65864270000E+03 0. -1.
    8880022    1    1    2    0    0 -0.40887231925E+03 -0.22394780892E+03  0.33291601494E+03  0.59291982644E+03  0.15294330000E+03 0.  0.
<mgrwt>
<rscale>  0 0.71255264E+03</rscale>
<asrwt>0</asrwt>
<pdfrwt beam="1">  1        2 0.42531976E+00 0.80693209E+03</pdfrwt>
<pdfrwt beam="2">  1       -2 0.80723968E-01 0.80693209E+03</pdfrwt>
<totfact> 0.34467251E+00</totfact>
</mgrwt>
</event>
<event>
 4    5  0.2295023E-007  0.7391413E+03  0.7818608E-02  0.9862455E-01
         -2   -1    0    0    0  501 -0.00000000000E+00  0.00000000000E+00  0.73904193674E+03  0.73904193674E+03  0.25500000000E-02 0.  1.
          2   -1    0    0  501    0  0.00000000000E+00 -0.00000000000E+00 -0.94124615496E+03  0.94124615496E+03  0.25500000000E-02 0. -1.
    8880023    1    1    2    0    0  0.30188828233E+03 -0.14622990650E+03  0.49641116152E+03  0.89036732201E+03  0.65864270000E+03 0.  1.
    8880022    1    1    2    0    0 -0.30188828233E+03  0.14622990650E+03 -0.69861537974E+03  0.78992076969E+03  0.15294330000E+03 0.  0.
<mgrwt>
<rscale>  0 0.62115873E+03</rscale>
<asrwt>0</asrwt>
<pdfrwt beam="1">  1        2 0.14480710E+00 0.73914134E+03</pdfrwt>
<pdfrwt beam="2">  1       -2 0.11369876E+00 0.73914134E+03</pdfrwt>
<totfact> 0.16968099E+01</totfact>
</mgrwt>
</event>
<event>
 4    5  0.2295023E-007  0.1150953E+04  0.7818608E-02  0.9206340E-01
          2   -1    0    0  501    0  0.00000000000E+00  0.00000000000E+00  0.87950409640E+03  0.87950409640E+03  0.25500000000E-02 0. -1.
         -2   -1    0    0    0  501 -0.00000000000E+00 -0.00000000000E+00 -0.18305352446E+04  0.18305352446E+04  0.25500000000E-02 0.  1.
    8880023    1    1    2    0    0 -0.27129242625E+03 -0.90403717732E+03 -0.12586975362E+04  0.17055827428E+04  0.65864270000E+03 0.  1.
    8880022    1    1    2    0    0  0.27129242625E+03  0.90403717732E+03  0.30766638797E+03  0.10044565983E+04  0.15294330000E+03 0.  0.
<mgrwt>
<rscale>  0 0.10988231E+04</rscale>
<asrwt>0</asrwt>
<pdfrwt beam="1">  1        2 0.13530832E+00 0.11509531E+04</pdfrwt>
<pdfrwt beam="2">  1       -2 0.28162081E+00 0.11509531E+04</pdfrwt>
<totfact> 0.12255857E+00</totfact>
</mgrwt>
</event>
<event>
 4    5  0.2295023E-007  0.8389748E+03  0.7818608E-02  0.9632116E-01
         -2   -1    0    0    0  501 -0.00000000000E+00  0.00000000000E+00  0.36552786446E+03  0.36552786447E+03  0.25500000000E-02 0.  1.
          2   -1    0    0  501    0  0.00000000000E+00 -0.00000000000E+00 -0.17989109523E+04  0.17989109523E+04  0.25500000000E-02 0. -1.
    8880023    1    1    2    0    0 -0.47121405463E+03  0.21914778249E+03 -0.27039264798E+03  0.88147083117E+03  0.65864270000E+03 0.  1.
    8880022    1    1    2    0    0  0.47121405463E+03 -0.21914778249E+03 -0.11629904398E+04  0.12829679856E+04  0.15294330000E+03 0.  0.
<mgrwt>
<rscale>  0 0.75206487E+03</rscale>
<asrwt>0</asrwt>
<pdfrwt beam="1">  1        2 0.27675553E+00 0.83897476E+03</pdfrwt>
<pdfrwt beam="2">  1       -2 0.56235057E-01 0.83897476E+03</pdfrwt>
<totfact> 0.26112926E+01</totfact>
</mgrwt>
</event>
<event>
 4    5  0.2295023E-007  0.7450533E+03  0.7818608E-02  0.9845464E-01
         -2   -1    0    0    0  501 -0.00000000000E+00  0.00000000000E+00  0.72065484411E+03  0.72065484411E+03  0.25500000000E-02 0.  1.
          2   -1    0    0  501    0  0.00000000000E+00 -0.00000000000E+00 -0.12532159824E+04  0.12532159824E+04  0.25500000000E-02 0. -1.
    8880023    1    1    2    0    0 -0.16822783384E+03 -0.30494849644E+03  0.48401095231E+03  0.88846552988E+03  0.65864270000E+03 0.  1.
    8880022    1    1    2    0    0  0.16822783384E+03  0.30494849644E+03 -0.10165720906E+04  0.10854052967E+04  0.15294330000E+03 0.  0.
<mgrwt>
<rscale>  0 0.62978709E+03</rscale>
<asrwt>0</asrwt>
<pdfrwt beam="1">  1        2 0.19280246E+00 0.74505328E+03</pdfrwt>
<pdfrwt beam="2">  1       -2 0.11086998E+00 0.74505328E+03</pdfrwt>
<totfact> 0.11590486E+01</totfact>
</mgrwt>
</event>
<event>
 4    5  0.2295023E-007  0.6989641E+03  0.7818608E-02  0.1000153E+00
         -2   -1    0    0    0  501 -0.00000000000E+00  0.00000000000E+00  0.11293102625E+04  0.11293102625E+04  0.25500000000E-02 0.  1.
          2   -1    0    0  501    0  0.00000000000E+00 -0.00000000000E+00 -0.19234589250E+04  0.19234589250E+04  0.25500000000E-02 0. -1.
    8880023    1    1    2    0    0  0.23322732248E+03 -0.18592248919E+02  0.10093503841E+04  0.12277373741E+04  0.65864270000E+03 0.  1.
    8880022    1    1    2    0    0 -0.23322732248E+03  0.18592248919E+02 -0.18034990466E+04  0.18250318134E+04  0.15294330000E+03 0.  0.
<mgrwt>
<rscale>  0 0.55583386E+03</rscale>
<asrwt>0</asrwt>
<pdfrwt beam="1">  1        2 0.29591676E+00 0.69896413E+03</pdfrwt>
<pdfrwt beam="2">  1       -2 0.17374004E+00 0.69896413E+03</pdfrwt>
<totfact> 0.15498575E+00</totfact>
</mgrwt>
</event>
<event>
 4    5  0.2295023E-007  0.8885895E+03  0.7818608E-02  0.9544603E-01
          2   -1    0    0  501    0  0.00000000000E+00  0.00000000000E+00  0.16207233155E+04  0.16207233155E+04  0.25500000000E-02 0. -1.
         -2   -1    0    0    0  501 -0.00000000000E+00 -0.00000000000E+00 -0.42646867755E+03  0.42646867756E+03  0.25500000000E-02 0.  1.
    8880023    1    1    2    0    0 -0.59334375615E+03 -0.61027071125E+02  0.25566213301E+03  0.92463746890E+03  0.65864270000E+03 0.  0.
    8880022    1    1    2    0    0  0.59334375615E+03  0.61027071125E+02  0.93859250490E+03  0.11225545241E+04  0.15294330000E+03 0.  0.
<mgrwt>
<rscale>  0 0.81073800E+03</rscale>
<asrwt>0</asrwt>
<pdfrwt beam="1">  1        2 0.24934205E+00 0.88858951E+03</pdfrwt>
<pdfrwt beam="2">  1       -2 0.65610566E-01 0.88858951E+03</pdfrwt>
<totfact> 0.23464456E+01</totfact>
</mgrwt>
</event>
<event>
 4    5  0.2295023E-007  0.1072799E+04  0.7818608E-02  0.9291963E-01
          2   -1    0    0  501    0  0.00000000000E+00  0.00000000000E+00  0.20854090768E+04  0.20854090768E+04  0.25500000000E-02 0. -1.
         -2   -1    0    0    0  501 -0.00000000000E+00 -0.00000000000E+00 -0.56625328621E+03  0.56625328622E+03  0.25500000000E-02 0.  1.
    8880023    1    1    2    0    0 -0.81878505336E+03  0.21605198947E+03  0.22278402638E+03  0.10956871608E+04  0.65864270000E+03 0.  0.
    8880022    1    1    2    0    0  0.81878505336E+03 -0.21605198947E+03  0.12963717642E+04  0.15559752022E+04  0.15294330000E+03 0.  0.
<mgrwt>
<rscale>  0 0.10152614E+04</rscale>
<asrwt>0</asrwt>
<pdfrwt beam="1">  1        2 0.32083216E+00 0.10727990E+04</pdfrwt>
<pdfrwt beam="2">  1       -2 0.87115892E-01 0.10727990E+04</pdfrwt>
<totfact> 0.67815085E+00</totfact>
</mgrwt>
</event>
<event>
 4    5  0.2295023E-007  0.8067670E+03  0.7818608E-02  0.9696351E-01
         -2   -1    0    0    0  501 -0.00000000000E+00  0.00000000000E+00  0.68134379890E+03  0.68134379890E+03  0.25500000000E-02 0.  1.
          2   -1    0    0  501    0  0.00000000000E+00 -0.00000000000E+00 -0.13475115213E+04  0.13475115213E+04  0.25500000000E-02 0. -1.
    8880023    1    1    2    0    0 -0.32524918441E+03  0.33358030326E+03  0.36616913438E+03  0.88597567231E+03  0.65864270000E+03 0.  1.
    8880022    1    1    2    0    0  0.32524918441E+03 -0.33358030326E+03 -0.10323368567E+04  0.11428796479E+04  0.15294330000E+03 0.  0.
<mgrwt>
<rscale>  0 0.71234474E+03</rscale>
<asrwt>0</asrwt>
<pdfrwt beam="1">  1        2 0.20730946E+00 0.80676704E+03</pdfrwt>
<pdfrwt beam="2">  1       -2 0.10482212E+00 0.80676704E+03</pdfrwt>
<totfact> 0.11619437E+01</totfact>
</mgrwt>
</event>
<event>
 4    5  0.2295023E-007  0.8459737E+03  0.7818608E-02  0.9619018E-01
         -2   -1    0    0    0  501 -0.00000000000E+00  0.00000000000E+00  0.57864653813E+03  0.57864653814E+03  0.25500000000E-02 0.  1.
          2   -1    0    0  501    0  0.00000000000E+00 -0.00000000000E+00 -0.18150150622E+04  0.18150150622E+04  0.25500000000E-02 0. -1.
    8880023    1    1    2    0    0 -0.43782290794E+03  0.30028726002E+03  0.18737407629E+03  0.86647595926E+03  0.65864270000E+03 0.  1.
    8880022    1    1    2    0    0  0.43782290794E+03 -0.30028726002E+03 -0.14237426003E+04  0.15271856411E+04  0.15294330000E+03 0. -1.
<mgrwt>
<rscale>  0 0.76050163E+03</rscale>
<asrwt>0</asrwt>
<pdfrwt beam="1">  1        2 0.27923308E+00 0.84597373E+03</pdfrwt>
<pdfrwt beam="2">  1       -2 0.89022545E-01 0.84597373E+03</pdfrwt>
<totfact> 0.93350765E+00</totfact>
</mgrwt>
</event>
<event>
 4    5  0.2295023E-007  0.7601890E+03  0.7818608E-02  0.9804618E-01
          2   -1    0    0  501    0  0.00000000000E+00  0.00000000000E+00  0.33771636465E+04  0.33771636465E+04  0.25500000000E-02 0. -1.
         -2   -1    0    0    0  501 -0.00000000000E+00 -0.00000000000E+00 -0.38122227173E+03  0.38122227174E+03  0.25500000000E-02 0.  1.
    8880023    1    1    2    0    0 -0.26598991770E+03 -0.27078869899E+03  0.26261818804E+02  0.76064252130E+03  0.65864270000E+03 0.  1.
    8880022    1    1    2    0    0  0.26598991770E+03  0.27078869899E+03  0.29696795560E+04  0.29977433970E+04  0.15294330000E+03 0.  0.
<mgrwt>
<rscale>  0 0.65115284E+03</rscale>
<asrwt>0</asrwt>
<pdfrwt beam="1">  1        2 0.51956364E+00 0.76018903E+03</pdfrwt>
<pdfrwt beam="2">  1       -2 0.58649580E-01 0.76018903E+03</pdfrwt>
<totfact> 0.28978441E+00</totfact>
</mgrwt>
</event>
<event>
 4    5  0.2295023E-007  0.7620663E+03  0.7818608E-02  0.9799787E-01
          2   -1    0    0  501    0  0.00000000000E+00  0.00000000000E+00  0.32933453908E+04  0.32933453908E+04  0.25500000000E-02 0. -1.
         -2   -1    0    0    0  501 -0.00000000000E+00 -0.00000000000E+00 -0.15189145552E+03  0.15189145555E+03  0.25500000000E-02 0.  1.
    8880023    1    1    2    0    0  0.26408144388E+03  0.27784145587E+03  0.96309520028E+03  0.12281276215E+04  0.65864270000E+03 0.  1.
    8880022    1    1    2    0    0 -0.26408144388E+03 -0.27784145587E+03  0.21783587350E+04  0.22171092249E+04  0.15294330000E+03 0.  0.
<mgrwt>
<rscale>  0 0.65373972E+03</rscale>
<asrwt>0</asrwt>
<pdfrwt beam="1">  1        2 0.50666857E+00 0.76206633E+03</pdfrwt>
<pdfrwt beam="2">  1       -2 0.23367914E-01 0.76206633E+03</pdfrwt>
<totfact> 0.19436385E+01</totfact>
</mgrwt>
</event>
<event>
 4    5  0.2295023E-007  0.1382041E+04  0.7818608E-02  0.8997764E-01
          2   -1    0    0  501    0  0.00000000000E+00  0.00000000000E+00  0.37800884555E+04  0.37800884555E+04  0.25500000000E-02 0. -1.
         -2   -1    0    0    0  501 -0.00000000000E+00 -0.00000000000E+00 -0.64066440153E+03  0.64066440153E+03  0.25500000000E-02 0.  1.
    8880023    1    1    2    0    0 -0.38795044644E+03 -0.11513998090E+04  0.42992050226E+03  0.14473661989E+04  0.65864270000E+03 0.  0.
    8880022    1    1    2    0    0  0.38795044644E+03  0.11513998090E+04  0.27095035517E+04  0.29733866582E+04  0.15294330000E+03 0.  0.
<mgrwt>
<rscale>  0 0.13408750E+04</rscale>
<asrwt>0</asrwt>
<pdfrwt beam="1">  1        2 0.58155208E+00 0.13820410E+04</pdfrwt>
<pdfrwt beam="2">  1       -2 0.98563753E-01 0.13820410E+04</pdfrwt>
<totfact> 0.42654771E-01</totfact>
</mgrwt>
</event>
<event>
 4    5  0.2295023E-007  0.6938954E+03  0.7818608E-02  0.1002353E+00
          2   -1    0    0  501    0  0.00000000000E+00  0.00000000000E+00  0.10792082887E+04  0.10792082887E+04  0.25500000000E-02 0. -1.
         -2   -1    0    0    0  501 -0.00000000000E+00 -0.00000000000E+00 -0.78568454634E+03  0.78568454635E+03  0.25500000000E-02 0.  1.
    8880023    1    1    2    0    0  0.14024732546E+03  0.16736580375E+03 -0.60935729697E+03  0.92347557965E+03  0.65864270000E+03 0.  1.
    8880022    1    1    2    0    0 -0.14024732546E+03 -0.16736580375E+03  0.90288103932E+03  0.94141725539E+03  0.15294330000E+03 0.  0.
<mgrwt>
<rscale>  0 0.54630231E+03</rscale>
<asrwt>0</asrwt>
<pdfrwt beam="1">  1        2 0.16603204E+00 0.69389540E+03</pdfrwt>
<pdfrwt beam="2">  1       -2 0.12087455E+00 0.69389540E+03</pdfrwt>
<totfact> 0.11997160E+01</totfact>
</mgrwt>
</event>
<event>
 4    5  0.2295023E-007  0.9327661E+03  0.7818608E-02  0.9475356E-01
          2   -1    0    0  501    0  0.00000000000E+00  0.00000000000E+00  0.81329422804E+03  0.81329422805E+03  0.25500000000E-02 0. -1.
         -2   -1    0    0    0  501 -0.00000000000E+00 -0.00000000000E+00 -0.94142139473E+03  0.94142139473E+03  0.25500000000E-02 0.  1.
    8880023    1    1    2    0    0 -0.21871800190E+03 -0.62322127509E+03 -0.41202076459E+03  0.10197125275E+04  0.65864270000E+03 0.  0.
    8880022    1    1    2    0    0  0.21871800190E+03  0.62322127509E+03  0.28389359790E+03  0.73500309525E+03  0.15294330000E+03 0.  0.
<mgrwt>
<rscale>  0 0.86125364E+03</rscale>
<asrwt>0</asrwt>
<pdfrwt beam="1">  1        2 0.12512219E+00 0.93276606E+03</pdfrwt>
<pdfrwt beam="2">  1       -2 0.14483406E+00 0.93276606E+03</pdfrwt>
<totfact> 0.11049593E+01</totfact>
</mgrwt>
</event>
<event>
 4    5  0.2295023E-007  0.1201651E+04  0.7818608E-02  0.9155519E-01
         -2   -1    0    0    0  501 -0.00000000000E+00  0.00000000000E+00  0.98091206200E+03  0.98091206201E+03  0.25500000000E-02 0.  1.
          2   -1    0    0  501    0  0.00000000000E+00 -0.00000000000E+00 -0.22662719083E+04  0.22662719083E+04  0.25500000000E-02 0. -1.
    8880023    1    1    2    0    0 -0.26910169340E+03 -0.96836946684E+03  0.41059203248E+03  0.12698626576E+04  0.65864270000E+03 0.  0.
    8880022    1    1    2    0    0  0.26910169340E+03  0.96836946684E+03 -0.16959518788E+04  0.19773213128E+04  0.15294330000E+03 0.  0.
<mgrwt>
<rscale>  0 0.11524579E+04</rscale>
<asrwt>0</asrwt>
<pdfrwt beam="1">  1        2 0.34865722E+00 0.12016511E+04</pdfrwt>
<pdfrwt beam="2">  1       -2 0.15090955E+00 0.12016511E+04</pdfrwt>
<totfact> 0.13620515E+00</totfact>
</mgrwt>
</event>
<event>
 4    5  0.2295023E-007  0.1277616E+04  0.7818608E-02  0.9085135E-01
         -2   -1    0    0    0  501 -0.00000000000E+00  0.00000000000E+00  0.98660295491E+03  0.98660295492E+03  0.25500000000E-02 0.  1.
          2   -1    0    0  501    0  0.00000000000E+00 -0.00000000000E+00 -0.21132496169E+04  0.21132496169E+04  0.25500000000E-02 0. -1.
    8880023    1    1    2    0    0  0.92423202581E+03  0.58675993241E+03  0.28290450430E+03  0.13085630365E+04  0.65864270000E+03 0.  0.
    8880022    1    1    2    0    0 -0.92423202581E+03 -0.58675993241E+03 -0.14095511663E+04  0.17912895353E+04  0.15294330000E+03 0.  0.
<mgrwt>
<rscale>  0 0.12321936E+04</rscale>
<asrwt>0</asrwt>
<pdfrwt beam="1">  1        2 0.32511533E+00 0.12776159E+04</pdfrwt>
<pdfrwt beam="2">  1       -2 0.15178507E+00 0.12776159E+04</pdfrwt>
<totfact> 0.16191262E+00</totfact>
</mgrwt>
</event>
<event>
 4    5  0.2295023E-007  0.1146609E+04  0.7818608E-02  0.9210854E-01
         -2   -1    0    0    0  501 -0.00000000000E+00  0.00000000000E+00  0.59345573106E+03  0.59345573106E+03  0.25500000000E-02 0.  1.
          2   -1    0    0  501    0  0.00000000000E+00 -0.00000000000E+00 -0.27332535313E+04  0.27332535313E+04  0.25500000000E-02 0. -1.
    8880023    1    1    2    0    0  0.92927739164E+03  0.13170600013E+03 -0.19664898674E+03  0.11633503218E+04  0.65864270000E+03 0.  1.
    8880022    1    1    2    0    0 -0.92927739164E+03 -0.13170600013E+03 -0.19431488135E+04  0.21633589405E+04  0.15294330000E+03 0.  0.
<mgrwt>
<rscale>  0 0.10942092E+04</rscale>
<asrwt>0</asrwt>
<pdfrwt beam="1">  1        2 0.42050054E+00 0.11466094E+04</pdfrwt>
<pdfrwt beam="2">  1       -2 0.91300883E-01 0.11466094E+04</pdfrwt>
<totfact> 0.25781716E+00</totfact>
</mgrwt>
</event>
<event>
 4    5  0.2295023E-007  0.7169966E+03  0.7818608E-02  0.9932883E-01
          2   -1    0    0  501    0  0.00000000000E+00  0.00000000000E+00  0.37761527909E+04  0.37761527909E+04  0.25500000000E-02 0. -1.
         -2   -1    0    0    0  501 -0.00000000000E+00 -0.00000000000E+00 -0.19483669581E+03  0.19483669582E+03  0.25500000000E-02 0.  1.
    8880023    1    1    2    0    0  0.25026559217E+03  0.13281948950E+03  0.50289850446E+03  0.87578022099E+03  0.65864270000E+03 0.  1.
    8880022    1    1    2    0    0 -0.25026559217E+03 -0.13281948950E+03  0.30784175906E+04  0.30952092657E+04  0.15294330000E+03 0.  0.
<mgrwt>
<rscale>  0 0.58693784E+03</rscale>
<asrwt>0</asrwt>
<pdfrwt beam="1">  1        2 0.58094663E+00 0.71699658E+03</pdfrwt>
<pdfrwt beam="2">  1       -2 0.29974874E-01 0.71699658E+03</pdfrwt>
<totfact> 0.57902336E+00</totfact>
</mgrwt>
</event>
<event>
 4    5  0.2295023E-007  0.7769323E+03  0.7818608E-02  0.9763093E-01
          2   -1    0    0  501    0  0.00000000000E+00  0.00000000000E+00  0.23256102976E+04  0.23256102976E+04  0.25500000000E-02 0. -1.
         -2   -1    0    0    0  501 -0.00000000000E+00 -0.00000000000E+00 -0.41247446870E+03  0.41247446871E+03  0.25500000000E-02 0.  1.
    8880023    1    1    2    0    0 -0.33354447763E+03 -0.24199532905E+03  0.18784906276E+01  0.77693461297E+03  0.65864270000E+03 0.  1.
    8880022    1    1    2    0    0  0.33354447763E+03  0.24199532905E+03  0.19112573383E+04  0.19611501534E+04  0.15294330000E+03 0.  0.
<mgrwt>
<rscale>  0 0.67381362E+03</rscale>
<asrwt>0</asrwt>
<pdfrwt beam="1">  1        2 0.35778620E+00 0.77693234E+03</pdfrwt>
<pdfrwt beam="2">  1       -2 0.63457610E-01 0.77693234E+03</pdfrwt>
<totfact> 0.10473130E+01</totfact>
</mgrwt>
</event>
<event>
 4    5  0.2295023E-007  0.7996679E+03  0.7818608E-02  0.9711515E-01
          2   -1    0    0  501    0  0.00000000000E+00  0.00000000000E+00  0.21061173552E+04  0.21061173552E+04  0.25500000000E-02 0. -1.
         -2   -1    0    0    0  501 -0.00000000000E+00 -0.00000000000E+00 -0.48309840121E+03  0.48309840121E+03  0.25500000000E-02 0.  1.
    8880023    1    1    2    0    0  0.18845748514E+03 -0.41248304222E+03 -0.95453056836E+02  0.80534463191E+03  0.65864270000E+03 0.  1.
    8880022    1    1    2    0    0 -0.18845748514E+03  0.41248304222E+03  0.17184720109E+04  0.17838711245E+04  0.15294330000E+03 0.  0.
<mgrwt>
<rscale>  0 0.70335334E+03</rscale>
<asrwt>0</asrwt>
<pdfrwt beam="1">  1        2 0.32401805E+00 0.79966786E+03</pdfrwt>
<pdfrwt beam="2">  1       -2 0.74322831E-01 0.79966786E+03</pdfrwt>
<totfact> 0.97863853E+00</totfact>
</mgrwt>
</event>
<event>
 4    5  0.2295023E-007  0.6603939E+03  0.7818608E-02  0.1023756E+00
         -2   -1    0    0    0  501 -0.00000000000E+00  0.00000000000E+00  0.10242194609E+03  0.10242194612E+03  0.25500000000E-02 0.  1.
          2   -1    0    0  501    0  0.00000000000E+00 -0.00000000000E+00 -0.17136971861E+04  0.17136971861E+04  0.25500000000E-02 0. -1.
    8880023    1    1    2    0    0  0.47857377219E+02 -0.44299641751E+01 -0.11297585220E+04  0.13086154811E+04  0.65864270000E+03 0.  1.
    8880022    1    1    2    0    0 -0.47857377219E+02  0.44299641751E+01 -0.48151671798E+03  0.50750365107E+03  0.15294330000E+03 0.  0.
<mgrwt>
<rscale>  0 0.46355081E+03</rscale>
<asrwt>0</asrwt>
<pdfrwt beam="1">  1        2 0.26364570E+00 0.66039394E+03</pdfrwt>
<pdfrwt beam="2">  1       -2 0.15757224E-01 0.66039394E+03</pdfrwt>
<totfact> 0.31794640E+02</totfact>
</mgrwt>
</event>
<event>
 4    5  0.2295023E-007  0.1036158E+04  0.7818608E-02  0.9335710E-01
          2   -1    0    0  501    0  0.00000000000E+00  0.00000000000E+00  0.11930384222E+04  0.11930384222E+04  0.25500000000E-02 0. -1.
         -2   -1    0    0    0  501 -0.00000000000E+00 -0.00000000000E+00 -0.14489420824E+04  0.14489420824E+04  0.25500000000E-02 0.  1.
    8880023    1    1    2    0    0 -0.19641885746E+02  0.79964182169E+03 -0.10707067476E+04  0.14899785207E+04  0.65864270000E+03 0.  0.
    8880022    1    1    2    0    0  0.19641885746E+02 -0.79964182169E+03  0.81480308732E+03  0.11520019839E+04  0.15294330000E+03 0.  0.
<mgrwt>
<rscale>  0 0.97560804E+03</rscale>
<asrwt>0</asrwt>
<pdfrwt beam="1">  1        2 0.18354437E+00 0.10361578E+04</pdfrwt>
<pdfrwt beam="2">  1       -2 0.22291417E+00 0.10361578E+04</pdfrwt>
<totfact> 0.17925306E+00</totfact>
</mgrwt>
</event>
<event>
 4    5  0.2295023E-007  0.8236584E+03  0.7818608E-02  0.9661800E-01
         -2   -1    0    0    0  501 -0.00000000000E+00  0.00000000000E+00  0.77408649819E+03  0.77408649819E+03  0.25500000000E-02 0.  1.
          2   -1    0    0  501    0  0.00000000000E+00 -0.00000000000E+00 -0.73665700326E+03  0.73665700327E+03  0.25500000000E-02 0. -1.
    8880023    1    1    2    0    0  0.19719782912E+03  0.45355914147E+03  0.36203125358E+03  0.89971090548E+03  0.65864270000E+03 0.  0.
    8880022    1    1    2    0    0 -0.19719782912E+03 -0.45355914147E+03 -0.32460175865E+03  0.61103259598E+03  0.15294330000E+03 0.  0.
<mgrwt>
<rscale>  0 0.73337495E+03</rscale>
<asrwt>0</asrwt>
<pdfrwt beam="1">  1        2 0.11333185E+00 0.82365835E+03</pdfrwt>
<pdfrwt beam="2">  1       -2 0.11909023E+00 0.82365835E+03</pdfrwt>
<totfact> 0.20923329E+01</totfact>
</mgrwt>
</event>
<event>
 4    5  0.2295023E-007  0.8140694E+03  0.7818608E-02  0.9681162E-01
         -2   -1    0    0    0  501 -0.00000000000E+00  0.00000000000E+00  0.32588695945E+03  0.32588695946E+03  0.25500000000E-02 0.  1.
          2   -1    0    0  501    0  0.00000000000E+00 -0.00000000000E+00 -0.14823435236E+04  0.14823435236E+04  0.25500000000E-02 0. -1.
    8880023    1    1    2    0    0  0.42237827651E+03 -0.22471188737E+03 -0.41792583354E+03  0.91507980493E+03  0.65864270000E+03 0.  1.
    8880022    1    1    2    0    0 -0.42237827651E+03  0.22471188737E+03 -0.73853073065E+03  0.89315067818E+03  0.15294330000E+03 0.  0.
<mgrwt>
<rscale>  0 0.72149562E+03</rscale>
<asrwt>0</asrwt>
<pdfrwt beam="1">  1        2 0.22805285E+00 0.81406944E+03</pdfrwt>
<pdfrwt beam="2">  1       -2 0.50136456E-01 0.81406944E+03</pdfrwt>
<totfact> 0.49612907E+01</totfact>
</mgrwt>
</event>
<event>
 4    5  0.2295023E-007  0.7159873E+03  0.7818608E-02  0.9936405E-01
         -2   -1    0    0    0  501 -0.00000000000E+00  0.00000000000E+00  0.10551232943E+04  0.10551232943E+04  0.25500000000E-02 0.  1.
          2   -1    0    0  501    0  0.00000000000E+00 -0.00000000000E+00 -0.22915990373E+04  0.22915990374E+04  0.25500000000E-02 0. -1.
    8880023    1    1    2    0    0  0.27257241154E+03  0.67319520106E+02  0.92050442315E+03  0.11661759030E+04  0.65864270000E+03 0.  1.
    8880022    1    1    2    0    0 -0.27257241154E+03 -0.67319520106E+02 -0.21569801662E+04  0.21805464287E+04  0.15294330000E+03 0.  0.
<mgrwt>
<rscale>  0 0.58528933E+03</rscale>
<asrwt>0</asrwt>
<pdfrwt beam="1">  1        2 0.35255370E+00 0.71598732E+03</pdfrwt>
<pdfrwt beam="2">  1       -2 0.16232666E+00 0.71598732E+03</pdfrwt>
<totfact> 0.11704626E+00</totfact>
</mgrwt>
</event>
<event>
 4    5  0.2295023E-007  0.9882135E+03  0.7818608E-02  0.9397143E-01
          2   -1    0    0  501    0  0.00000000000E+00  0.00000000000E+00  0.11078829503E+04  0.11078829503E+04  0.25500000000E-02 0. -1.
         -2   -1    0    0    0  501 -0.00000000000E+00 -0.00000000000E+00 -0.91108694289E+03  0.91108694290E+03  0.25500000000E-02 0.  1.
    8880023    1    1    2    0    0  0.28959087882E+03  0.67741636328E+03 -0.39243306021E+03  0.10632825209E+04  0.65864270000E+03 0.  0.
    8880022    1    1    2    0    0 -0.28959087882E+03 -0.67741636328E+03  0.58922906756E+03  0.95568737221E+03  0.15294330000E+03 0.  0.
<mgrwt>
<rscale>  0 0.92311179E+03</rscale>
<asrwt>0</asrwt>
<pdfrwt beam="1">  1        2 0.17044353E+00 0.98821355E+03</pdfrwt>
<pdfrwt beam="2">  1       -2 0.14016722E+00 0.98821355E+03</pdfrwt>
<totfact> 0.76570205E+00</totfact>
</mgrwt>
</event>
<event>
 4    5  0.2295023E-007  0.1076341E+04  0.7818608E-02  0.9287867E-01
         -2   -1    0    0    0  501 -0.00000000000E+00  0.00000000000E+00  0.38200696569E+03  0.38200696570E+03  0.25500000000E-02 0.  1.
          2   -1    0    0  501    0  0.00000000000E+00 -0.00000000000E+00 -0.29198894309E+04  0.29198894309E+04  0.25500000000E-02 0. -1.
    8880023    1    1    2    0    0  0.67002189285E+03  0.52513765058E+03 -0.73820001123E+03  0.13051621937E+04  0.65864270000E+03 0.  0.
    8880022    1    1    2    0    0 -0.67002189285E+03 -0.52513765058E+03 -0.17996824539E+04  0.19967342029E+04  0.15294330000E+03 0.  0.
<mgrwt>
<rscale>  0 0.10190760E+04</rscale>
<asrwt>0</asrwt>
<pdfrwt beam="1">  1        2 0.44921375E+00 0.10763406E+04</pdfrwt>
<pdfrwt beam="2">  1       -2 0.58770304E-01 0.10763406E+04</pdfrwt>
<totfact> 0.53397406E+00</totfact>
</mgrwt>
</event>
<event>
 4    5  0.2295023E-007  0.7354408E+03  0.7818608E-02  0.9873432E-01
          2   -1    0    0  501    0  0.00000000000E+00  0.00000000000E+00  0.70387918958E+03  0.70387918959E+03  0.25500000000E-02 0. -1.
         -2   -1    0    0    0  501 -0.00000000000E+00 -0.00000000000E+00 -0.70132417502E+03  0.70132417503E+03  0.25500000000E-02 0.  1.
    8880023    1    1    2    0    0 -0.29684155865E+03  0.13765202990E+03 -0.42190771367E+03  0.84786751170E+03  0.65864270000E+03 0.  0.
    8880022    1    1    2    0    0  0.29684155865E+03 -0.13765202990E+03  0.42446272822E+03  0.55733585292E+03  0.15294330000E+03 0.  0.
<mgrwt>
<rscale>  0 0.61566327E+03</rscale>
<asrwt>0</asrwt>
<pdfrwt beam="1">  1        2 0.10828911E+00 0.73544082E+03</pdfrwt>
<pdfrwt beam="2">  1       -2 0.10789603E+00 0.73544082E+03</pdfrwt>
<totfact> 0.28424790E+01</totfact>
</mgrwt>
</event>
<event>
 4    5  0.2295023E-007  0.6860325E+03  0.7818608E-02  0.1006098E+00
         -2   -1    0    0    0  501 -0.00000000000E+00  0.00000000000E+00  0.58482193826E+03  0.58482193826E+03  0.25500000000E-02 0.  1.
          2   -1    0    0  501    0  0.00000000000E+00 -0.00000000000E+00 -0.17518805627E+04  0.17518805627E+04  0.25500000000E-02 0. -1.
    8880023    1    1    2    0    0  0.10800704886E+03 -0.15863418235E+03  0.37049798780E+03  0.77968537991E+03  0.65864270000E+03 0.  1.
    8880022    1    1    2    0    0 -0.10800704886E+03  0.15863418235E+03 -0.15375566123E+04  0.15570171211E+04  0.15294330000E+03 0.  0.
<mgrwt>
<rscale>  0 0.53055190E+03</rscale>
<asrwt>0</asrwt>
<pdfrwt beam="1">  1        2 0.26952008E+00 0.68603246E+03</pdfrwt>
<pdfrwt beam="2">  1       -2 0.89972607E-01 0.68603246E+03</pdfrwt>
<totfact> 0.10089882E+01</totfact>
</mgrwt>
</event>
<event>
 4    5  0.2295023E-007  0.1095765E+04  0.7818608E-02  0.9265786E-01
          2   -1    0    0  501    0  0.00000000000E+00  0.00000000000E+00  0.25155439036E+04  0.25155439036E+04  0.25500000000E-02 0. -1.
         -2   -1    0    0    0  501 -0.00000000000E+00 -0.00000000000E+00 -0.11336887471E+04  0.11336887471E+04  0.25500000000E-02 0.  1.
    8880023    1    1    2    0    0 -0.73971749923E+03  0.46873018500E+03 -0.75778256101E+03  0.13322667079E+04  0.65864270000E+03 0.  1.
    8880022    1    1    2    0    0  0.73971749923E+03 -0.46873018500E+03  0.21396377175E+04  0.23169659428E+04  0.15294330000E+03 0.  0.
<mgrwt>
<rscale>  0 0.10399458E+04</rscale>
<asrwt>0</asrwt>
<pdfrwt beam="1">  1        2 0.38700675E+00 0.10957647E+04</pdfrwt>
<pdfrwt beam="2">  1       -2 0.17441365E+00 0.10957647E+04</pdfrwt>
<totfact> 0.67024453E-01</totfact>
</mgrwt>
</event>
<event>
 4    5  0.2295023E-007  0.1261186E+04  0.7818608E-02  0.9099825E-01
         -2   -1    0    0    0  501 -0.00000000000E+00  0.00000000000E+00  0.32657051691E+04  0.32657051691E+04  0.25500000000E-02 0.  1.
          2   -1    0    0  501    0  0.00000000000E+00 -0.00000000000E+00 -0.86069294815E+03  0.86069294816E+03  0.25500000000E-02 0. -1.
    8880023    1    1    2    0    0 -0.10453464910E+04  0.25304219193E+03  0.27175799390E+04  0.29959690533E+04  0.65864270000E+03 0.  1.
    8880022    1    1    2    0    0  0.10453464910E+04 -0.25304219193E+03 -0.31256771806E+03  0.11304290639E+04  0.15294330000E+03 0.  0.
<mgrwt>
<rscale>  0 0.12150033E+04</rscale>
<asrwt>0</asrwt>
<pdfrwt beam="1">  1        2 0.13241430E+00 0.12611859E+04</pdfrwt>
<pdfrwt beam="2">  1       -2 0.50241617E+00 0.12611859E+04</pdfrwt>
<totfact> 0.48254477E-02</totfact>
</mgrwt>
</event>
<event>
 4    5  0.2295023E-007  0.8829187E+03  0.7818608E-02  0.9554028E-01
          2   -1    0    0  501    0  0.00000000000E+00  0.00000000000E+00  0.77053443191E+03  0.77053443191E+03  0.25500000000E-02 0. -1.
         -2   -1    0    0    0  501 -0.00000000000E+00 -0.00000000000E+00 -0.23154160452E+04  0.23154160452E+04  0.25500000000E-02 0.  1.
    8880023    1    1    2    0    0 -0.33602439089E+03 -0.48251711697E+03 -0.20905335312E+04  0.22693337813E+04  0.65864270000E+03 0.  0.
    8880022    1    1    2    0    0  0.33602439089E+03  0.48251711697E+03  0.54565191789E+03  0.81661669586E+03  0.15294330000E+03 0.  0.
<mgrwt>
<rscale>  0 0.80415075E+03</rscale>
<asrwt>0</asrwt>
<pdfrwt beam="1">  1        2 0.11854376E+00 0.88291866E+03</pdfrwt>
<pdfrwt beam="2">  1       -2 0.35621785E+00 0.88291866E+03</pdfrwt>
<totfact> 0.53095943E-01</totfact>
</mgrwt>
</event>
<event>
 4    5  0.2295023E-007  0.9357696E+03  0.7818608E-02  0.9470891E-01
         -2   -1    0    0    0  501 -0.00000000000E+00  0.00000000000E+00  0.95027809161E+03  0.95027809162E+03  0.25500000000E-02 0.  1.
          2   -1    0    0  501    0  0.00000000000E+00 -0.00000000000E+00 -0.11279695703E+04  0.11279695703E+04  0.25500000000E-02 0. -1.
    8880023    1    1    2    0    0  0.54247721699E+02  0.66250415579E+03  0.54629509273E+03  0.10835603843E+04  0.65864270000E+03 0.  0.
    8880022    1    1    2    0    0 -0.54247721699E+02 -0.66250415579E+03 -0.72398657145E+03  0.99468727769E+03  0.15294330000E+03 0.  0.
<mgrwt>
<rscale>  0 0.86464346E+03</rscale>
<asrwt>0</asrwt>
<pdfrwt beam="1">  1        2 0.17353378E+00 0.93576962E+03</pdfrwt>
<pdfrwt beam="2">  1       -2 0.14619663E+00 0.93576962E+03</pdfrwt>
<totfact> 0.67005906E+00</totfact>
</mgrwt>
</event>
<event>
 4    5  0.2295023E-007  0.7309661E+03  0.7818608E-02  0.9887089E-01
         -2   -1    0    0    0  501 -0.00000000000E+00  0.00000000000E+00  0.43759913008E+03  0.43759913008E+03  0.25500000000E-02 0.  1.
          2   -1    0    0  501    0  0.00000000000E+00 -0.00000000000E+00 -0.10663952091E+04  0.10663952091E+04  0.25500000000E-02 0. -1.
    8880023    1    1    2    0    0  0.64109509386E+02 -0.31046933380E+03  0.56958210734E+02  0.73318188771E+03  0.65864270000E+03 0.  1.
    8880022    1    1    2    0    0 -0.64109509386E+02  0.31046933380E+03 -0.68575428978E+03  0.77081245151E+03  0.15294330000E+03 0.  0.
<mgrwt>
<rscale>  0 0.60891087E+03</rscale>
<asrwt>0</asrwt>
<pdfrwt beam="1">  1        2 0.16406080E+00 0.73096610E+03</pdfrwt>
<pdfrwt beam="2">  1       -2 0.67322943E-01 0.73096610E+03</pdfrwt>
<totfact> 0.47096534E+01</totfact>
</mgrwt>
</event>
<event>
 4    5  0.2295023E-007  0.1260001E+04  0.7818608E-02  0.9100894E-01
         -2   -1    0    0    0  501 -0.00000000000E+00  0.00000000000E+00  0.11804686626E+04  0.11804686626E+04  0.25500000000E-02 0.  1.
          2   -1    0    0  501    0  0.00000000000E+00 -0.00000000000E+00 -0.16301702036E+04  0.16301702036E+04  0.25500000000E-02 0. -1.
    8880023    1    1    2    0    0 -0.43769964949E+03 -0.98092435433E+03  0.51270949482E+03  0.13603215813E+04  0.65864270000E+03 0.  0.
    8880022    1    1    2    0    0  0.43769964949E+03  0.98092435433E+03 -0.96241103585E+03  0.14503172849E+04  0.15294330000E+03 0.  0.
<mgrwt>
<rscale>  0 0.12137630E+04</rscale>
<asrwt>0</asrwt>
<pdfrwt beam="1">  1        2 0.25079542E+00 0.12600015E+04</pdfrwt>
<pdfrwt beam="2">  1       -2 0.18161056E+00 0.12600015E+04</pdfrwt>
<totfact> 0.18280475E+00</totfact>
</mgrwt>
</event>
<event>
 4    5  0.2295023E-007  0.8274090E+03  0.7818608E-02  0.9654395E-01
         -2   -1    0    0    0  501 -0.00000000000E+00  0.00000000000E+00  0.27068250271E+03  0.27068250272E+03  0.25500000000E-02 0.  1.
          2   -1    0    0  501    0  0.00000000000E+00 -0.00000000000E+00 -0.30290988724E+04  0.30290988724E+04  0.25500000000E-02 0. -1.
    8880023    1    1    2    0    0 -0.20035536863E+03  0.45896963299E+03 -0.46866836405E+03  0.95092357183E+03  0.65864270000E+03 0.  0.
    8880022    1    1    2    0    0  0.20035536863E+03 -0.45896963299E+03 -0.22897480056E+04  0.23488578033E+04  0.15294330000E+03 0.  0.
<mgrwt>
<rscale>  0 0.73798245E+03</rscale>
<asrwt>0</asrwt>
<pdfrwt beam="1">  1        2 0.46601519E+00 0.82740897E+03</pdfrwt>
<pdfrwt beam="2">  1       -2 0.41643464E-01 0.82740897E+03</pdfrwt>
<totfact> 0.95785803E+00</totfact>
</mgrwt>
</event>
<event>
 4    5  0.2295023E-007  0.1463595E+04  0.7818608E-02  0.8935780E-01
         -2   -1    0    0    0  501 -0.00000000000E+00  0.00000000000E+00  0.14453340806E+04  0.14453340806E+04  0.25500000000E-02 0.  1.
          2   -1    0    0  501    0  0.00000000000E+00 -0.00000000000E+00 -0.22448512889E+04  0.22448512889E+04  0.25500000000E-02 0. -1.
    8880023    1    1    2    0    0  0.67130989208E+03  0.11214467699E+04  0.76040437667E+03  0.16493407323E+04  0.65864270000E+03 0.  0.
    8880022    1    1    2    0    0 -0.67130989208E+03 -0.11214467699E+04 -0.15599215849E+04  0.20408446372E+04  0.15294330000E+03 0.  0.
<mgrwt>
<rscale>  0 0.14251956E+04</rscale>
<asrwt>0</asrwt>
<pdfrwt beam="1">  1        2 0.34536174E+00 0.14635949E+04</pdfrwt>
<pdfrwt beam="2">  1       -2 0.22235909E+00 0.14635949E+04</pdfrwt>
<totfact> 0.43816010E-01</totfact>
</mgrwt>
</event>
<event>
 4    5  0.2295023E-007  0.1106406E+04  0.7818608E-02  0.9253957E-01
         -2   -1    0    0    0  501 -0.00000000000E+00  0.00000000000E+00  0.93702320026E+03  0.93702320026E+03  0.25500000000E-02 0.  1.
          2   -1    0    0  501    0  0.00000000000E+00 -0.00000000000E+00 -0.11464861807E+04  0.11464861807E+04  0.25500000000E-02 0. -1.
    8880023    1    1    2    0    0  0.28831706648E+03 -0.84095075637E+03 -0.37129496768E+03  0.11670454425E+04  0.65864270000E+03 0.  0.
    8880022    1    1    2    0    0 -0.28831706648E+03  0.84095075637E+03  0.16183198725E+03  0.91646393850E+03  0.15294330000E+03 0.  0.
<mgrwt>
<rscale>  0 0.10513448E+04</rscale>
<asrwt>0</asrwt>
<pdfrwt beam="1">  1        2 0.17638249E+00 0.11064064E+04</pdfrwt>
<pdfrwt beam="2">  1       -2 0.14415742E+00 0.11064064E+04</pdfrwt>
<totfact> 0.66638714E+00</totfact>
</mgrwt>
</event>
<event>
 4    5  0.2295023E-007  0.6747465E+03  0.7818608E-02  0.1012467E+00
         -2   -1    0    0    0  501 -0.00000000000E+00  0.00000000000E+00  0.96291736807E+02  0.96291736841E+02  0.25500000000E-02 0.  1.
          2   -1    0    0  501    0  0.00000000000E+00 -0.00000000000E+00 -0.25526238427E+04  0.25526238427E+04  0.25500000000E-02 0. -1.
    8880023    1    1    2    0    0 -0.12632155160E+03 -0.74266681184E+02 -0.12163008197E+04  0.13909243562E+04  0.65864270000E+03 0.  1.
    8880022    1    1    2    0    0  0.12632155160E+03  0.74266681184E+02 -0.12400312861E+04  0.12579912233E+04  0.15294330000E+03 0.  0.
<mgrwt>
<rscale>  0 0.50506019E+03</rscale>
<asrwt>0</asrwt>
<pdfrwt beam="1">  1        2 0.39271131E+00 0.67474653E+03</pdfrwt>
<pdfrwt beam="2">  1       -2 0.14814115E-01 0.67474653E+03</pdfrwt>
<totfact> 0.12177517E+02</totfact>
</mgrwt>
</event>
<event>
 4    5  0.2295023E-007  0.9392049E+03  0.7818608E-02  0.9465819E-01
         -2   -1    0    0    0  501 -0.00000000000E+00  0.00000000000E+00  0.22812807989E+04  0.22812807989E+04  0.25500000000E-02 0.  1.
          2   -1    0    0  501    0  0.00000000000E+00 -0.00000000000E+00 -0.10674975837E+04  0.10674975837E+04  0.25500000000E-02 0. -1.
    8880023    1    1    2    0    0 -0.10880246537E+03 -0.66064936647E+03  0.20569908831E+04  0.22612645270E+04  0.65864270000E+03 0.  0.
    8880022    1    1    2    0    0  0.10880246537E+03  0.66064936647E+03 -0.84320766788E+03  0.10875138556E+04  0.15294330000E+03 0.  0.
<mgrwt>
<rscale>  0 0.86851438E+03</rscale>
<asrwt>0</asrwt>
<pdfrwt beam="1">  1        2 0.16423040E+00 0.93920486E+03</pdfrwt>
<pdfrwt beam="2">  1       -2 0.35096627E+00 0.93920486E+03</pdfrwt>
<totfact> 0.35779415E-01</totfact>
</mgrwt>
</event>
<event>
 4    5  0.2295023E-007  0.1295227E+04  0.7818608E-02  0.9069693E-01
         -2   -1    0    0    0  501 -0.00000000000E+00  0.00000000000E+00  0.12893836056E+04  0.12893836056E+04  0.25500000000E-02 0.  1.
          2   -1    0    0  501    0  0.00000000000E+00 -0.00000000000E+00 -0.21298792253E+04  0.21298792253E+04  0.25500000000E-02 0. -1.
    8880023    1    1    2    0    0 -0.20160351151E+03 -0.10968857150E+04  0.73016719875E+03  0.14868613224E+04  0.65864270000E+03 0.  0.
    8880022    1    1    2    0    0  0.20160351151E+03  0.10968857150E+04 -0.15706628185E+04  0.19324015085E+04  0.15294330000E+03 0.  0.
<mgrwt>
<rscale>  0 0.12505894E+04</rscale>
<asrwt>0</asrwt>
<pdfrwt beam="1">  1        2 0.32767373E+00 0.12952268E+04</pdfrwt>
<pdfrwt beam="2">  1       -2 0.19836671E+00 0.12952268E+04</pdfrwt>
<totfact> 0.74058777E-01</totfact>
</mgrwt>
</event>
<event>
 4    5  0.2295023E-007  0.7125274E+03  0.7818608E-02  0.9948733E-01
         -2   -1    0    0    0  501 -0.00000000000E+00  0.00000000000E+00  0.16951967771E+03  0.16951967773E+03  0.25500000000E-02 0.  1.
          2   -1    0    0  501    0  0.00000000000E+00 -0.00000000000E+00 -0.17579170545E+04  0.17579170545E+04  0.25500000000E-02 0. -1.
    8880023    1    1    2    0    0  0.26915012623E+03  0.37990569618E+02 -0.75760627169E+03  0.10400300683E+04  0.65864270000E+03 0.  1.
    8880022    1    1    2    0    0 -0.26915012623E+03 -0.37990569618E+02 -0.83079110512E+03  0.88740666394E+03  0.15294330000E+03 0.  0.
<mgrwt>
<rscale>  0 0.57956519E+03</rscale>
<asrwt>0</asrwt>
<pdfrwt beam="1">  1        2 0.27044877E+00 0.71252739E+03</pdfrwt>
<pdfrwt beam="2">  1       -2 0.26079952E-01 0.71252739E+03</pdfrwt>
<totfact> 0.12382884E+02</totfact>
</mgrwt>
</event>
<event>
 4    5  0.2295023E-007  0.1288009E+04  0.7818608E-02  0.9075985E-01
         -2   -1    0    0    0  501 -0.00000000000E+00  0.00000000000E+00  0.61568547273E+03  0.61568547273E+03  0.25500000000E-02 0.  1.
          2   -1    0    0  501    0  0.00000000000E+00 -0.00000000000E+00 -0.32309920257E+04  0.32309920257E+04  0.25500000000E-02 0. -1.
    8880023    1    1    2    0    0  0.80856866571E+03  0.75589250980E+03 -0.37226327634E+03  0.13407262684E+04  0.65864270000E+03 0.  1.
    8880022    1    1    2    0    0 -0.80856866571E+03 -0.75589250980E+03 -0.22430432766E+04  0.25059512300E+04  0.15294330000E+03 0.  0.
<mgrwt>
<rscale>  0 0.12430535E+04</rscale>
<asrwt>0</asrwt>
<pdfrwt beam="1">  1        2 0.49707569E+00 0.12880089E+04</pdfrwt>
<pdfrwt beam="2">  1       -2 0.94720843E-01 0.12880089E+04</pdfrwt>
<totfact> 0.11427480E+00</totfact>
</mgrwt>
</event>
<event>
 4    5  0.2295023E-007  0.9012729E+03  0.7818608E-02  0.9523991E-01
          2   -1    0    0  501    0  0.00000000000E+00  0.00000000000E+00  0.58827758680E+03  0.58827758681E+03  0.25500000000E-02 0. -1.
         -2   -1    0    0    0  501 -0.00000000000E+00 -0.00000000000E+00 -0.35210250443E+04  0.35210250443E+04  0.25500000000E-02 0.  1.
    8880023    1    1    2    0    0 -0.53864530925E+03 -0.29722708907E+03 -0.32695184017E+04  0.33914662754E+04  0.65864270000E+03 0.  0.
    8880022    1    1    2    0    0  0.53864530925E+03  0.29722708907E+03  0.33677094425E+03  0.71783635570E+03  0.15294330000E+03 0.  0.
<mgrwt>
<rscale>  0 0.82537923E+03</rscale>
<asrwt>0</asrwt>
<pdfrwt beam="1">  1        2 0.90504246E-01 0.90127294E+03</pdfrwt>
<pdfrwt beam="2">  1       -2 0.54169615E+00 0.90127294E+03</pdfrwt>
<totfact> 0.48594963E-02</totfact>
</mgrwt>
</event>
<event>
 4    5  0.2295023E-007  0.2412832E+04  0.7818608E-02  0.8442925E-01
         -2   -1    0    0    0  501 -0.00000000000E+00  0.00000000000E+00  0.19831385141E+04  0.19831385141E+04  0.25500000000E-02 0.  1.
          2   -1    0    0  501    0  0.00000000000E+00 -0.00000000000E+00 -0.31660999897E+04  0.31660999897E+04  0.25500000000E-02 0. -1.
    8880023    1    1    2    0    0 -0.13378905816E+04  0.18968387448E+04  0.23607307343E+03  0.24243533436E+04  0.65864270000E+03 0.  0.
    8880022    1    1    2    0    0  0.13378905816E+04 -0.18968387448E+04 -0.14190345490E+04  0.27248851602E+04  0.15294330000E+03 0.  0.
<mgrwt>
<rscale>  0 0.23908836E+04</rscale>
<asrwt>0</asrwt>
<pdfrwt beam="1">  1        2 0.48709230E+00 0.24128321E+04</pdfrwt>
<pdfrwt beam="2">  1       -2 0.30509823E+00 0.24128321E+04</pdfrwt>
<totfact> 0.34240400E-02</totfact>
</mgrwt>
</event>
<event>
 4    5  0.2295023E-007  0.9670351E+03  0.7818608E-02  0.9426017E-01
         -2   -1    0    0    0  501 -0.00000000000E+00  0.00000000000E+00  0.20278151737E+04  0.20278151737E+04  0.25500000000E-02 0.  1.
          2   -1    0    0  501    0  0.00000000000E+00 -0.00000000000E+00 -0.59593379517E+03  0.59593379518E+03  0.25500000000E-02 0. -1.
    8880023    1    1    2    0    0 -0.70117459995E+03 -0.98493354236E+02 -0.56254387614E+02  0.96866997622E+03  0.65864270000E+03 0.  0.
    8880022    1    1    2    0    0  0.70117459995E+03  0.98493354236E+02  0.14881357661E+04  0.16550789926E+04  0.15294330000E+03 0.  0.
<mgrwt>
<rscale>  0 0.89965200E+03</rscale>
<asrwt>0</asrwt>
<pdfrwt beam="1">  1        2 0.91682122E-01 0.96703514E+03</pdfrwt>
<pdfrwt beam="2">  1       -2 0.31197157E+00 0.96703514E+03</pdfrwt>
<totfact> 0.13583274E+00</totfact>
</mgrwt>
</event>
<event>
 4    5  0.2295023E-007  0.7526417E+03  0.7818608E-02  0.9824544E-01
         -2   -1    0    0    0  501 -0.00000000000E+00  0.00000000000E+00  0.31763228589E+03  0.31763228590E+03  0.25500000000E-02 0.  1.
          2   -1    0    0  501    0  0.00000000000E+00 -0.00000000000E+00 -0.18715506438E+04  0.18715506438E+04  0.25500000000E-02 0. -1.
    8880023    1    1    2    0    0 -0.60042035672E+02 -0.35924116406E+03 -0.19992801395E+03  0.77874301090E+03  0.65864270000E+03 0.  1.
    8880022    1    1    2    0    0  0.60042035672E+02  0.35924116406E+03 -0.13539903440E+04  0.14104399188E+04  0.15294330000E+03 0.  0.
<mgrwt>
<rscale>  0 0.64061850E+03</rscale>
<asrwt>0</asrwt>
<pdfrwt beam="1">  1        2 0.28793086E+00 0.75264166E+03</pdfrwt>
<pdfrwt beam="2">  1       -2 0.48866506E-01 0.75264166E+03</pdfrwt>
<totfact> 0.32143601E+01</totfact>
</mgrwt>
</event>
<event>
 4    5  0.2295023E-007  0.7841843E+03  0.7818608E-02  0.9746098E-01
          2   -1    0    0  501    0  0.00000000000E+00  0.00000000000E+00  0.11832807490E+04  0.11832807490E+04  0.25500000000E-02 0. -1.
         -2   -1    0    0    0  501 -0.00000000000E+00 -0.00000000000E+00 -0.48955264058E+03  0.48955264059E+03  0.25500000000E-02 0.  1.
    8880023    1    1    2    0    0  0.24417434902E+03 -0.34858820090E+03 -0.67832616092E+02  0.78711264543E+03  0.65864270000E+03 0.  1.
    8880022    1    1    2    0    0 -0.24417434902E+03  0.34858820090E+03  0.76156072453E+03  0.88572074419E+03  0.15294330000E+03 0.  0.
<mgrwt>
<rscale>  0 0.68337221E+03</rscale>
<asrwt>0</asrwt>
<pdfrwt beam="1">  1        2 0.18204319E+00 0.78418432E+03</pdfrwt>
<pdfrwt beam="2">  1       -2 0.75315791E-01 0.78418432E+03</pdfrwt>
<totfact> 0.31121313E+01</totfact>
</mgrwt>
</event>
<event>
 4    5  0.2295023E-007  0.1396995E+04  0.7818608E-02  0.8986021E-01
          2   -1    0    0  501    0  0.00000000000E+00  0.00000000000E+00  0.33180908823E+04  0.33180908823E+04  0.25500000000E-02 0. -1.
         -2   -1    0    0    0  501 -0.00000000000E+00 -0.00000000000E+00 -0.17951641078E+04  0.17951641078E+04  0.25500000000E-02 0.  1.
    8880023    1    1    2    0    0  0.10568807499E+04 -0.63307833869E+03  0.29244402353E+04  0.32409791728E+04  0.65864270000E+03 0.  0.
    8880022    1    1    2    0    0 -0.10568807499E+04  0.63307833869E+03 -0.14015134607E+04  0.18722758173E+04  0.15294330000E+03 0.  0.
<mgrwt>
<rscale>  0 0.13563686E+04</rscale>
<asrwt>0</asrwt>
<pdfrwt beam="1">  1        2 0.51047551E+00 0.13969951E+04</pdfrwt>
<pdfrwt beam="2">  1       -2 0.27617910E+00 0.13969951E+04</pdfrwt>
<totfact> 0.46161958E-02</totfact>
</mgrwt>
</event>
<event>
 4    5  0.2295023E-007  0.1099748E+04  0.7818608E-02  0.9261337E-01
         -2   -1    0    0    0  501 -0.00000000000E+00  0.00000000000E+00  0.14214169311E+04  0.14214169311E+04  0.25500000000E-02 0.  1.
          2   -1    0    0  501    0  0.00000000000E+00 -0.00000000000E+00 -0.99817691774E+03  0.99817691774E+03  0.25500000000E-02 0. -1.
    8880023    1    1    2    0    0  0.83725897012E+03 -0.27318889224E+03  0.88671906366E+03  0.14126980067E+04  0.65864270000E+03 0.  0.
    8880022    1    1    2    0    0 -0.83725897012E+03  0.27318889224E+03 -0.46347905032E+03  0.10068958422E+04  0.15294330000E+03 0.  0.
<mgrwt>
<rscale>  0 0.10442150E+04</rscale>
<asrwt>0</asrwt>
<pdfrwt beam="1">  1        2 0.15356568E+00 0.10997477E+04</pdfrwt>
<pdfrwt beam="2">  1       -2 0.21867953E+00 0.10997477E+04</pdfrwt>
<totfact> 0.25008158E+00</totfact>
</mgrwt>
</event>
<event>
 4    5  0.2295023E-007  0.1139277E+04  0.7818608E-02  0.9218536E-01
          2   -1    0    0  501    0  0.00000000000E+00  0.00000000000E+00  0.23937624746E+04  0.23937624746E+04  0.25500000000E-02 0. -1.
         -2   -1    0    0    0  501 -0.00000000000E+00 -0.00000000000E+00 -0.10485806563E+04  0.10485806563E+04  0.25500000000E-02 0.  1.
    8880023    1    1    2    0    0 -0.91849081733E+03 -0.14323929068E+03 -0.59517442980E+03  0.12853737527E+04  0.65864270000E+03 0.  0.
    8880022    1    1    2    0    0  0.91849081733E+03  0.14323929068E+03  0.19403562481E+04  0.21569693782E+04  0.15294330000E+03 0.  0.
<mgrwt>
<rscale>  0 0.10864138E+04</rscale>
<asrwt>0</asrwt>
<pdfrwt beam="1">  1        2 0.36827115E+00 0.11392774E+04</pdfrwt>
<pdfrwt beam="2">  1       -2 0.16132010E+00 0.11392774E+04</pdfrwt>
<totfact> 0.97114438E-01</totfact>
</mgrwt>
</event>
<event>
 4    5  0.2295023E-007  0.1273308E+04  0.7818608E-02  0.9088960E-01
          2   -1    0    0  501    0  0.00000000000E+00  0.00000000000E+00  0.16161285518E+04  0.16161285518E+04  0.25500000000E-02 0. -1.
         -2   -1    0    0    0  501 -0.00000000000E+00 -0.00000000000E+00 -0.88959404463E+03  0.88959404463E+03  0.25500000000E-02 0.  1.
    8880023    1    1    2    0    0 -0.81699404450E+03  0.72112703671E+03  0.21151110220E+03  0.12907558346E+04  0.65864270000E+03 0.  1.
    8880022    1    1    2    0    0  0.81699404450E+03 -0.72112703671E+03  0.51502340502E+03  0.12149667619E+04  0.15294330000E+03 0.  0.
<mgrwt>
<rscale>  0 0.12276893E+04</rscale>
<asrwt>0</asrwt>
<pdfrwt beam="1">  1        2 0.24863516E+00 0.12733082E+04</pdfrwt>
<pdfrwt beam="2">  1       -2 0.13686062E+00 0.12733082E+04</pdfrwt>
<totfact> 0.40211300E+00</totfact>
</mgrwt>
</event>
<event>
 4    5  0.2295023E-007  0.6714656E+03  0.7818608E-02  0.1014633E+00
         -2   -1    0    0    0  501 -0.00000000000E+00  0.00000000000E+00  0.33122940884E+03  0.33122940885E+03  0.25500000000E-02 0.  1.
          2   -1    0    0  501    0  0.00000000000E+00 -0.00000000000E+00 -0.65554387497E+03  0.65554387498E+03  0.25500000000E-02 0. -1.
    8880023    1    1    2    0    0  0.55541739618E+02 -0.11819890771E+03 -0.89180856873E+02  0.67736201408E+03  0.65864270000E+03 0.  1.
    8880022    1    1    2    0    0 -0.55541739618E+02  0.11819890771E+03 -0.23513360926E+03  0.30941126974E+03  0.15294330000E+03 0.  0.
<mgrwt>
<rscale>  0 0.49674021E+03</rscale>
<asrwt>0</asrwt>
<pdfrwt beam="1">  1        2 0.10085290E+00 0.67146562E+03</pdfrwt>
<pdfrwt beam="2">  1       -2 0.50958371E-01 0.67146562E+03</pdfrwt>
<totfact> 0.16428967E+02</totfact>
</mgrwt>
</event>
<event>
 4    5  0.2295023E-007  0.7622615E+03  0.7818608E-02  0.9799288E-01
         -2   -1    0    0    0  501 -0.00000000000E+00  0.00000000000E+00  0.78550668655E+03  0.78550668655E+03  0.25500000000E-02 0.  1.
          2   -1    0    0  501    0  0.00000000000E+00 -0.00000000000E+00 -0.53993266316E+03  0.53993266317E+03  0.25500000000E-02 0. -1.
    8880023    1    1    2    0    0 -0.31755036685E+03  0.21539299013E+03  0.42764429357E+03  0.87402644341E+03  0.65864270000E+03 0.  1.
    8880022    1    1    2    0    0  0.31755036685E+03 -0.21539299013E+03 -0.18207027019E+03  0.45141290631E+03  0.15294330000E+03 0.  0.
<mgrwt>
<rscale>  0 0.65400792E+03</rscale>
<asrwt>0</asrwt>
<pdfrwt beam="1">  1        2 0.83066565E-01 0.76226149E+03</pdfrwt>
<pdfrwt beam="2">  1       -2 0.12084718E+00 0.76226149E+03</pdfrwt>
<totfact> 0.29698629E+01</totfact>
</mgrwt>
</event>
<event>
 4    5  0.2295023E-007  0.7512197E+03  0.7818608E-02  0.9828393E-01
          2   -1    0    0  501    0  0.00000000000E+00  0.00000000000E+00  0.47812080269E+03  0.47812080270E+03  0.25500000000E-02 0. -1.
         -2   -1    0    0    0  501 -0.00000000000E+00 -0.00000000000E+00 -0.12407905671E+04  0.12407905671E+04  0.25500000000E-02 0.  1.
    8880023    1    1    2    0    0  0.34075468641E+03 -0.12002959828E+03 -0.10072976583E+04  0.12565745658E+04  0.65864270000E+03 0.  1.
    8880022    1    1    2    0    0 -0.34075468641E+03  0.12002959828E+03  0.24462789394E+03  0.46233680394E+03  0.15294330000E+03 0.  1.
<mgrwt>
<rscale>  0 0.63860818E+03</rscale>
<asrwt>0</asrwt>
<pdfrwt beam="1">  1        2 0.73557047E-01 0.75121972E+03</pdfrwt>
<pdfrwt beam="2">  1       -2 0.19089086E+00 0.75121972E+03</pdfrwt>
<totfact> 0.10091936E+01</totfact>
</mgrwt>
</event>
<event>
 4    5  0.2295023E-007  0.6592481E+03  0.7818608E-02  0.1024940E+00
         -2   -1    0    0    0  501 -0.00000000000E+00  0.00000000000E+00  0.10332229313E+04  0.10332229313E+04  0.25500000000E-02 0.  1.
          2   -1    0    0  501    0  0.00000000000E+00 -0.00000000000E+00 -0.68209305800E+03  0.68209305801E+03  0.25500000000E-02 0. -1.
    8880023    1    1    2    0    0 -0.25348770615E+02  0.12463277405E+02  0.91648320027E+03  0.11289595015E+04  0.65864270000E+03 0.  1.
    8880022    1    1    2    0    0  0.25348770615E+02 -0.12463277405E+02 -0.56535332696E+03  0.58635648779E+03  0.15294330000E+03 0.  0.
<mgrwt>
<rscale>  0 0.45945200E+03</rscale>
<asrwt>0</asrwt>
<pdfrwt beam="1">  1        2 0.10493739E+00 0.65924813E+03</pdfrwt>
<pdfrwt beam="2">  1       -2 0.15895737E+00 0.65924813E+03</pdfrwt>
<totfact> 0.11142568E+01</totfact>
</mgrwt>
</event>
<event>
 4    5  0.2295023E-007  0.1367317E+04  0.7818608E-02  0.9009503E-01
         -2   -1    0    0    0  501 -0.00000000000E+00  0.00000000000E+00  0.12044556201E+04  0.12044556201E+04  0.25500000000E-02 0.  1.
          2   -1    0    0  501    0  0.00000000000E+00 -0.00000000000E+00 -0.37163378356E+04  0.37163378356E+04  0.25500000000E-02 0. -1.
    8880023    1    1    2    0    0 -0.18690728855E+03 -0.11835589506E+04  0.66613468120E+03  0.15209509340E+04  0.65864270000E+03 0.  0.
    8880022    1    1    2    0    0  0.18690728855E+03  0.11835589506E+04 -0.31780168967E+04  0.33998425217E+04  0.15294330000E+03 0.  0.
<mgrwt>
<rscale>  0 0.13256046E+04</rscale>
<asrwt>0</asrwt>
<pdfrwt beam="1">  1        2 0.57174428E+00 0.13673172E+04</pdfrwt>
<pdfrwt beam="2">  1       -2 0.18530087E+00 0.13673172E+04</pdfrwt>
<totfact> 0.91915420E-02</totfact>
</mgrwt>
</event>
<event>
 4    5  0.2295023E-007  0.8145203E+03  0.7818608E-02  0.9680237E-01
          2   -1    0    0  501    0  0.00000000000E+00  0.00000000000E+00  0.14019044756E+04  0.14019044756E+04  0.25500000000E-02 0. -1.
         -2   -1    0    0    0  501 -0.00000000000E+00 -0.00000000000E+00 -0.63487842183E+03  0.63487842183E+03  0.25500000000E-02 0.  1.
    8880023    1    1    2    0    0 -0.47895005348E+03  0.15488004870E+02 -0.29126430992E+03  0.86503071420E+03  0.65864270000E+03 0.  1.
    8880022    1    1    2    0    0  0.47895005348E+03 -0.15488004870E+02  0.10582903637E+04  0.11717521832E+04  0.15294330000E+03 0.  0.
<mgrwt>
<rscale>  0 0.72205749E+03</rscale>
<asrwt>0</asrwt>
<pdfrwt beam="1">  1        2 0.21567761E+00 0.81452025E+03</pdfrwt>
<pdfrwt beam="2">  1       -2 0.97673604E-01 0.81452025E+03</pdfrwt>
<totfact> 0.12789460E+01</totfact>
</mgrwt>
</event>
<event>
 4    5  0.3583374E-007  0.1250454E+04  0.7818608E-02  0.9109573E-01
          2   -1    0    0  501    0  0.00000000000E+00  0.00000000000E+00  0.28346714095E+04  0.28346714095E+04  0.25500000000E-02 0. -1.
         -2   -1    0    0    0  501 -0.00000000000E+00 -0.00000000000E+00 -0.13847368295E+04  0.13847368295E+04  0.25500000000E-02 0.  1.
    8880023    1    1    2    0    0  0.50930580980E+03 -0.93296951694E+03 -0.96300356646E+03  0.15782935730E+04  0.65864270000E+03 0.  0.
    8880022    1    1    2    0    0 -0.50930580980E+03  0.93296951694E+03  0.24129381464E+04  0.26411146660E+04  0.15294330000E+03 0.  0.
<mgrwt>
<rscale>  0 0.12037591E+04</rscale>
<asrwt>0</asrwt>
<pdfrwt beam="1">  1        2 0.43610329E+00 0.12504538E+04</pdfrwt>
<pdfrwt beam="2">  1       -2 0.21303644E+00 0.12504538E+04</pdfrwt>
<totfact> 0.23460815E-01</totfact>
</mgrwt>
</event>
<event>
 4    5  0.2295023E-007  0.7739765E+03  0.7818608E-02  0.9770181E-01
         -2   -1    0    0    0  501 -0.00000000000E+00  0.00000000000E+00  0.26103526744E+03  0.26103526745E+03  0.25500000000E-02 0.  1.
          2   -1    0    0  501    0  0.00000000000E+00 -0.00000000000E+00 -0.18326027103E+04  0.18326027103E+04  0.25500000000E-02 0. -1.
    8880023    1    1    2    0    0 -0.17263388258E+03  0.36800393449E+03 -0.46027856603E+03  0.90049759457E+03  0.65864270000E+03 0.  0.
    8880022    1    1    2    0    0  0.17263388258E+03 -0.36800393449E+03 -0.11112888768E+04  0.11931403832E+04  0.15294330000E+03 0.  0.
<mgrwt>
<rscale>  0 0.66987624E+03</rscale>
<asrwt>0</asrwt>
<pdfrwt beam="1">  1        2 0.28193887E+00 0.77397646E+03</pdfrwt>
<pdfrwt beam="2">  1       -2 0.40159273E-01 0.77397646E+03</pdfrwt>
<totfact> 0.49744473E+01</totfact>
</mgrwt>
</event>
<event>
 4    5  0.2295023E-007  0.1164289E+04  0.7818608E-02  0.9192642E-01
         -2   -1    0    0    0  501 -0.00000000000E+00  0.00000000000E+00  0.59154633027E+03  0.59154633028E+03  0.25500000000E-02 0.  1.
          2   -1    0    0  501    0  0.00000000000E+00 -0.00000000000E+00 -0.31064404134E+04  0.31064404134E+04  0.25500000000E-02 0. -1.
    8880023    1    1    2    0    0  0.78196420708E+03  0.55703816629E+03 -0.19220986283E+03  0.11800484640E+04  0.65864270000E+03 0.  1.
    8880022    1    1    2    0    0 -0.78196420708E+03 -0.55703816629E+03 -0.23226842203E+04  0.25179382797E+04  0.15294330000E+03 0.  0.
<mgrwt>
<rscale>  0 0.11129698E+04</rscale>
<asrwt>0</asrwt>
<pdfrwt beam="1">  1        2 0.47791390E+00 0.11642894E+04</pdfrwt>
<pdfrwt beam="2">  1       -2 0.91007130E-01 0.11642894E+04</pdfrwt>
<totfact> 0.15330273E+00</totfact>
</mgrwt>
</event>
<event>
 4    5  0.2295023E-007  0.1770978E+04  0.7818608E-02  0.8738762E-01
          2   -1    0    0  501    0  0.00000000000E+00  0.00000000000E+00  0.18945174486E+04  0.18945174486E+04  0.25500000000E-02 0. -1.
         -2   -1    0    0    0  501 -0.00000000000E+00 -0.00000000000E+00 -0.18782119235E+04  0.18782119235E+04  0.25500000000E-02 0.  1.
    8880023    1    1    2    0    0  0.30485966749E+03  0.16154298319E+04 -0.78541425059E+03  0.19373277239E+04  0.65864270000E+03 0.  0.
    8880022    1    1    2    0    0 -0.30485966749E+03 -0.16154298319E+04  0.80171977568E+03  0.18354016482E+04  0.15294330000E+03 0.  0.
<mgrwt>
<rscale>  0 0.17402014E+04</rscale>
<asrwt>0</asrwt>
<pdfrwt beam="1">  1        2 0.29146422E+00 0.17709780E+04</pdfrwt>
<pdfrwt beam="2">  1       -2 0.28895568E+00 0.17709780E+04</pdfrwt>
<totfact> 0.25886555E-01</totfact>
</mgrwt>
</event>
<event>
 4    5  0.2295023E-007  0.1456408E+04  0.7818608E-02  0.8941047E-01
          2   -1    0    0  501    0  0.00000000000E+00  0.00000000000E+00  0.44694317060E+04  0.44694317060E+04  0.25500000000E-02 0. -1.
         -2   -1    0    0    0  501 -0.00000000000E+00 -0.00000000000E+00 -0.59682277997E+03  0.59682277998E+03  0.25500000000E-02 0.  1.
    8880023    1    1    2    0    0 -0.66740070334E+03  0.11144010407E+04  0.66268280390E+03  0.16000850238E+04  0.65864270000E+03 0.  0.
    8880022    1    1    2    0    0  0.66740070334E+03 -0.11144010407E+04  0.32099261221E+04  0.34661694622E+04  0.15294330000E+03 0.  0.
<mgrwt>
<rscale>  0 0.14177809E+04</rscale>
<asrwt>0</asrwt>
<pdfrwt beam="1">  1        2 0.68760491E+00 0.14564078E+04</pdfrwt>
<pdfrwt beam="2">  1       -2 0.91818886E-01 0.14564078E+04</pdfrwt>
<totfact> 0.13135745E-01</totfact>
</mgrwt>
</event>
<event>
 4    5  0.2295023E-007  0.1437226E+04  0.7818608E-02  0.8955284E-01
          2   -1    0    0  501    0  0.00000000000E+00  0.00000000000E+00  0.20428349001E+04  0.20428349001E+04  0.25500000000E-02 0. -1.
         -2   -1    0    0    0  501 -0.00000000000E+00 -0.00000000000E+00 -0.15652328567E+04  0.15652328567E+04  0.25500000000E-02 0.  1.
    8880023    1    1    2    0    0  0.71225635022E+03 -0.10604234850E+04 -0.92156952109E+03  0.17073100669E+04  0.65864270000E+03 0.  0.
    8880022    1    1    2    0    0 -0.71225635022E+03  0.10604234850E+04  0.13991715645E+04  0.19007576900E+04  0.15294330000E+03 0.  0.
<mgrwt>
<rscale>  0 0.13979768E+04</rscale>
<asrwt>0</asrwt>
<pdfrwt beam="1">  1        2 0.31428229E+00 0.14372256E+04</pdfrwt>
<pdfrwt beam="2">  1       -2 0.24080506E+00 0.14372256E+04</pdfrwt>
<totfact> 0.43727908E-01</totfact>
</mgrwt>
</event>
<event>
 4    5  0.2295023E-007  0.8428130E+03  0.7818608E-02  0.9624899E-01
          2   -1    0    0  501    0  0.00000000000E+00  0.00000000000E+00  0.17167992063E+04  0.17167992063E+04  0.25500000000E-02 0. -1.
         -2   -1    0    0    0  501 -0.00000000000E+00 -0.00000000000E+00 -0.39310116270E+03  0.39310116271E+03  0.25500000000E-02 0.  1.
    8880023    1    1    2    0    0  0.50781617691E+03  0.13655166841E+03  0.20961063576E+03  0.86848745101E+03  0.65864270000E+03 0.  1.
    8880022    1    1    2    0    0 -0.50781617691E+03 -0.13655166841E+03  0.11140874078E+04  0.12414129180E+04  0.15294330000E+03 0. -1.
<mgrwt>
<rscale>  0 0.75669918E+03</rscale>
<asrwt>0</asrwt>
<pdfrwt beam="1">  1        2 0.26412295E+00 0.84281305E+03</pdfrwt>
<pdfrwt beam="2">  1       -2 0.60477103E-01 0.84281305E+03</pdfrwt>
<totfact> 0.24845690E+01</totfact>
</mgrwt>
</event>
<event>
 4    5  0.2295023E-007  0.1031552E+04  0.7818608E-02  0.9341395E-01
         -2   -1    0    0    0  501 -0.00000000000E+00  0.00000000000E+00  0.13981475983E+04  0.13981475983E+04  0.25500000000E-02 0.  1.
          2   -1    0    0  501    0  0.00000000000E+00 -0.00000000000E+00 -0.15347859676E+04  0.15347859676E+04  0.25500000000E-02 0. -1.
    8880023    1    1    2    0    0  0.59768131340E+03 -0.52255699193E+03  0.10662557923E+04  0.14835768882E+04  0.65864270000E+03 0.  0.
    8880022    1    1    2    0    0 -0.59768131340E+03  0.52255699193E+03 -0.12028941617E+04  0.14493566778E+04  0.15294330000E+03 0.  0.
<mgrwt>
<rscale>  0 0.97059700E+03</rscale>
<asrwt>0</asrwt>
<pdfrwt beam="1">  1        2 0.23612092E+00 0.10315517E+04</pdfrwt>
<pdfrwt beam="2">  1       -2 0.21509963E+00 0.10315517E+04</pdfrwt>
<totfact> 0.12763406E+00</totfact>
</mgrwt>
</event>
<event>
 4    5  0.2735937E-007  0.1428200E+04  0.7818608E-02  0.8962075E-01
         -2   -1    0    0    0  501 -0.00000000000E+00  0.00000000000E+00  0.12460869760E+04  0.12460869760E+04  0.25500000000E-02 0.  1.
          2   -1    0    0  501    0  0.00000000000E+00 -0.00000000000E+00 -0.32110006228E+04  0.32110006228E+04  0.25500000000E-02 0. -1.
    8880023    1    1    2    0    0 -0.18115903909E+03 -0.12542431153E+04  0.63325583564E+03  0.15622956025E+04  0.65864270000E+03 0.  1.
    8880022    1    1    2    0    0  0.18115903909E+03  0.12542431153E+04 -0.25981694825E+04  0.28947919964E+04  0.15294330000E+03 0.  0.
<mgrwt>
<rscale>  0 0.13886508E+04</rscale>
<asrwt>0</asrwt>
<pdfrwt beam="1">  1        2 0.49400009E+00 0.14281998E+04</pdfrwt>
<pdfrwt beam="2">  1       -2 0.19170569E+00 0.14281998E+04</pdfrwt>
<totfact> 0.18372893E-01</totfact>
</mgrwt>
</event>
<event>
 4    5  0.2295023E-007  0.7625258E+03  0.7818608E-02  0.9798612E-01
         -2   -1    0    0    0  501 -0.00000000000E+00  0.00000000000E+00  0.35468306054E+03  0.35468306055E+03  0.25500000000E-02 0.  1.
          2   -1    0    0  501    0  0.00000000000E+00 -0.00000000000E+00 -0.29256169839E+04  0.29256169839E+04  0.25500000000E-02 0. -1.
    8880023    1    1    2    0    0  0.31768504710E+03  0.21612863409E+03 -0.93095934261E+02  0.76818776016E+03  0.65864270000E+03 0.  1.
    8880022    1    1    2    0    0 -0.31768504710E+03 -0.21612863409E+03 -0.24778379891E+04  0.25121122843E+04  0.15294330000E+03 0.  0.
<mgrwt>
<rscale>  0 0.65437093E+03</rscale>
<asrwt>0</asrwt>
<pdfrwt beam="1">  1        2 0.45009490E+00 0.76252579E+03</pdfrwt>
<pdfrwt beam="2">  1       -2 0.54566627E-01 0.76252579E+03</pdfrwt>
<totfact> 0.64917868E+00</totfact>
</mgrwt>
</event>
<event>
 4    5  0.2295023E-007  0.9761322E+03  0.7818608E-02  0.9413472E-01
         -2   -1    0    0    0  501 -0.00000000000E+00  0.00000000000E+00  0.59404124658E+03  0.59404124659E+03  0.25500000000E-02 0.  1.
          2   -1    0    0  501    0  0.00000000000E+00 -0.00000000000E+00 -0.25693131597E+04  0.25693131597E+04  0.25500000000E-02 0. -1.
    8880023    1    1    2    0    0 -0.57544574187E+03 -0.43345825393E+03  0.80688451439E+02  0.97946142966E+03  0.65864270000E+03 0.  0.
    8880022    1    1    2    0    0  0.57544574187E+03  0.43345825393E+03 -0.20559603646E+04  0.21838929766E+04  0.15294330000E+03 0.  0.
<mgrwt>
<rscale>  0 0.90975194E+03</rscale>
<asrwt>0</asrwt>
<pdfrwt beam="1">  1        2 0.39527894E+00 0.97613220E+03</pdfrwt>
<pdfrwt beam="2">  1       -2 0.91390963E-01 0.97613220E+03</pdfrwt>
<totfact> 0.32809334E+00</totfact>
</mgrwt>
</event>
<event>
 4    5  0.2295023E-007  0.1611681E+04  0.7818608E-02  0.8834551E-01
         -2   -1    0    0    0  501 -0.00000000000E+00  0.00000000000E+00  0.60203285661E+03  0.60203285662E+03  0.25500000000E-02 0.  1.
          2   -1    0    0  501    0  0.00000000000E+00 -0.00000000000E+00 -0.43112626609E+04  0.43112626609E+04  0.25500000000E-02 0. -1.
    8880023    1    1    2    0    0  0.14259104476E+04 -0.36122659257E+03 -0.26221559318E+04  0.30778591898E+04  0.65864270000E+03 0. -1.
    8880022    1    1    2    0    0 -0.14259104476E+04  0.36122659257E+03 -0.10870738725E+04  0.18354363277E+04  0.15294330000E+03 0.  1.
<mgrwt>
<rscale>  0 0.15774035E+04</rscale>
<asrwt>0</asrwt>
<pdfrwt beam="1">  1        2 0.66327116E+00 0.16116809E+04</pdfrwt>
<pdfrwt beam="2">  1       -2 0.92620442E-01 0.16116809E+04</pdfrwt>
<totfact> 0.17652472E-01</totfact>
</mgrwt>
</event>
<event>
 4    5  0.2295023E-007  0.1034422E+04  0.7818608E-02  0.9337846E-01
         -2   -1    0    0    0  501 -0.00000000000E+00  0.00000000000E+00  0.67701589818E+03  0.67701589818E+03  0.25500000000E-02 0.  1.
          2   -1    0    0  501    0  0.00000000000E+00 -0.00000000000E+00 -0.27424446093E+04  0.27424446093E+04  0.25500000000E-02 0. -1.
    8880023    1    1    2    0    0 -0.78597745717E+03 -0.13586369771E+03  0.16341953781E+03  0.10472514785E+04  0.65864270000E+03 0.  0.
    8880022    1    1    2    0    0  0.78597745717E+03  0.13586369771E+03 -0.22288482489E+04  0.23722090290E+04  0.15294330000E+03 0.  0.
<mgrwt>
<rscale>  0 0.97372078E+03</rscale>
<asrwt>0</asrwt>
<pdfrwt beam="1">  1        2 0.42191455E+00 0.10344224E+04</pdfrwt>
<pdfrwt beam="2">  1       -2 0.10415629E+00 0.10344224E+04</pdfrwt>
<totfact> 0.18922949E+00</totfact>
</mgrwt>
</event>
<event>
 4    5  0.2295023E-007  0.8947641E+03  0.7818608E-02  0.9534490E-01
          2   -1    0    0  501    0  0.00000000000E+00  0.00000000000E+00  0.10106081135E+04  0.10106081135E+04  0.25500000000E-02 0. -1.
         -2   -1    0    0    0  501 -0.00000000000E+00 -0.00000000000E+00 -0.60138327703E+03  0.60138327704E+03  0.25500000000E-02 0.  1.
    8880023    1    1    2    0    0  0.15934378473E+03 -0.58429621726E+03  0.61007628520E+02  0.89684148445E+03  0.65864270000E+03 0.  0.
    8880022    1    1    2    0    0 -0.15934378473E+03  0.58429621726E+03  0.34821720791E+03  0.71514990605E+03  0.15294330000E+03 0.  1.
<mgrwt>
<rscale>  0 0.81788097E+03</rscale>
<asrwt>0</asrwt>
<pdfrwt beam="1">  1        2 0.15547817E+00 0.89476406E+03</pdfrwt>
<pdfrwt beam="2">  1       -2 0.92520504E-01 0.89476406E+03</pdfrwt>
<totfact> 0.24654356E+01</totfact>
</mgrwt>
</event>
<event>
 4    5  0.2295023E-007  0.1449307E+04  0.7818608E-02  0.8946287E-01
          2   -1    0    0  501    0  0.00000000000E+00  0.00000000000E+00  0.23786937772E+04  0.23786937772E+04  0.25500000000E-02 0. -1.
         -2   -1    0    0    0  501 -0.00000000000E+00 -0.00000000000E+00 -0.11745075961E+04  0.11745075961E+04  0.25500000000E-02 0.  1.
    8880023    1    1    2    0    0 -0.26374098073E+03  0.12637730651E+04 -0.38542671338E+03  0.14996818404E+04  0.65864270000E+03 0.  0.
    8880022    1    1    2    0    0  0.26374098073E+03 -0.12637730651E+04  0.15896128944E+04  0.20535195329E+04  0.15294330000E+03 0.  0.
<mgrwt>
<rscale>  0 0.14104528E+04</rscale>
<asrwt>0</asrwt>
<pdfrwt beam="1">  1        2 0.36595289E+00 0.14493074E+04</pdfrwt>
<pdfrwt beam="2">  1       -2 0.18069348E+00 0.14493074E+04</pdfrwt>
<totfact> 0.69373093E-01</totfact>
</mgrwt>
</event>
<event>
 4    5  0.2295023E-007  0.6869861E+03  0.7818608E-02  0.1005619E+00
         -2   -1    0    0    0  501 -0.00000000000E+00  0.00000000000E+00  0.22412083203E+03  0.22412083204E+03  0.25500000000E-02 0.  1.
          2   -1    0    0  501    0  0.00000000000E+00 -0.00000000000E+00 -0.11212524856E+04  0.11212524856E+04  0.25500000000E-02 0. -1.
    8880023    1    1    2    0    0 -0.19347841401E+03  0.26567789221E+02 -0.41348085115E+03  0.80182065616E+03  0.65864270000E+03 0.  1.
    8880022    1    1    2    0    0  0.19347841401E+03 -0.26567789221E+02 -0.48365080246E+03  0.54355266152E+03  0.15294330000E+03 0.  0.
<mgrwt>
<rscale>  0 0.53253490E+03</rscale>
<asrwt>0</asrwt>
<pdfrwt beam="1">  1        2 0.17250038E+00 0.68698614E+03</pdfrwt>
<pdfrwt beam="2">  1       -2 0.34480129E-01 0.68698614E+03</pdfrwt>
<totfact> 0.16933561E+02</totfact>
</mgrwt>
</event>
<event>
 4    5  0.2295023E-007  0.1158286E+04  0.7818608E-02  0.9198778E-01
         -2   -1    0    0    0  501 -0.00000000000E+00  0.00000000000E+00  0.72636196754E+03  0.72636196754E+03  0.25500000000E-02 0.  1.
          2   -1    0    0  501    0  0.00000000000E+00 -0.00000000000E+00 -0.24990684602E+04  0.24990684602E+04  0.25500000000E-02 0. -1.
    8880023    1    1    2    0    0 -0.85959437873E+03  0.41099061440E+03  0.53954032710E+02  0.11595417306E+04  0.65864270000E+03 0.  0.
    8880022    1    1    2    0    0  0.85959437873E+03 -0.41099061440E+03 -0.18266605254E+04  0.20658886972E+04  0.15294330000E+03 0.  0.
<mgrwt>
<rscale>  0 0.11066049E+04</rscale>
<asrwt>0</asrwt>
<pdfrwt beam="1">  1        2 0.38447207E+00 0.11582858E+04</pdfrwt>
<pdfrwt beam="2">  1       -2 0.11174800E+00 0.11582858E+04</pdfrwt>
<totfact> 0.21748395E+00</totfact>
</mgrwt>
</event>
<event>
 4    5  0.2295023E-007  0.6924056E+03  0.7818608E-02  0.1003030E+00
         -2   -1    0    0    0  501 -0.00000000000E+00  0.00000000000E+00  0.58592565713E+03  0.58592565713E+03  0.25500000000E-02 0.  1.
          2   -1    0    0  501    0  0.00000000000E+00 -0.00000000000E+00 -0.56007957175E+03  0.56007957176E+03  0.25500000000E-02 0. -1.
    8880023    1    1    2    0    0 -0.21056947222E+03  0.35719027752E+02  0.31034564831E+03  0.75877531540E+03  0.65864270000E+03 0.  1.
    8880022    1    1    2    0    0  0.21056947222E+03 -0.35719027752E+02 -0.28449956293E+03  0.38722991349E+03  0.15294330000E+03 0.  0.
<mgrwt>
<rscale>  0 0.54341559E+03</rscale>
<asrwt>0</asrwt>
<pdfrwt beam="1">  1        2 0.86166088E-01 0.69240563E+03</pdfrwt>
<pdfrwt beam="2">  1       -2 0.90142409E-01 0.69240563E+03</pdfrwt>
<totfact> 0.57633701E+01</totfact>
</mgrwt>
</event>
<event>
 4    5  0.2295023E-007  0.1173452E+04  0.7818608E-02  0.9183371E-01
         -2   -1    0    0    0  501 -0.00000000000E+00  0.00000000000E+00  0.11442933371E+04  0.11442933371E+04  0.25500000000E-02 0.  1.
          2   -1    0    0  501    0  0.00000000000E+00 -0.00000000000E+00 -0.13358129736E+04  0.13358129736E+04  0.25500000000E-02 0. -1.
    8880023    1    1    2    0    0  0.95389877890E+03  0.18236188056E+03 -0.70704406108E+03  0.13700000899E+04  0.65864270000E+03 0. -1.
    8880022    1    1    2    0    0 -0.95389877890E+03 -0.18236188056E+03  0.51552442459E+03  0.11101062207E+04  0.15294330000E+03 0.  0.
<mgrwt>
<rscale>  0 0.11226726E+04</rscale>
<asrwt>0</asrwt>
<pdfrwt beam="1">  1        2 0.20550969E+00 0.11734517E+04</pdfrwt>
<pdfrwt beam="2">  1       -2 0.17604513E+00 0.11734517E+04</pdfrwt>
<totfact> 0.29632662E+00</totfact>
</mgrwt>
</event>
<event>
 4    5  0.3269685E-007  0.1034014E+04  0.7818608E-02  0.9338350E-01
         -2   -1    0    0    0  501 -0.00000000000E+00  0.00000000000E+00  0.19290947604E+04  0.19290947604E+04  0.25500000000E-02 0.  1.
          2   -1    0    0  501    0  0.00000000000E+00 -0.00000000000E+00 -0.42666738093E+04  0.42666738093E+04  0.25500000000E-02 0. -1.
    8880023    1    1    2    0    0  0.25908229613E+03  0.75382429587E+03  0.17476827069E+04  0.20306599311E+04  0.65864270000E+03 0.  0.
    8880022    1    1    2    0    0 -0.25908229613E+03 -0.75382429587E+03 -0.40852617558E+04  0.41651086386E+04  0.15294330000E+03 0.  0.
<mgrwt>
<rscale>  0 0.97327649E+03</rscale>
<asrwt>0</asrwt>
<pdfrwt beam="1">  1        2 0.65641135E+00 0.10340140E+04</pdfrwt>
<pdfrwt beam="2">  1       -2 0.29678381E+00 0.10340140E+04</pdfrwt>
<totfact> 0.71755402E-03</totfact>
</mgrwt>
</event>
<event>
 4    5  0.2295023E-007  0.1100027E+04  0.7818608E-02  0.9261027E-01
         -2   -1    0    0    0  501 -0.00000000000E+00  0.00000000000E+00  0.14031186779E+04  0.14031186779E+04  0.25500000000E-02 0.  1.
          2   -1    0    0  501    0  0.00000000000E+00 -0.00000000000E+00 -0.18381920170E+04  0.18381920170E+04  0.25500000000E-02 0. -1.
    8880023    1    1    2    0    0 -0.12612652315E+03 -0.87197490081E+03  0.10416401202E+04  0.15149496605E+04  0.65864270000E+03 0.  0.
    8880022    1    1    2    0    0  0.12612652315E+03  0.87197490081E+03 -0.14767134593E+04  0.17263610344E+04  0.15294330000E+03 0.  0.
<mgrwt>
<rscale>  0 0.10445138E+04</rscale>
<asrwt>0</asrwt>
<pdfrwt beam="1">  1        2 0.28279877E+00 0.11000265E+04</pdfrwt>
<pdfrwt beam="2">  1       -2 0.21586441E+00 0.11000265E+04</pdfrwt>
<totfact> 0.84868880E-01</totfact>
</mgrwt>
</event>
<event>
 4    5  0.2295023E-007  0.7631930E+03  0.7818608E-02  0.9796910E-01
         -2   -1    0    0    0  501 -0.00000000000E+00  0.00000000000E+00  0.53794263643E+03  0.53794263644E+03  0.25500000000E-02 0.  1.
          2   -1    0    0  501    0  0.00000000000E+00 -0.00000000000E+00 -0.10202250391E+04  0.10202250391E+04  0.25500000000E-02 0. -1.
    8880023    1    1    2    0    0  0.35624662290E+03 -0.14745061365E+03  0.17308150839E+03  0.78257316246E+03  0.65864270000E+03 0.  0.
    8880022    1    1    2    0    0 -0.35624662290E+03  0.14745061365E+03 -0.65536391110E+03  0.77559451312E+03  0.15294330000E+03 0.  0.
<mgrwt>
<rscale>  0 0.65528622E+03</rscale>
<asrwt>0</asrwt>
<pdfrwt beam="1">  1        2 0.15695770E+00 0.76319299E+03</pdfrwt>
<pdfrwt beam="2">  1       -2 0.82760406E-01 0.76319299E+03</pdfrwt>
<totfact> 0.31771265E+01</totfact>
</mgrwt>
</event>
<event>
 4    5  0.2295023E-007  0.7720072E+03  0.7818608E-02  0.9774959E-01
         -2   -1    0    0    0  501 -0.00000000000E+00  0.00000000000E+00  0.16118537057E+03  0.16118537059E+03  0.25500000000E-02 0.  1.
          2   -1    0    0  501    0  0.00000000000E+00 -0.00000000000E+00 -0.23037763812E+04  0.23037763812E+04  0.25500000000E-02 0. -1.
    8880023    1    1    2    0    0  0.24880756717E+03  0.31666975868E+03 -0.11765004352E+04  0.14071774664E+04  0.65864270000E+03 0.  0.
    8880022    1    1    2    0    0 -0.24880756717E+03 -0.31666975868E+03 -0.96609057541E+03  0.10577842854E+04  0.15294330000E+03 0.  1.
<mgrwt>
<rscale>  0 0.66723900E+03</rscale>
<asrwt>0</asrwt>
<pdfrwt beam="1">  1        2 0.35442711E+00 0.77200722E+03</pdfrwt>
<pdfrwt beam="2">  1       -2 0.24797751E-01 0.77200722E+03</pdfrwt>
<totfact> 0.67714084E+01</totfact>
</mgrwt>
</event>
<event>
 4    5  0.2295023E-007  0.9533655E+03  0.7818608E-02  0.9445288E-01
          2   -1    0    0  501    0  0.00000000000E+00  0.00000000000E+00  0.11901891722E+04  0.11901891722E+04  0.25500000000E-02 0. -1.
         -2   -1    0    0    0  501 -0.00000000000E+00 -0.00000000000E+00 -0.84403846217E+03  0.84403846218E+03  0.25500000000E-02 0.  1.
    8880023    1    1    2    0    0 -0.57727751030E+03  0.37662471431E+03 -0.37549163746E+03  0.10246461220E+04  0.65864270000E+03 0.  0.
    8880022    1    1    2    0    0  0.57727751030E+03 -0.37662471431E+03  0.72164234745E+03  0.10095815123E+04  0.15294330000E+03 0.  0.
<mgrwt>
<rscale>  0 0.88440524E+03</rscale>
<asrwt>0</asrwt>
<pdfrwt beam="1">  1        2 0.18310603E+00 0.95336546E+03</pdfrwt>
<pdfrwt beam="2">  1       -2 0.12985207E+00 0.95336546E+03</pdfrwt>
<totfact> 0.83344992E+00</totfact>
</mgrwt>
</event>
<event>
 4    5  0.2295023E-007  0.1330275E+04  0.7818608E-02  0.9039847E-01
          2   -1    0    0  501    0  0.00000000000E+00  0.00000000000E+00  0.17686368759E+04  0.17686368759E+04  0.25500000000E-02 0. -1.
         -2   -1    0    0    0  501 -0.00000000000E+00 -0.00000000000E+00 -0.12322737799E+04  0.12322737799E+04  0.25500000000E-02 0.  1.
    8880023    1    1    2    0    0 -0.51008952702E+03 -0.10371253647E+04 -0.51938608355E+03  0.14280729875E+04  0.65864270000E+03 0.  0.
    8880022    1    1    2    0    0  0.51008952702E+03  0.10371253647E+04  0.10557491796E+04  0.15728376683E+04  0.15294330000E+03 0.  0.
<mgrwt>
<rscale>  0 0.12871136E+04</rscale>
<asrwt>0</asrwt>
<pdfrwt beam="1">  1        2 0.27209798E+00 0.13302746E+04</pdfrwt>
<pdfrwt beam="2">  1       -2 0.18958058E+00 0.13302746E+04</pdfrwt>
<totfact> 0.13406647E+00</totfact>
</mgrwt>
</event>
<event>
 4    5  0.2295023E-007  0.1422955E+04  0.7818608E-02  0.8966048E-01
          2   -1    0    0  501    0  0.00000000000E+00  0.00000000000E+00  0.23882685222E+04  0.23882685222E+04  0.25500000000E-02 0. -1.
         -2   -1    0    0    0  501 -0.00000000000E+00 -0.00000000000E+00 -0.11039744358E+04  0.11039744358E+04  0.25500000000E-02 0.  1.
    8880023    1    1    2    0    0 -0.42601493217E+03  0.11872241875E+04  0.16415026958E+04  0.21724021958E+04  0.65864270000E+03 0.  0.
    8880022    1    1    2    0    0  0.42601493217E+03 -0.11872241875E+04 -0.35720860942E+03  0.13198407622E+04  0.15294330000E+03 0.  0.
<mgrwt>
<rscale>  0 0.13832290E+04</rscale>
<asrwt>0</asrwt>
<pdfrwt beam="1">  1        2 0.36742593E+00 0.14229547E+04</pdfrwt>
<pdfrwt beam="2">  1       -2 0.16984222E+00 0.14229547E+04</pdfrwt>
<totfact> 0.81946365E-01</totfact>
</mgrwt>
</event>
<event>
 4    5  0.2295023E-007  0.1266735E+04  0.7818608E-02  0.9094832E-01
         -2   -1    0    0    0  501 -0.00000000000E+00  0.00000000000E+00  0.13108747868E+04  0.13108747868E+04  0.25500000000E-02 0.  1.
          2   -1    0    0  501    0  0.00000000000E+00 -0.00000000000E+00 -0.16375296938E+04  0.16375296938E+04  0.25500000000E-02 0. -1.
    8880023    1    1    2    0    0  0.59961482674E+03  0.90070514147E+03  0.70147008978E+03  0.14479910861E+04  0.65864270000E+03 0.  1.
    8880022    1    1    2    0    0 -0.59961482674E+03 -0.90070514147E+03 -0.10281249968E+04  0.15004133945E+04  0.15294330000E+03 0.  0.
<mgrwt>
<rscale>  0 0.12208125E+04</rscale>
<asrwt>0</asrwt>
<pdfrwt beam="1">  1        2 0.25192765E+00 0.12667351E+04</pdfrwt>
<pdfrwt beam="2">  1       -2 0.20167304E+00 0.12667351E+04</pdfrwt>
<totfact> 0.13268315E+00</totfact>
</mgrwt>
</event>
<event>
 4    5  0.2295023E-007  0.6680308E+03  0.7818608E-02  0.1017116E+00
          2   -1    0    0  501    0  0.00000000000E+00  0.00000000000E+00  0.71978040114E+03  0.71978040114E+03  0.25500000000E-02 0. -1.
         -2   -1    0    0    0  501 -0.00000000000E+00 -0.00000000000E+00 -0.46575463231E+03  0.46575463231E+03  0.25500000000E-02 0.  1.
    8880023    1    1    2    0    0 -0.40445494125E+01  0.11152869356E+03 -0.19692454299E+03  0.69645135491E+03  0.65864270000E+03 0.  1.
    8880022    1    1    2    0    0  0.40445494125E+01 -0.11152869356E+03  0.45095031182E+03  0.48908367854E+03  0.15294330000E+03 0.  0.
<mgrwt>
<rscale>  0 0.48742015E+03</rscale>
<asrwt>0</asrwt>
<pdfrwt beam="1">  1        2 0.11073544E+00 0.66803085E+03</pdfrwt>
<pdfrwt beam="2">  1       -2 0.71654560E-01 0.66803085E+03</pdfrwt>
<totfact> 0.71145583E+01</totfact>
</mgrwt>
</event>
<event>
 4    5  0.2295023E-007  0.1025678E+04  0.7818608E-02  0.9348707E-01
          2   -1    0    0  501    0  0.00000000000E+00  0.00000000000E+00  0.29383685507E+04  0.29383685507E+04  0.25500000000E-02 0. -1.
         -2   -1    0    0    0  501 -0.00000000000E+00 -0.00000000000E+00 -0.66855771159E+03  0.66855771159E+03  0.25500000000E-02 0.  1.
    8880023    1    1    2    0    0 -0.36610377650E+03  0.69582615978E+03 -0.16939198453E+03  0.10395719650E+04  0.65864270000E+03 0.  0.
    8880022    1    1    2    0    0  0.36610377650E+03 -0.69582615978E+03  0.24392028236E+04  0.25673542972E+04  0.15294330000E+03 0.  0.
<mgrwt>
<rscale>  0 0.96419808E+03</rscale>
<asrwt>0</asrwt>
<pdfrwt beam="1">  1        2 0.45205671E+00 0.10256784E+04</pdfrwt>
<pdfrwt beam="2">  1       -2 0.10285503E+00 0.10256784E+04</pdfrwt>
<totfact> 0.14894553E+00</totfact>
</mgrwt>
</event>
<event>
 4    5  0.2295023E-007  0.6588053E+03  0.7818608E-02  0.1025415E+00
         -2   -1    0    0    0  501 -0.00000000000E+00  0.00000000000E+00  0.13879098291E+04  0.13879098291E+04  0.25500000000E-02 0.  1.
          2   -1    0    0  501    0  0.00000000000E+00 -0.00000000000E+00 -0.93653683672E+03  0.93653683672E+03  0.25500000000E-02 0. -1.
    8880023    1    1    2    0    0  0.43012992019E+01  0.13990482565E+02  0.13024625053E+04  0.14596002941E+04  0.65864270000E+03 0.  1.
    8880022    1    1    2    0    0 -0.43012992019E+01 -0.13990482565E+02 -0.85108951285E+03  0.86484637172E+03  0.15294330000E+03 0.  0.
<mgrwt>
<rscale>  0 0.45782063E+03</rscale>
<asrwt>0</asrwt>
<pdfrwt beam="1">  1        2 0.14408259E+00 0.65880531E+03</pdfrwt>
<pdfrwt beam="2">  1       -2 0.21352459E+00 0.65880531E+03</pdfrwt>
<totfact> 0.31349733E+00</totfact>
</mgrwt>
</event>
<event>
 4    5  0.2295023E-007  0.1150109E+04  0.7818608E-02  0.9207215E-01
         -2   -1    0    0    0  501 -0.00000000000E+00  0.00000000000E+00  0.16334545719E+04  0.16334545719E+04  0.25500000000E-02 0.  1.
          2   -1    0    0  501    0  0.00000000000E+00 -0.00000000000E+00 -0.14516602651E+04  0.14516602651E+04  0.25500000000E-02 0. -1.
    8880023    1    1    2    0    0  0.92611958187E+03 -0.17675837736E+03  0.12184418194E+04  0.16755153468E+04  0.65864270000E+03 0.  1.
    8880022    1    1    2    0    0 -0.92611958187E+03  0.17675837736E+03 -0.10366475127E+04  0.14095994901E+04  0.15294330000E+03 0.  0.
<mgrwt>
<rscale>  0 0.10979270E+04</rscale>
<asrwt>0</asrwt>
<pdfrwt beam="1">  1        2 0.22333235E+00 0.11501092E+04</pdfrwt>
<pdfrwt beam="2">  1       -2 0.25130070E+00 0.11501092E+04</pdfrwt>
<totfact> 0.83412836E-01</totfact>
</mgrwt>
</event>
<event>
 4    5  0.2295023E-007  0.1198164E+04  0.7818608E-02  0.9158909E-01
          2   -1    0    0  501    0  0.00000000000E+00  0.00000000000E+00  0.13434849560E+04  0.13434849560E+04  0.25500000000E-02 0. -1.
         -2   -1    0    0    0  501 -0.00000000000E+00 -0.00000000000E+00 -0.15476671530E+04  0.15476671530E+04  0.25500000000E-02 0.  1.
    8880023    1    1    2    0    0  0.71907766715E+03  0.69621450727E+03 -0.10335321749E+04  0.15823357085E+04  0.65864270000E+03 0.  0.
    8880022    1    1    2    0    0 -0.71907766715E+03 -0.69621450727E+03  0.82934997788E+03  0.13088164005E+04  0.15294330000E+03 0.  0.
<mgrwt>
<rscale>  0 0.11487810E+04</rscale>
<asrwt>0</asrwt>
<pdfrwt beam="1">  1        2 0.20668999E+00 0.11981642E+04</pdfrwt>
<pdfrwt beam="2">  1       -2 0.23810264E+00 0.11981642E+04</pdfrwt>
<totfact> 0.11533196E+00</totfact>
</mgrwt>
</event>
<event>
 4    5  0.2295023E-007  0.1112596E+04  0.7818608E-02  0.9247160E-01
          2   -1    0    0  501    0  0.00000000000E+00  0.00000000000E+00  0.14632562513E+04  0.14632562513E+04  0.25500000000E-02 0. -1.
         -2   -1    0    0    0  501 -0.00000000000E+00 -0.00000000000E+00 -0.12370472609E+04  0.12370472609E+04  0.25500000000E-02 0.  1.
    8880023    1    1    2    0    0  0.54183595252E+02  0.89505474664E+03 -0.76863349560E+03  0.13522819670E+04  0.65864270000E+03 0.  0.
    8880022    1    1    2    0    0 -0.54183595252E+02 -0.89505474664E+03  0.99484248595E+03  0.13480215452E+04  0.15294330000E+03 0.  0.
<mgrwt>
<rscale>  0 0.10579637E+04</rscale>
<asrwt>0</asrwt>
<pdfrwt beam="1">  1        2 0.22511635E+00 0.11125956E+04</pdfrwt>
<pdfrwt beam="2">  1       -2 0.19031496E+00 0.11125956E+04</pdfrwt>
<totfact> 0.20120811E+00</totfact>
</mgrwt>
</event>
<event>
 4    5  0.2295023E-007  0.1720288E+04  0.7818608E-02  0.8767961E-01
          2   -1    0    0  501    0  0.00000000000E+00  0.00000000000E+00  0.32296506088E+04  0.32296506088E+04  0.25500000000E-02 0. -1.
         -2   -1    0    0    0  501 -0.00000000000E+00 -0.00000000000E+00 -0.13085288211E+04  0.13085288211E+04  0.25500000000E-02 0.  1.
    8880023    1    1    2    0    0 -0.11213606018E+04 -0.11261125391E+04  0.23241457788E+04  0.28915467932E+04  0.65864270000E+03 0.  0.
    8880022    1    1    2    0    0  0.11213606018E+04  0.11261125391E+04 -0.40302399112E+03  0.16466326367E+04  0.15294330000E+03 0.  0.
<mgrwt>
<rscale>  0 0.16884818E+04</rscale>
<asrwt>0</asrwt>
<pdfrwt beam="1">  1        2 0.49686931E+00 0.17202876E+04</pdfrwt>
<pdfrwt beam="2">  1       -2 0.20131213E+00 0.17202876E+04</pdfrwt>
<totfact> 0.14872585E-01</totfact>
</mgrwt>
</event>
<event>
 4    5  0.2295023E-007  0.9551358E+03  0.7818608E-02  0.9442763E-01
          2   -1    0    0  501    0  0.00000000000E+00  0.00000000000E+00  0.79283749416E+03  0.79283749416E+03  0.25500000000E-02 0. -1.
         -2   -1    0    0    0  501 -0.00000000000E+00 -0.00000000000E+00 -0.12608117943E+04  0.12608117943E+04  0.25500000000E-02 0.  1.
    8880023    1    1    2    0    0 -0.48654163685E+03  0.49168217300E+03 -0.82340277684E+03  0.12610616412E+04  0.65864270000E+03 0.  0.
    8880022    1    1    2    0    0  0.48654163685E+03 -0.49168217300E+03  0.35542847669E+03  0.79258764732E+03  0.15294330000E+03 0.  0.
<mgrwt>
<rscale>  0 0.88638476E+03</rscale>
<asrwt>0</asrwt>
<pdfrwt beam="1">  1        2 0.12197500E+00 0.95513577E+03</pdfrwt>
<pdfrwt beam="2">  1       -2 0.19397104E+00 0.95513577E+03</pdfrwt>
<totfact> 0.50676865E+00</totfact>
</mgrwt>
</event>
<event>
 4    5  0.2295023E-007  0.6974299E+03  0.7818608E-02  0.1000803E+00
          2   -1    0    0  501    0  0.00000000000E+00  0.00000000000E+00  0.35384042850E+04  0.35384042850E+04  0.25500000000E-02 0. -1.
         -2   -1    0    0    0  501 -0.00000000000E+00 -0.00000000000E+00 -0.15749485009E+03  0.15749485011E+03  0.25500000000E-02 0.  1.
    8880023    1    1    2    0    0  0.22589999889E+03 -0.39591317678E+02  0.65724784348E+03  0.95832312711E+03  0.65864270000E+03 0.  1.
    8880022    1    1    2    0    0 -0.22589999889E+03  0.39591317678E+02  0.27236615915E+04  0.27375760080E+04  0.15294330000E+03 0.  0.
<mgrwt>
<rscale>  0 0.55299339E+03</rscale>
<asrwt>0</asrwt>
<pdfrwt beam="1">  1        2 0.54436986E+00 0.69742992E+03</pdfrwt>
<pdfrwt beam="2">  1       -2 0.24229978E-01 0.69742992E+03</pdfrwt>
<totfact> 0.12644540E+01</totfact>
</mgrwt>
</event>
<event>
 4    5  0.2295023E-007  0.8433467E+03  0.7818608E-02  0.9623902E-01
          2   -1    0    0  501    0  0.00000000000E+00  0.00000000000E+00  0.34161352892E+03  0.34161352893E+03  0.25500000000E-02 0. -1.
         -2   -1    0    0    0  501 -0.00000000000E+00 -0.00000000000E+00 -0.17083065694E+04  0.17083065694E+04  0.25500000000E-02 0.  1.
    8880023    1    1    2    0    0 -0.52022654836E+03  0.82387661583E+02 -0.12183282177E+04  0.14817412867E+04  0.65864270000E+03 0.  0.
    8880022    1    1    2    0    0  0.52022654836E+03 -0.82387661583E+02 -0.14836482286E+03  0.56817881171E+03  0.15294330000E+03 0.  0.
<mgrwt>
<rscale>  0 0.75734200E+03</rscale>
<asrwt>0</asrwt>
<pdfrwt beam="1">  1        2 0.52555929E-01 0.84334666E+03</pdfrwt>
<pdfrwt beam="2">  1       -2 0.26281639E+00 0.84334666E+03</pdfrwt>
<totfact> 0.51914572E+00</totfact>
</mgrwt>
</event>
<event>
 4    5  0.2295023E-007  0.8536005E+03  0.7818608E-02  0.9605050E-01
          2   -1    0    0  501    0  0.00000000000E+00  0.00000000000E+00  0.16686290983E+04  0.16686290983E+04  0.25500000000E-02 0. -1.
         -2   -1    0    0    0  501 -0.00000000000E+00 -0.00000000000E+00 -0.55015720827E+03  0.55015720828E+03  0.25500000000E-02 0.  1.
    8880023    1    1    2    0    0 -0.53342908888E+03 -0.10137556166E+03 -0.11608313961E+03  0.86145754331E+03  0.65864270000E+03 0.  1.
    8880022    1    1    2    0    0  0.53342908888E+03  0.10137556166E+03  0.12345550296E+04  0.13573287633E+04  0.15294330000E+03 0.  0.
<mgrwt>
<rscale>  0 0.76962846E+03</rscale>
<asrwt>0</asrwt>
<pdfrwt beam="1">  1        2 0.25671216E+00 0.85360049E+03</pdfrwt>
<pdfrwt beam="2">  1       -2 0.84639572E-01 0.85360049E+03</pdfrwt>
<totfact> 0.12597886E+01</totfact>
</mgrwt>
</event>
<event>
 4    5  0.2295023E-007  0.1058504E+04  0.7818608E-02  0.9308728E-01
         -2   -1    0    0    0  501 -0.00000000000E+00  0.00000000000E+00  0.26229916821E+03  0.26229916822E+03  0.25500000000E-02 0.  1.
          2   -1    0    0  501    0  0.00000000000E+00 -0.00000000000E+00 -0.34599775643E+04  0.34599775643E+04  0.25500000000E-02 0. -1.
    8880023    1    1    2    0    0  0.64204183504E+03  0.52383387062E+03 -0.16571444119E+04  0.19663563894E+04  0.65864270000E+03 0.  1.
    8880022    1    1    2    0    0 -0.64204183504E+03 -0.52383387062E+03 -0.15405339842E+04  0.17559203431E+04  0.15294330000E+03 0. -1.
<mgrwt>
<rscale>  0 0.99983287E+03</rscale>
<asrwt>0</asrwt>
<pdfrwt beam="1">  1        2 0.53230421E+00 0.10585036E+04</pdfrwt>
<pdfrwt beam="2">  1       -2 0.40353721E-01 0.10585036E+04</pdfrwt>
<totfact> 0.51752925E+00</totfact>
</mgrwt>
</event>
<event>
 4    5  0.2295023E-007  0.9397975E+03  0.7818608E-02  0.9464948E-01
         -2   -1    0    0    0  501 -0.00000000000E+00  0.00000000000E+00  0.58366876462E+03  0.58366876462E+03  0.25500000000E-02 0.  1.
          2   -1    0    0  501    0  0.00000000000E+00 -0.00000000000E+00 -0.23344038865E+04  0.23344038865E+04  0.25500000000E-02 0. -1.
    8880023    1    1    2    0    0 -0.21804856410E+03 -0.63392740671E+03  0.98684966719E+02  0.94496458251E+03  0.65864270000E+03 0.  1.
    8880022    1    1    2    0    0  0.21804856410E+03  0.63392740671E+03 -0.18494200886E+04  0.19731080686E+04  0.15294330000E+03 0.  0.
<mgrwt>
<rscale>  0 0.86918153E+03</rscale>
<asrwt>0</asrwt>
<pdfrwt beam="1">  1        2 0.35913906E+00 0.93979750E+03</pdfrwt>
<pdfrwt beam="2">  1       -2 0.89795196E-01 0.93979750E+03</pdfrwt>
<totfact> 0.46715259E+00</totfact>
</mgrwt>
</event>
<event>
 4    5  0.2295023E-007  0.8513638E+03  0.7818608E-02  0.9609114E-01
          2   -1    0    0  501    0  0.00000000000E+00  0.00000000000E+00  0.62695546373E+03  0.62695546373E+03  0.25500000000E-02 0. -1.
         -2   -1    0    0    0  501 -0.00000000000E+00 -0.00000000000E+00 -0.10657534500E+04  0.10657534501E+04  0.25500000000E-02 0.  1.
    8880023    1    1    2    0    0 -0.39832111968E+03 -0.36379995284E+03 -0.67280696810E+03  0.10851219022E+04  0.65864270000E+03 0.  1.
    8880022    1    1    2    0    0  0.39832111968E+03  0.36379995284E+03  0.23400898178E+03  0.60758701158E+03  0.15294330000E+03 0.  0.
<mgrwt>
<rscale>  0 0.76695876E+03</rscale>
<asrwt>0</asrwt>
<pdfrwt beam="1">  1        2 0.96454687E-01 0.85136380E+03</pdfrwt>
<pdfrwt beam="2">  1       -2 0.16396207E+00 0.85136380E+03</pdfrwt>
<totfact> 0.11137256E+01</totfact>
</mgrwt>
</event>
<event>
 4    5  0.2295023E-007  0.6617384E+03  0.7818608E-02  0.1022442E+00
         -2   -1    0    0    0  501 -0.00000000000E+00  0.00000000000E+00  0.19921308702E+03  0.19921308703E+03  0.25500000000E-02 0.  1.
          2   -1    0    0  501    0  0.00000000000E+00 -0.00000000000E+00 -0.24352974927E+04  0.24352974927E+04  0.25500000000E-02 0. -1.
    8880023    1    1    2    0    0 -0.63637821282E+02  0.61379345588E+01 -0.36427776354E+03  0.75537801253E+03  0.65864270000E+03 0.  1.
    8880022    1    1    2    0    0  0.63637821282E+02 -0.61379345588E+01 -0.18718066421E+04  0.18791325672E+04  0.15294330000E+03 0.  0.
<mgrwt>
<rscale>  0 0.46815541E+03</rscale>
<asrwt>0</asrwt>
<pdfrwt beam="1">  1        2 0.37466113E+00 0.66173836E+03</pdfrwt>
<pdfrwt beam="2">  1       -2 0.30648169E-01 0.66173836E+03</pdfrwt>
<totfact> 0.39389449E+01</totfact>
</mgrwt>
</event>
<event>
 4    5  0.2295023E-007  0.7158721E+03  0.7818608E-02  0.9936809E-01
          2   -1    0    0  501    0  0.00000000000E+00  0.00000000000E+00  0.19800558957E+04  0.19800558957E+04  0.25500000000E-02 0. -1.
         -2   -1    0    0    0  501 -0.00000000000E+00 -0.00000000000E+00 -0.18581118928E+03  0.18581118929E+03  0.25500000000E-02 0.  1.
    8880023    1    1    2    0    0  0.11962533190E+03  0.25367770561E+03  0.61388669219E+03  0.94304277499E+03  0.65864270000E+03 0.  1.
    8880022    1    1    2    0    0 -0.11962533190E+03 -0.25367770561E+03  0.11803580143E+04  0.12228243100E+04  0.15294330000E+03 0.  0.
<mgrwt>
<rscale>  0 0.58510047E+03</rscale>
<asrwt>0</asrwt>
<pdfrwt beam="1">  1        2 0.30462398E+00 0.71587206E+03</pdfrwt>
<pdfrwt beam="2">  1       -2 0.28586337E-01 0.71587206E+03</pdfrwt>
<totfact> 0.79237410E+01</totfact>
</mgrwt>
</event>
<event>
 4    5  0.2295023E-007  0.7666578E+03  0.7818608E-02  0.9788166E-01
         -2   -1    0    0    0  501 -0.00000000000E+00  0.00000000000E+00  0.12028424045E+04  0.12028424045E+04  0.25500000000E-02 0.  1.
          2   -1    0    0  501    0  0.00000000000E+00 -0.00000000000E+00 -0.67167014683E+03  0.67167014684E+03  0.25500000000E-02 0. -1.
    8880023    1    1    2    0    0  0.15454966017E+02 -0.39206523267E+03  0.98972353067E+03  0.12519252678E+04  0.65864270000E+03 0.  1.
    8880022    1    1    2    0    0 -0.15454966017E+02  0.39206523267E+03 -0.45855127302E+03  0.62258728356E+03  0.15294330000E+03 0.  0.
<mgrwt>
<rscale>  0 0.66001491E+03</rscale>
<asrwt>0</asrwt>
<pdfrwt beam="1">  1        2 0.10333387E+00 0.76665782E+03</pdfrwt>
<pdfrwt beam="2">  1       -2 0.18505267E+00 0.76665782E+03</pdfrwt>
<totfact> 0.73459381E+00</totfact>
</mgrwt>
</event>
<event>
 4    5  0.2295023E-007  0.8804875E+03  0.7818608E-02  0.9558111E-01
         -2   -1    0    0    0  501 -0.00000000000E+00  0.00000000000E+00  0.12788672672E+04  0.12788672672E+04  0.25500000000E-02 0.  1.
          2   -1    0    0  501    0  0.00000000000E+00 -0.00000000000E+00 -0.11586121211E+04  0.11586121211E+04  0.25500000000E-02 0. -1.
    8880023    1    1    2    0    0 -0.50526122152E+03  0.29352869865E+03  0.10239834172E+04  0.13504814859E+04  0.65864270000E+03 0.  1.
    8880022    1    1    2    0    0  0.50526122152E+03 -0.29352869865E+03 -0.90372827109E+03  0.10869979024E+04  0.15294330000E+03 0.  0.
<mgrwt>
<rscale>  0 0.80131845E+03</rscale>
<asrwt>0</asrwt>
<pdfrwt beam="1">  1        2 0.17824802E+00 0.88048748E+03</pdfrwt>
<pdfrwt beam="2">  1       -2 0.19674881E+00 0.88048748E+03</pdfrwt>
<totfact> 0.28220479E+00</totfact>
</mgrwt>
</event>
<event>
 4    5  0.2295023E-007  0.1540724E+04  0.7818608E-02  0.8881402E-01
         -2   -1    0    0    0  501 -0.00000000000E+00  0.00000000000E+00  0.80128481584E+03  0.80128481585E+03  0.25500000000E-02 0.  1.
          2   -1    0    0  501    0  0.00000000000E+00 -0.00000000000E+00 -0.38707028595E+04  0.38707028595E+04  0.25500000000E-02 0. -1.
    8880023    1    1    2    0    0 -0.55128584778E+03 -0.12791029857E+04 -0.30198928726E+03  0.15700408498E+04  0.65864270000E+03 0.  1.
    8880022    1    1    2    0    0  0.55128584778E+03  0.12791029857E+04 -0.27674287564E+04  0.31019468256E+04  0.15294330000E+03 0.  0.
<mgrwt>
<rscale>  0 0.15045967E+04</rscale>
<asrwt>0</asrwt>
<pdfrwt beam="1">  1        2 0.59549274E+00 0.15407241E+04</pdfrwt>
<pdfrwt beam="2">  1       -2 0.12327459E+00 0.15407241E+04</pdfrwt>
<totfact> 0.20610345E-01</totfact>
</mgrwt>
</event>
<event>
 4    5  0.2295023E-007  0.7404125E+03  0.7818608E-02  0.9858747E-01
         -2   -1    0    0    0  501 -0.00000000000E+00  0.00000000000E+00  0.50360500853E+03  0.50360500854E+03  0.25500000000E-02 0.  1.
          2   -1    0    0  501    0  0.00000000000E+00 -0.00000000000E+00 -0.10053838470E+04  0.10053838470E+04  0.25500000000E-02 0. -1.
    8880023    1    1    2    0    0  0.13585794556E+03  0.30974679136E+03  0.15323623342E+03  0.75610317128E+03  0.65864270000E+03 0.  0.
    8880022    1    1    2    0    0 -0.13585794556E+03 -0.30974679136E+03 -0.65501507186E+03  0.75288568422E+03  0.15294330000E+03 0.  0.
<mgrwt>
<rscale>  0 0.62302912E+03</rscale>
<asrwt>0</asrwt>
<pdfrwt beam="1">  1        2 0.15467444E+00 0.74041249E+03</pdfrwt>
<pdfrwt beam="2">  1       -2 0.77477694E-01 0.74041249E+03</pdfrwt>
<totfact> 0.37740776E+01</totfact>
</mgrwt>
</event>
<event>
 4    5  0.2295023E-007  0.6674349E+03  0.7818608E-02  0.1017573E+00
         -2   -1    0    0    0  501 -0.00000000000E+00  0.00000000000E+00  0.35213601459E+03  0.35213601460E+03  0.25500000000E-02 0.  1.
          2   -1    0    0  501    0  0.00000000000E+00 -0.00000000000E+00 -0.29813794943E+04  0.29813794943E+04  0.25500000000E-02 0. -1.
    8880023    1    1    2    0    0 -0.10499400399E+03  0.25206031768E+02  0.29598011505E+02  0.66809081229E+03  0.65864270000E+03 0.  1.
    8880022    1    1    2    0    0  0.10499400399E+03 -0.25206031768E+02 -0.26588414912E+04  0.26654246966E+04  0.15294330000E+03 0.  0.
<mgrwt>
<rscale>  0 0.48572875E+03</rscale>
<asrwt>0</asrwt>
<pdfrwt beam="1">  1        2 0.45867375E+00 0.66743486E+03</pdfrwt>
<pdfrwt beam="2">  1       -2 0.54174773E-01 0.66743486E+03</pdfrwt>
<totfact> 0.62120810E+00</totfact>
</mgrwt>
</event>
<event>
 4    5  0.2295023E-007  0.1161760E+04  0.7818608E-02  0.9195222E-01
          2   -1    0    0  501    0  0.00000000000E+00  0.00000000000E+00  0.22905939807E+04  0.22905939807E+04  0.25500000000E-02 0. -1.
         -2   -1    0    0    0  501 -0.00000000000E+00 -0.00000000000E+00 -0.90402116703E+03  0.90402116703E+03  0.25500000000E-02 0.  1.
    8880023    1    1    2    0    0 -0.36816866662E+03 -0.88336134322E+03 -0.34359065649E+03  0.12115032708E+04  0.65864270000E+03 0.  1.
    8880022    1    1    2    0    0  0.36816866662E+03  0.88336134322E+03  0.17301634702E+04  0.19831118769E+04  0.15294330000E+03 0.  0.
<mgrwt>
<rscale>  0 0.11102886E+04</rscale>
<asrwt>0</asrwt>
<pdfrwt beam="1">  1        2 0.35239906E+00 0.11617597E+04</pdfrwt>
<pdfrwt beam="2">  1       -2 0.13908018E+00 0.11617597E+04</pdfrwt>
<totfact> 0.16451157E+00</totfact>
</mgrwt>
</event>
<event>
 4    5  0.2295023E-007  0.7068764E+03  0.7818608E-02  0.9969788E-01
          2   -1    0    0  501    0  0.00000000000E+00  0.00000000000E+00  0.93991699816E+03  0.93991699816E+03  0.25500000000E-02 0. -1.
         -2   -1    0    0    0  501 -0.00000000000E+00 -0.00000000000E+00 -0.49214009348E+03  0.49214009349E+03  0.25500000000E-02 0.  1.
    8880023    1    1    2    0    0  0.83538984639E+02 -0.24266274596E+03 -0.18639343354E+03  0.73103808968E+03  0.65864270000E+03 0.  0.
    8880022    1    1    2    0    0 -0.83538984639E+02  0.24266274596E+03  0.63417033822E+03  0.70101900197E+03  0.15294330000E+03 0.  0.
<mgrwt>
<rscale>  0 0.56995037E+03</rscale>
<asrwt>0</asrwt>
<pdfrwt beam="1">  1        2 0.14460261E+00 0.70687635E+03</pdfrwt>
<pdfrwt beam="2">  1       -2 0.75713862E-01 0.70687635E+03</pdfrwt>
<totfact> 0.43926177E+01</totfact>
</mgrwt>
</event>
<event>
 4    5  0.3601172E-007  0.1265002E+04  0.7818608E-02  0.9096388E-01
         -2   -1    0    0    0  501 -0.00000000000E+00  0.00000000000E+00  0.11093691615E+04  0.11093691615E+04  0.25500000000E-02 0.  1.
          2   -1    0    0  501    0  0.00000000000E+00 -0.00000000000E+00 -0.33983616997E+04  0.33983616997E+04  0.25500000000E-02 0. -1.
    8880023    1    1    2    0    0 -0.82096674386E+03 -0.70173513342E+03  0.61431715907E+03  0.14062767758E+04  0.65864270000E+03 0.  0.
    8880022    1    1    2    0    0  0.82096674386E+03  0.70173513342E+03 -0.29033096973E+04  0.31014540853E+04  0.15294330000E+03 0.  0.
<mgrwt>
<rscale>  0 0.12189980E+04</rscale>
<asrwt>0</asrwt>
<pdfrwt beam="1">  1        2 0.52282487E+00 0.12650015E+04</pdfrwt>
<pdfrwt beam="2">  1       -2 0.17067218E+00 0.12650015E+04</pdfrwt>
<totfact> 0.19766179E-01</totfact>
</mgrwt>
</event>
<event>
 4    5  0.2295023E-007  0.1275071E+04  0.7818608E-02  0.9087392E-01
          2   -1    0    0  501    0  0.00000000000E+00  0.00000000000E+00  0.13597199639E+04  0.13597199639E+04  0.25500000000E-02 0. -1.
         -2   -1    0    0    0  501 -0.00000000000E+00 -0.00000000000E+00 -0.10639330802E+04  0.10639330802E+04  0.25500000000E-02 0.  1.
    8880023    1    1    2    0    0  0.86180037056E+03  0.67029634855E+03  0.34232384388E+03  0.13202245619E+04  0.65864270000E+03 0.  0.
    8880022    1    1    2    0    0 -0.86180037056E+03 -0.67029634855E+03 -0.46536960235E+02  0.11034284822E+04  0.15294330000E+03 0.  0.
<mgrwt>
<rscale>  0 0.12295333E+04</rscale>
<asrwt>0</asrwt>
<pdfrwt beam="1">  1        2 0.20918769E+00 0.12750715E+04</pdfrwt>
<pdfrwt beam="2">  1       -2 0.16368201E+00 0.12750715E+04</pdfrwt>
<totfact> 0.34851849E+00</totfact>
</mgrwt>
</event>
<event>
 4    5  0.2295023E-007  0.8208014E+03  0.7818608E-02  0.9667502E-01
         -2   -1    0    0    0  501 -0.00000000000E+00  0.00000000000E+00  0.64670340289E+03  0.64670340289E+03  0.25500000000E-02 0.  1.
          2   -1    0    0  501    0  0.00000000000E+00 -0.00000000000E+00 -0.18731817613E+04  0.18731817613E+04  0.25500000000E-02 0. -1.
    8880023    1    1    2    0    0 -0.40024739708E+03  0.28232378211E+03  0.32723903484E+03  0.88362904490E+03  0.65864270000E+03 0.  1.
    8880022    1    1    2    0    0  0.40024739708E+03 -0.28232378211E+03 -0.15537173932E+04  0.16362561193E+04  0.15294330000E+03 0.  0.
<mgrwt>
<rscale>  0 0.72985092E+03</rscale>
<asrwt>0</asrwt>
<pdfrwt beam="1">  1        2 0.28818181E+00 0.82080138E+03</pdfrwt>
<pdfrwt beam="2">  1       -2 0.99492832E-01 0.82080138E+03</pdfrwt>
<totfact> 0.67142737E+00</totfact>
</mgrwt>
</event>
<event>
 4    5  0.2295023E-007  0.6920730E+03  0.7818608E-02  0.1003182E+00
          2   -1    0    0  501    0  0.00000000000E+00  0.00000000000E+00  0.49481949398E+03  0.49481949398E+03  0.25500000000E-02 0. -1.
         -2   -1    0    0    0  501 -0.00000000000E+00 -0.00000000000E+00 -0.60272545714E+03  0.60272545715E+03  0.25500000000E-02 0.  1.
    8880023    1    1    2    0    0 -0.17149347932E+03 -0.12547819801E+03 -0.31821264335E+03  0.76172454619E+03  0.65864270000E+03 0.  1.
    8880022    1    1    2    0    0  0.17149347932E+03  0.12547819801E+03  0.21030668018E+03  0.33582040494E+03  0.15294330000E+03 0.  0.
<mgrwt>
<rscale>  0 0.54276525E+03</rscale>
<asrwt>0</asrwt>
<pdfrwt beam="1">  1        2 0.76126076E-01 0.69207297E+03</pdfrwt>
<pdfrwt beam="2">  1       -2 0.92726994E-01 0.69207297E+03</pdfrwt>
<totfact> 0.62408664E+01</totfact>
</mgrwt>
</event>
<event>
 4    5  0.2295023E-007  0.1158622E+04  0.7818608E-02  0.9198433E-01
          2   -1    0    0  501    0  0.00000000000E+00  0.00000000000E+00  0.16756099967E+04  0.16756099967E+04  0.25500000000E-02 0. -1.
         -2   -1    0    0    0  501 -0.00000000000E+00 -0.00000000000E+00 -0.11182492672E+04  0.11182492672E+04  0.25500000000E-02 0.  1.
    8880023    1    1    2    0    0 -0.89119555014E+03 -0.33817956413E+03 -0.58522586561E+03  0.12980348401E+04  0.65864270000E+03 0.  1.
    8880022    1    1    2    0    0  0.89119555014E+03  0.33817956413E+03  0.11425865951E+04  0.14958244237E+04  0.15294330000E+03 0.  0.
<mgrwt>
<rscale>  0 0.11069616E+04</rscale>
<asrwt>0</asrwt>
<pdfrwt beam="1">  1        2 0.25778615E+00 0.11586221E+04</pdfrwt>
<pdfrwt beam="2">  1       -2 0.17203835E+00 0.11586221E+04</pdfrwt>
<totfact> 0.20342300E+00</totfact>
</mgrwt>
</event>
<event>
 4    5  0.2295023E-007  0.8766695E+03  0.7818608E-02  0.9564573E-01
          2   -1    0    0  501    0  0.00000000000E+00  0.00000000000E+00  0.19088761035E+04  0.19088761035E+04  0.25500000000E-02 0. -1.
         -2   -1    0    0    0  501 -0.00000000000E+00 -0.00000000000E+00 -0.38841332124E+03  0.38841332125E+03  0.25500000000E-02 0.  1.
    8880023    1    1    2    0    0 -0.44534889738E+03 -0.36932843070E+03  0.28047181486E+03  0.92044216294E+03  0.65864270000E+03 0.  0.
    8880022    1    1    2    0    0  0.44534889738E+03  0.36932843070E+03  0.12399909674E+04  0.13768472618E+04  0.15294330000E+03 0. -1.
<mgrwt>
<rscale>  0 0.79686016E+03</rscale>
<asrwt>0</asrwt>
<pdfrwt beam="1">  1        2 0.29367325E+00 0.87666946E+03</pdfrwt>
<pdfrwt beam="2">  1       -2 0.59755894E-01 0.87666946E+03</pdfrwt>
<totfact> 0.19923490E+01</totfact>
</mgrwt>
</event>
<event>
 4    5  0.2295023E-007  0.1388586E+04  0.7818608E-02  0.8992603E-01
          2   -1    0    0  501    0  0.00000000000E+00  0.00000000000E+00  0.20780809343E+04  0.20780809343E+04  0.25500000000E-02 0. -1.
         -2   -1    0    0    0  501 -0.00000000000E+00 -0.00000000000E+00 -0.12682515650E+04  0.12682515650E+04  0.25500000000E-02 0.  1.
    8880023    1    1    2    0    0  0.10733676139E+04 -0.58501500044E+03 -0.56602385483E+03  0.14995178544E+04  0.65864270000E+03 0.  0.
    8880022    1    1    2    0    0 -0.10733676139E+04  0.58501500044E+03  0.13758532241E+04  0.18468146449E+04  0.15294330000E+03 0.  0.
<mgrwt>
<rscale>  0 0.13476579E+04</rscale>
<asrwt>0</asrwt>
<pdfrwt beam="1">  1        2 0.31970476E+00 0.13885859E+04</pdfrwt>
<pdfrwt beam="2">  1       -2 0.19511563E+00 0.13885859E+04</pdfrwt>
<totfact> 0.82314617E-01</totfact>
</mgrwt>
</event>
<event>
 4    5  0.2295023E-007  0.1667393E+04  0.7818608E-02  0.8799670E-01
         -2   -1    0    0    0  501 -0.00000000000E+00  0.00000000000E+00  0.14785650874E+04  0.14785650874E+04  0.25500000000E-02 0.  1.
          2   -1    0    0  501    0  0.00000000000E+00 -0.00000000000E+00 -0.18783582827E+04  0.18783582827E+04  0.25500000000E-02 0. -1.
    8880023    1    1    2    0    0  0.13206644363E+04  0.77603712869E+03  0.24992891942E+03  0.16860198247E+04  0.65864270000E+03 0.  0.
    8880022    1    1    2    0    0 -0.13206644363E+04 -0.77603712869E+03 -0.64972211478E+03  0.16709035453E+04  0.15294330000E+03 0.  0.
<mgrwt>
<rscale>  0 0.16344322E+04</rscale>
<asrwt>0</asrwt>
<pdfrwt beam="1">  1        2 0.28897820E+00 0.16673927E+04</pdfrwt>
<pdfrwt beam="2">  1       -2 0.22747155E+00 0.16673927E+04</pdfrwt>
<totfact> 0.63926405E-01</totfact>
</mgrwt>
</event>
<event>
 4    5  0.2295023E-007  0.8121444E+03  0.7818608E-02  0.9685127E-01
          2   -1    0    0  501    0  0.00000000000E+00  0.00000000000E+00  0.15575196162E+04  0.15575196162E+04  0.25500000000E-02 0. -1.
         -2   -1    0    0    0  501 -0.00000000000E+00 -0.00000000000E+00 -0.78758084375E+03  0.78758084375E+03  0.25500000000E-02 0.  1.
    8880023    1    1    2    0    0 -0.32659102433E+03 -0.34511823983E+03 -0.51836674325E+03  0.96347422560E+03  0.65864270000E+03 0.  1.
    8880022    1    1    2    0    0  0.32659102433E+03  0.34511823983E+03  0.12883055157E+04  0.13816262343E+04  0.15294330000E+03 0.  0.
<mgrwt>
<rscale>  0 0.71909243E+03</rscale>
<asrwt>0</asrwt>
<pdfrwt beam="1">  1        2 0.23961840E+00 0.81214439E+03</pdfrwt>
<pdfrwt beam="2">  1       -2 0.12116628E+00 0.81214439E+03</pdfrwt>
<totfact> 0.62124558E+00</totfact>
</mgrwt>
</event>
<event>
 4    5  0.2295023E-007  0.7190979E+03  0.7818608E-02  0.9925650E-01
          2   -1    0    0  501    0  0.00000000000E+00  0.00000000000E+00  0.47267689281E+03  0.47267689282E+03  0.25500000000E-02 0. -1.
         -2   -1    0    0    0  501 -0.00000000000E+00 -0.00000000000E+00 -0.10345989044E+04  0.10345989044E+04  0.25500000000E-02 0.  1.
    8880023    1    1    2    0    0  0.22148752671E+03  0.18502659291E+03 -0.82025863459E+03  0.10908372924E+04  0.65864270000E+03 0.  1.
    8880022    1    1    2    0    0 -0.22148752671E+03 -0.18502659291E+03  0.25833662296E+03  0.41643850488E+03  0.15294330000E+03 0.  0.
<mgrwt>
<rscale>  0 0.59034110E+03</rscale>
<asrwt>0</asrwt>
<pdfrwt beam="1">  1        2 0.72719522E-01 0.71909789E+03</pdfrwt>
<pdfrwt beam="2">  1       -2 0.15916906E+00 0.71909789E+03</pdfrwt>
<totfact> 0.17078746E+01</totfact>
</mgrwt>
</event>
<event>
 4    5  0.2295023E-007  0.8411252E+03  0.7818608E-02  0.9628062E-01
         -2   -1    0    0    0  501 -0.00000000000E+00  0.00000000000E+00  0.10380883680E+04  0.10380883680E+04  0.25500000000E-02 0.  1.
          2   -1    0    0  501    0  0.00000000000E+00 -0.00000000000E+00 -0.24208541189E+04  0.24208541189E+04  0.25500000000E-02 0. -1.
    8880023    1    1    2    0    0  0.47472075203E+03 -0.21982177046E+03  0.82901258813E+03  0.11809968166E+04  0.65864270000E+03 0.  1.
    8880022    1    1    2    0    0 -0.47472075203E+03  0.21982177046E+03 -0.22117783390E+04  0.22779456703E+04  0.15294330000E+03 0.  0.
<mgrwt>
<rscale>  0 0.75466358E+03</rscale>
<asrwt>0</asrwt>
<pdfrwt beam="1">  1        2 0.37243909E+00 0.84112520E+03</pdfrwt>
<pdfrwt beam="2">  1       -2 0.15970590E+00 0.84112520E+03</pdfrwt>
<totfact> 0.10101964E+00</totfact>
</mgrwt>
</event>
<event>
 4    5  0.2295023E-007  0.9575968E+03  0.7818608E-02  0.9439267E-01
         -2   -1    0    0    0  501 -0.00000000000E+00  0.00000000000E+00  0.60964182734E+03  0.60964182735E+03  0.25500000000E-02 0.  1.
          2   -1    0    0  501    0  0.00000000000E+00 -0.00000000000E+00 -0.15700722971E+04  0.15700722971E+04  0.25500000000E-02 0. -1.
    8880023    1    1    2    0    0 -0.69508646496E+03 -0.60166174898E+01  0.32374060414E+02  0.95814387203E+03  0.65864270000E+03 0.  0.
    8880022    1    1    2    0    0  0.69508646496E+03  0.60166174898E+01 -0.99280453021E+03  0.12215702525E+04  0.15294330000E+03 0.  0.
<mgrwt>
<rscale>  0 0.88913410E+03</rscale>
<asrwt>0</asrwt>
<pdfrwt beam="1">  1        2 0.24154958E+00 0.95759678E+03</pdfrwt>
<pdfrwt beam="2">  1       -2 0.93791051E-01 0.95759678E+03</pdfrwt>
<totfact> 0.11140525E+01</totfact>
</mgrwt>
</event>
<event>
 4    5  0.2295023E-007  0.8259476E+03  0.7818608E-02  0.9657269E-01
          2   -1    0    0  501    0  0.00000000000E+00  0.00000000000E+00  0.55515048188E+03  0.55515048188E+03  0.25500000000E-02 0. -1.
         -2   -1    0    0    0  501 -0.00000000000E+00 -0.00000000000E+00 -0.19386681671E+04  0.19386681671E+04  0.25500000000E-02 0.  1.
    8880023    1    1    2    0    0  0.11620900694E+03 -0.48463868577E+03 -0.16957140657E+04  0.18861695544E+04  0.65864270000E+03 0.  1.
    8880022    1    1    2    0    0 -0.11620900694E+03  0.48463868577E+03  0.31219638055E+03  0.60764909453E+03  0.15294330000E+03 0.  0.
<mgrwt>
<rscale>  0 0.73618967E+03</rscale>
<asrwt>0</asrwt>
<pdfrwt beam="1">  1        2 0.85407767E-01 0.82594757E+03</pdfrwt>
<pdfrwt beam="2">  1       -2 0.29825664E+00 0.82594757E+03</pdfrwt>
<totfact> 0.18257965E+00</totfact>
</mgrwt>
</event>
<event>
 4    5  0.2295023E-007  0.2496165E+04  0.7818608E-02  0.8411948E-01
         -2   -1    0    0    0  501 -0.00000000000E+00  0.00000000000E+00  0.16186825452E+04  0.16186825452E+04  0.25500000000E-02 0.  1.
          2   -1    0    0  501    0  0.00000000000E+00 -0.00000000000E+00 -0.54344190152E+04  0.54344190152E+04  0.25500000000E-02 0. -1.
    8880023    1    1    2    0    0  0.26881497030E+02 -0.24075520615E+04 -0.39098352303E+04  0.46387122435E+04  0.65864270000E+03 0.  0.
    8880022    1    1    2    0    0 -0.26881497030E+02  0.24075520615E+04  0.94098760264E+02  0.24143893169E+04  0.15294330000E+03 0.  0.
<mgrwt>
<rscale>  0 0.24749947E+04</rscale>
<asrwt>0</asrwt>
<pdfrwt beam="1">  1        2 0.83606445E+00 0.24961650E+04</pdfrwt>
<pdfrwt beam="2">  1       -2 0.24902809E+00 0.24961650E+04</pdfrwt>
<totfact> 0.43360932E-04</totfact>
</mgrwt>
</event>
<event>
 4    5  0.2295023E-007  0.7409585E+03  0.7818608E-02  0.9857164E-01
          2   -1    0    0  501    0  0.00000000000E+00  0.00000000000E+00  0.43301941601E+03  0.43301941601E+03  0.25500000000E-02 0. -1.
         -2   -1    0    0    0  501 -0.00000000000E+00 -0.00000000000E+00 -0.78562400214E+03  0.78562400214E+03  0.25500000000E-02 0.  1.
    8880023    1    1    2    0    0 -0.32175624639E+03  0.10808428326E+03 -0.40217164153E+03  0.84306674107E+03  0.65864270000E+03 0.  0.
    8880022    1    1    2    0    0  0.32175624639E+03 -0.10808428326E+03  0.49567055399E+02  0.37557667709E+03  0.15294330000E+03 0.  0.
<mgrwt>
<rscale>  0 0.62382990E+03</rscale>
<asrwt>0</asrwt>
<pdfrwt beam="1">  1        2 0.66618372E-01 0.74095850E+03</pdfrwt>
<pdfrwt beam="2">  1       -2 0.12086523E+00 0.74095850E+03</pdfrwt>
<totfact> 0.38372462E+01</totfact>
</mgrwt>
</event>
<event>
 4    5  0.2295023E-007  0.1009817E+04  0.7818608E-02  0.9368825E-01
         -2   -1    0    0    0  501 -0.00000000000E+00  0.00000000000E+00  0.60862658586E+03  0.60862658587E+03  0.25500000000E-02 0.  1.
          2   -1    0    0  501    0  0.00000000000E+00 -0.00000000000E+00 -0.16034299219E+04  0.16034299219E+04  0.25500000000E-02 0. -1.
    8880023    1    1    2    0    0 -0.27920723638E+03  0.71271595385E+03 -0.85153929329E+02  0.10134012580E+04  0.65864270000E+03 0.  0.
    8880022    1    1    2    0    0  0.27920723638E+03 -0.71271595385E+03 -0.90964940671E+03  0.11986552498E+04  0.15294330000E+03 0.  0.
<mgrwt>
<rscale>  0 0.94686289E+03</rscale>
<asrwt>0</asrwt>
<pdfrwt beam="1">  1        2 0.24668152E+00 0.10098173E+04</pdfrwt>
<pdfrwt beam="2">  1       -2 0.93634860E-01 0.10098173E+04</pdfrwt>
<totfact> 0.10658207E+01</totfact>
</mgrwt>
</event>
<event>
 4    5  0.2295023E-007  0.1597034E+04  0.7818608E-02  0.8843991E-01
          2   -1    0    0  501    0  0.00000000000E+00  0.00000000000E+00  0.31624164275E+04  0.31624164275E+04  0.25500000000E-02 0. -1.
         -2   -1    0    0    0  501 -0.00000000000E+00 -0.00000000000E+00 -0.83292409096E+03  0.83292409097E+03  0.25500000000E-02 0.  1.
    8880023    1    1    2    0    0 -0.14180279428E+04 -0.32542991840E+03  0.18760844242E+04  0.24637797896E+04  0.65864270000E+03 0.  0.
    8880022    1    1    2    0    0  0.14180279428E+04  0.32542991840E+03  0.45340791236E+03  0.15315607289E+04  0.15294330000E+03 0.  0.
<mgrwt>
<rscale>  0 0.15623916E+04</rscale>
<asrwt>0</asrwt>
<pdfrwt beam="1">  1        2 0.48652561E+00 0.15970342E+04</pdfrwt>
<pdfrwt beam="2">  1       -2 0.12814217E+00 0.15970342E+04</pdfrwt>
<totfact> 0.58245031E-01</totfact>
</mgrwt>
</event>
<event>
 4    5  0.2295023E-007  0.1364732E+04  0.7818608E-02  0.9011583E-01
         -2   -1    0    0    0  501 -0.00000000000E+00  0.00000000000E+00  0.61208227373E+03  0.61208227373E+03  0.25500000000E-02 0.  1.
          2   -1    0    0  501    0  0.00000000000E+00 -0.00000000000E+00 -0.28971774841E+04  0.28971774841E+04  0.25500000000E-02 0. -1.
    8880023    1    1    2    0    0  0.11802713363E+04  0.18879085016E+03 -0.74849518728E+03  0.15565145885E+04  0.65864270000E+03 0.  0.
    8880022    1    1    2    0    0 -0.11802713363E+04 -0.18879085016E+03 -0.15366000231E+04  0.19527451694E+04  0.15294330000E+03 0.  0.
<mgrwt>
<rscale>  0 0.13229214E+04</rscale>
<asrwt>0</asrwt>
<pdfrwt beam="1">  1        2 0.44571960E+00 0.13647317E+04</pdfrwt>
<pdfrwt beam="2">  1       -2 0.94166506E-01 0.13647317E+04</pdfrwt>
<totfact> 0.18628613E+00</totfact>
</mgrwt>
</event>
<event>
 4    5  0.2295023E-007  0.1170169E+04  0.7818608E-02  0.9186680E-01
         -2   -1    0    0    0  501 -0.00000000000E+00  0.00000000000E+00  0.30748096738E+04  0.30748096738E+04  0.25500000000E-02 0.  1.
          2   -1    0    0  501    0  0.00000000000E+00 -0.00000000000E+00 -0.14061538854E+04  0.14061538854E+04  0.25500000000E-02 0. -1.
    8880023    1    1    2    0    0 -0.95695783589E+03 -0.14041507984E+03  0.27701345275E+04  0.30071481841E+04  0.65864270000E+03 0.  0.
    8880022    1    1    2    0    0  0.95695783589E+03  0.14041507984E+03 -0.11014787391E+04  0.14738153751E+04  0.15294330000E+03 0.  0.
<mgrwt>
<rscale>  0 0.11191974E+04</rscale>
<asrwt>0</asrwt>
<pdfrwt beam="1">  1        2 0.21633137E+00 0.11701687E+04</pdfrwt>
<pdfrwt beam="2">  1       -2 0.47304764E+00 0.11701687E+04</pdfrwt>
<totfact> 0.34637354E-02</totfact>
</mgrwt>
</event>
<event>
 4    5  0.2295023E-007  0.8257276E+03  0.7818608E-02  0.9657703E-01
         -2   -1    0    0    0  501 -0.00000000000E+00  0.00000000000E+00  0.40802051309E+03  0.40802051309E+03  0.25500000000E-02 0.  1.
          2   -1    0    0  501    0  0.00000000000E+00 -0.00000000000E+00 -0.16429990627E+04  0.16429990627E+04  0.25500000000E-02 0. -1.
    8880023    1    1    2    0    0 -0.34778234321E+03  0.35645935849E+03 -0.13876031089E+03  0.83730547750E+03  0.65864270000E+03 0.  1.
    8880022    1    1    2    0    0  0.34778234321E+03 -0.35645935849E+03 -0.10962182388E+04  0.12137140983E+04  0.15294330000E+03 0.  0.
<mgrwt>
<rscale>  0 0.73591952E+03</rscale>
<asrwt>0</asrwt>
<pdfrwt beam="1">  1        2 0.25276908E+00 0.82572758E+03</pdfrwt>
<pdfrwt beam="2">  1       -2 0.62772387E-01 0.82572758E+03</pdfrwt>
<totfact> 0.25249745E+01</totfact>
</mgrwt>
</event>
<event>
 4    5  0.2295023E-007  0.1035220E+04  0.7818608E-02  0.9336864E-01
          2   -1    0    0  501    0  0.00000000000E+00  0.00000000000E+00  0.14455797565E+04  0.14455797565E+04  0.25500000000E-02 0. -1.
         -2   -1    0    0    0  501 -0.00000000000E+00 -0.00000000000E+00 -0.11767296133E+04  0.11767296133E+04  0.25500000000E-02 0.  1.
    8880023    1    1    2    0    0 -0.70086771031E+03  0.38295530553E+03 -0.77926143634E+03  0.12957348903E+04  0.65864270000E+03 0.  0.
    8880022    1    1    2    0    0  0.70086771031E+03 -0.38295530553E+03  0.10481115796E+04  0.13265744795E+04  0.15294330000E+03 0.  0.
<mgrwt>
<rscale>  0 0.97458830E+03</rscale>
<asrwt>0</asrwt>
<pdfrwt beam="1">  1        2 0.22239689E+00 0.10352200E+04</pdfrwt>
<pdfrwt beam="2">  1       -2 0.18103533E+00 0.10352200E+04</pdfrwt>
<totfact> 0.24022405E+00</totfact>
</mgrwt>
</event>
<event>
 4    5  0.2295023E-007  0.1122623E+04  0.7818608E-02  0.9236276E-01
         -2   -1    0    0    0  501 -0.00000000000E+00  0.00000000000E+00  0.83897561663E+03  0.83897561663E+03  0.25500000000E-02 0.  1.
          2   -1    0    0  501    0  0.00000000000E+00 -0.00000000000E+00 -0.21950037782E+04  0.21950037782E+04  0.25500000000E-02 0. -1.
    8880023    1    1    2    0    0  0.89338965585E+03 -0.16830858134E+03  0.27917284057E+03  0.11568148240E+04  0.65864270000E+03 0.  0.
    8880022    1    1    2    0    0 -0.89338965585E+03  0.16830858134E+03 -0.16352010022E+04  0.18771645709E+04  0.15294330000E+03 0.  0.
<mgrwt>
<rscale>  0 0.10686716E+04</rscale>
<asrwt>0</asrwt>
<pdfrwt beam="1">  1        2 0.33769289E+00 0.11226233E+04</pdfrwt>
<pdfrwt beam="2">  1       -2 0.12907317E+00 0.11226233E+04</pdfrwt>
<totfact> 0.22653775E+00</totfact>
</mgrwt>
</event>
<event>
 4    5  0.2295023E-007  0.1167804E+04  0.7818608E-02  0.9189073E-01
          2   -1    0    0  501    0  0.00000000000E+00  0.00000000000E+00  0.16793965950E+04  0.16793965950E+04  0.25500000000E-02 0. -1.
         -2   -1    0    0    0  501 -0.00000000000E+00 -0.00000000000E+00 -0.14203635140E+04  0.14203635140E+04  0.25500000000E-02 0.  1.
    8880023    1    1    2    0    0 -0.24502743433E+03  0.93269321071E+03 -0.97840660111E+03  0.15234975393E+04  0.65864270000E+03 0.  0.
    8880022    1    1    2    0    0  0.24502743433E+03 -0.93269321071E+03  0.12374396821E+04  0.15762625698E+04  0.15294330000E+03 0.  0.
<mgrwt>
<rscale>  0 0.11166928E+04</rscale>
<asrwt>0</asrwt>
<pdfrwt beam="1">  1        2 0.25836871E+00 0.11678036E+04</pdfrwt>
<pdfrwt beam="2">  1       -2 0.21851746E+00 0.11678036E+04</pdfrwt>
<totfact> 0.99079493E-01</totfact>
</mgrwt>
</event>
<event>
 4    5  0.2295023E-007  0.9178288E+03  0.7818608E-02  0.9497996E-01
          2   -1    0    0  501    0  0.00000000000E+00  0.00000000000E+00  0.35697088023E+04  0.35697088023E+04  0.25500000000E-02 0. -1.
         -2   -1    0    0    0  501 -0.00000000000E+00 -0.00000000000E+00 -0.34446316321E+03  0.34446316322E+03  0.25500000000E-02 0.  1.
    8880023    1    1    2    0    0 -0.42514814282E+03  0.47733482419E+03  0.37896091870E+03  0.99298593237E+03  0.65864270000E+03 0.  1.
    8880022    1    1    2    0    0  0.42514814282E+03 -0.47733482419E+03  0.28462847203E+04  0.29211860331E+04  0.15294330000E+03 0.  0.
<mgrwt>
<rscale>  0 0.84431715E+03</rscale>
<asrwt>0</asrwt>
<pdfrwt beam="1">  1        2 0.54918593E+00 0.91782879E+03</pdfrwt>
<pdfrwt beam="2">  1       -2 0.52994337E-01 0.91782879E+03</pdfrwt>
<totfact> 0.25685245E+00</totfact>
</mgrwt>
</event>
<event>
 4    5  0.2295023E-007  0.8946478E+03  0.7818608E-02  0.9534679E-01
         -2   -1    0    0    0  501 -0.00000000000E+00  0.00000000000E+00  0.86240313993E+03  0.86240313993E+03  0.25500000000E-02 0.  1.
          2   -1    0    0  501    0  0.00000000000E+00 -0.00000000000E+00 -0.15976191836E+04  0.15976191836E+04  0.25500000000E-02 0. -1.
    8880023    1    1    2    0    0 -0.46271955726E+03 -0.39048059335E+03  0.53655024998E+03  0.10432070070E+04  0.65864270000E+03 0.  1.
    8880022    1    1    2    0    0  0.46271955726E+03  0.39048059335E+03 -0.12717662936E+04  0.14168153165E+04  0.15294330000E+03 0.  0.
<mgrwt>
<rscale>  0 0.81774675E+03</rscale>
<asrwt>0</asrwt>
<pdfrwt beam="1">  1        2 0.24578757E+00 0.89464780E+03</pdfrwt>
<pdfrwt beam="2">  1       -2 0.13267741E+00 0.89464780E+03</pdfrwt>
<totfact> 0.46443898E+00</totfact>
</mgrwt>
</event>
<event>
 4    5  0.2295023E-007  0.1020478E+04  0.7818608E-02  0.9355244E-01
         -2   -1    0    0    0  501 -0.00000000000E+00  0.00000000000E+00  0.68148427996E+03  0.68148427996E+03  0.25500000000E-02 0.  1.
          2   -1    0    0  501    0  0.00000000000E+00 -0.00000000000E+00 -0.21467910066E+04  0.21467910066E+04  0.25500000000E-02 0. -1.
    8880023    1    1    2    0    0  0.69052622697E+03 -0.36157696309E+03  0.14691171657E+03  0.10309983652E+04  0.65864270000E+03 0.  1.
    8880022    1    1    2    0    0 -0.69052622697E+03  0.36157696309E+03 -0.16122184432E+04  0.17972769214E+04  0.15294330000E+03 0.  0.
<mgrwt>
<rscale>  0 0.95852292E+03</rscale>
<asrwt>0</asrwt>
<pdfrwt beam="1">  1        2 0.33027553E+00 0.10204776E+04</pdfrwt>
<pdfrwt beam="2">  1       -2 0.10484374E+00 0.10204776E+04</pdfrwt>
<totfact> 0.40792877E+00</totfact>
</mgrwt>
</event>
<event>
 4    5  0.2295023E-007  0.9420363E+03  0.7818608E-02  0.9461666E-01
          2   -1    0    0  501    0  0.00000000000E+00  0.00000000000E+00  0.19864277227E+04  0.19864277227E+04  0.25500000000E-02 0. -1.
         -2   -1    0    0    0  501 -0.00000000000E+00 -0.00000000000E+00 -0.45129745754E+03  0.45129745754E+03  0.25500000000E-02 0.  1.
    8880023    1    1    2    0    0 -0.12575612936E+03 -0.66167033869E+03  0.24344395721E+03  0.97298376540E+03  0.65864270000E+03 0.  1.
    8880022    1    1    2    0    0  0.12575612936E+03  0.66167033869E+03  0.12916863080E+04  0.14647414148E+04  0.15294330000E+03 0.  0.
<mgrwt>
<rscale>  0 0.87170014E+03</rscale>
<asrwt>0</asrwt>
<pdfrwt beam="1">  1        2 0.30560427E+00 0.94203633E+03</pdfrwt>
<pdfrwt beam="2">  1       -2 0.69430377E-01 0.94203633E+03</pdfrwt>
<totfact> 0.12985401E+01</totfact>
</mgrwt>
</event>
<event>
 4    5  0.2295023E-007  0.6618531E+03  0.7818608E-02  0.1022333E+00
         -2   -1    0    0    0  501 -0.00000000000E+00  0.00000000000E+00  0.23847481692E+03  0.23847481693E+03  0.25500000000E-02 0.  1.
          2   -1    0    0  501    0  0.00000000000E+00 -0.00000000000E+00 -0.15667870999E+04  0.15667871000E+04  0.25500000000E-02 0. -1.
    8880023    1    1    2    0    0  0.47841228125E+02  0.44165157465E+02 -0.23952994670E+03  0.70386372678E+03  0.65864270000E+03 0.  1.
    8880022    1    1    2    0    0 -0.47841228125E+02 -0.44165157465E+02 -0.10887823363E+04  0.11013981901E+04  0.15294330000E+03 0.  0.
<mgrwt>
<rscale>  0 0.46853904E+03</rscale>
<asrwt>0</asrwt>
<pdfrwt beam="1">  1        2 0.24104416E+00 0.66185312E+03</pdfrwt>
<pdfrwt beam="2">  1       -2 0.36688434E-01 0.66185312E+03</pdfrwt>
<totfact> 0.83844549E+01</totfact>
</mgrwt>
</event>
<event>
 4    5  0.2295023E-007  0.8040701E+03  0.7818608E-02  0.9702064E-01
         -2   -1    0    0    0  501 -0.00000000000E+00  0.00000000000E+00  0.38170555887E+03  0.38170555887E+03  0.25500000000E-02 0.  1.
          2   -1    0    0  501    0  0.00000000000E+00 -0.00000000000E+00 -0.22290876982E+04  0.22290876982E+04  0.25500000000E-02 0. -1.
    8880023    1    1    2    0    0  0.45888701069E+03  0.46273679537E+02 -0.11584949147E+03  0.81237297649E+03  0.65864270000E+03 0.  1.
    8880022    1    1    2    0    0 -0.45888701069E+03 -0.46273679537E+02 -0.17315326479E+04  0.17984202806E+04  0.15294330000E+03 0.  0.
<mgrwt>
<rscale>  0 0.70894049E+03</rscale>
<asrwt>0</asrwt>
<pdfrwt beam="1">  1        2 0.34293656E+00 0.80407011E+03</pdfrwt>
<pdfrwt beam="2">  1       -2 0.58723934E-01 0.80407011E+03</pdfrwt>
<totfact> 0.13911078E+01</totfact>
</mgrwt>
</event>
<event>
 4    5  0.2295023E-007  0.9025861E+03  0.7818608E-02  0.9521893E-01
         -2   -1    0    0    0  501 -0.00000000000E+00  0.00000000000E+00  0.99245653624E+03  0.99245653624E+03  0.25500000000E-02 0.  1.
          2   -1    0    0  501    0  0.00000000000E+00 -0.00000000000E+00 -0.13431858510E+04  0.13431858510E+04  0.25500000000E-02 0. -1.
    8880023    1    1    2    0    0 -0.29671069811E+03  0.54112316701E+03  0.67622360349E+03  0.11278032135E+04  0.65864270000E+03 0.  0.
    8880022    1    1    2    0    0  0.29671069811E+03 -0.54112316701E+03 -0.10269529182E+04  0.12078391737E+04  0.15294330000E+03 0.  0.
<mgrwt>
<rscale>  0 0.82688827E+03</rscale>
<asrwt>0</asrwt>
<pdfrwt beam="1">  1        2 0.20664398E+00 0.90258613E+03</pdfrwt>
<pdfrwt beam="2">  1       -2 0.15268562E+00 0.90258613E+03</pdfrwt>
<totfact> 0.44729113E+00</totfact>
</mgrwt>
</event>
<event>
 4    5  0.2295023E-007  0.1499030E+04  0.7818608E-02  0.8910321E-01
          2   -1    0    0  501    0  0.00000000000E+00  0.00000000000E+00  0.41052928921E+04  0.41052928921E+04  0.25500000000E-02 0. -1.
         -2   -1    0    0    0  501 -0.00000000000E+00 -0.00000000000E+00 -0.12200966257E+04  0.12200966257E+04  0.25500000000E-02 0.  1.
    8880023    1    1    2    0    0 -0.12158470011E+04 -0.57878876391E+03 -0.57789268719E+03  0.16065648221E+04  0.65864270000E+03 0.  0.
    8880022    1    1    2    0    0  0.12158470011E+04  0.57878876391E+03  0.34630889536E+04  0.37188246957E+04  0.15294330000E+03 0.  0.
<mgrwt>
<rscale>  0 0.14617115E+04</rscale>
<asrwt>0</asrwt>
<pdfrwt beam="1">  1        2 0.63158353E+00 0.14990299E+04</pdfrwt>
<pdfrwt beam="2">  1       -2 0.18770717E+00 0.14990299E+04</pdfrwt>
<totfact> 0.43140327E-02</totfact>
</mgrwt>
</event>
<event>
 4    5  0.2295023E-007  0.1112518E+04  0.7818608E-02  0.9247245E-01
          2   -1    0    0  501    0  0.00000000000E+00  0.00000000000E+00  0.19119254739E+04  0.19119254739E+04  0.25500000000E-02 0. -1.
         -2   -1    0    0    0  501 -0.00000000000E+00 -0.00000000000E+00 -0.61261757677E+03  0.61261757677E+03  0.25500000000E-02 0.  1.
    8880023    1    1    2    0    0  0.19331421072E+03 -0.87550939106E+03  0.25820126383E+03  0.11420880775E+04  0.65864270000E+03 0.  1.
    8880022    1    1    2    0    0 -0.19331421072E+03  0.87550939106E+03  0.10411066333E+04  0.13824549732E+04  0.15294330000E+03 0.  0.
<mgrwt>
<rscale>  0 0.10578812E+04</rscale>
<asrwt>0</asrwt>
<pdfrwt beam="1">  1        2 0.29414238E+00 0.11125184E+04</pdfrwt>
<pdfrwt beam="2">  1       -2 0.94248860E-01 0.11125184E+04</pdfrwt>
<totfact> 0.70135628E+00</totfact>
</mgrwt>
</event>
<event>
 4    5  0.2295023E-007  0.7657269E+03  0.7818608E-02  0.9790501E-01
         -2   -1    0    0    0  501 -0.00000000000E+00  0.00000000000E+00  0.56219163437E+03  0.56219163437E+03  0.25500000000E-02 0.  1.
          2   -1    0    0  501    0  0.00000000000E+00 -0.00000000000E+00 -0.35739423003E+04  0.35739423003E+04  0.25500000000E-02 0. -1.
    8880023    1    1    2    0    0 -0.30149714679E+03  0.24824767334E+03  0.28183717326E+03  0.81594720132E+03  0.65864270000E+03 0.  0.
    8880022    1    1    2    0    0  0.30149714679E+03 -0.24824767334E+03 -0.32935878391E+04  0.33201867333E+04  0.15294330000E+03 0.  0.
<mgrwt>
<rscale>  0 0.65874835E+03</rscale>
<asrwt>0</asrwt>
<pdfrwt beam="1">  1        2 0.54983726E+00 0.76572687E+03</pdfrwt>
<pdfrwt beam="2">  1       -2 0.86491023E-01 0.76572687E+03</pdfrwt>
<totfact> 0.90791267E-01</totfact>
</mgrwt>
</event>
<event>
 4    5  0.2295023E-007  0.8005037E+03  0.7818608E-02  0.9709708E-01
         -2   -1    0    0    0  501 -0.00000000000E+00  0.00000000000E+00  0.11985677277E+04  0.11985677277E+04  0.25500000000E-02 0.  1.
          2   -1    0    0  501    0  0.00000000000E+00 -0.00000000000E+00 -0.13632368386E+04  0.13632368386E+04  0.25500000000E-02 0. -1.
    8880023    1    1    2    0    0 -0.31482295000E+03  0.32845462858E+03  0.10123935406E+04  0.12906381446E+04  0.65864270000E+03 0.  1.
    8880022    1    1    2    0    0  0.31482295000E+03 -0.32845462858E+03 -0.11770626516E+04  0.12711664217E+04  0.15294330000E+03 0.  0.
<mgrwt>
<rscale>  0 0.70441709E+03</rscale>
<asrwt>0</asrwt>
<pdfrwt beam="1">  1        2 0.20972875E+00 0.80050368E+03</pdfrwt>
<pdfrwt beam="2">  1       -2 0.18439503E+00 0.80050368E+03</pdfrwt>
<totfact> 0.26195828E+00</totfact>
</mgrwt>
</event>
<event>
 4    5  0.2295023E-007  0.9011251E+03  0.7818608E-02  0.9524228E-01
          2   -1    0    0  501    0  0.00000000000E+00  0.00000000000E+00  0.15672618490E+04  0.15672618490E+04  0.25500000000E-02 0. -1.
         -2   -1    0    0    0  501 -0.00000000000E+00 -0.00000000000E+00 -0.10025538488E+04  0.10025538488E+04  0.25500000000E-02 0.  1.
    8880023    1    1    2    0    0 -0.61491262213E+03 -0.99362813028E+01 -0.70936750050E+03  0.11468342162E+04  0.65864270000E+03 0.  0.
    8880022    1    1    2    0    0  0.61491262213E+03  0.99362813028E+01  0.12740755007E+04  0.14229814816E+04  0.15294330000E+03 0.  0.
<mgrwt>
<rscale>  0 0.82520928E+03</rscale>
<asrwt>0</asrwt>
<pdfrwt beam="1">  1        2 0.24111721E+00 0.90112511E+03</pdfrwt>
<pdfrwt beam="2">  1       -2 0.15423905E+00 0.90112511E+03</pdfrwt>
<totfact> 0.32542599E+00</totfact>
</mgrwt>
</event>
<event>
 4    5  0.2295023E-007  0.8912632E+03  0.7818608E-02  0.9540205E-01
          2   -1    0    0  501    0  0.00000000000E+00  0.00000000000E+00  0.43469830993E+03  0.43469830994E+03  0.25500000000E-02 0. -1.
         -2   -1    0    0    0  501 -0.00000000000E+00 -0.00000000000E+00 -0.23877063788E+04  0.23877063788E+04  0.25500000000E-02 0.  1.
    8880023    1    1    2    0    0  0.34901163339E+03 -0.48860077121E+03 -0.20114190141E+04  0.22000355657E+04  0.65864270000E+03 0.  1.
    8880022    1    1    2    0    0 -0.34901163339E+03  0.48860077121E+03  0.58410945148E+02  0.62236912311E+03  0.15294330000E+03 0.  0.
<mgrwt>
<rscale>  0 0.81383467E+03</rscale>
<asrwt>0</asrwt>
<pdfrwt beam="1">  1        2 0.66876665E-01 0.89126317E+03</pdfrwt>
<pdfrwt beam="2">  1       -2 0.36733943E+00 0.89126317E+03</pdfrwt>
<totfact> 0.90269738E-01</totfact>
</mgrwt>
</event>
<event>
 4    5  0.2295023E-007  0.9050942E+03  0.7818608E-02  0.9517903E-01
         -2   -1    0    0    0  501 -0.00000000000E+00  0.00000000000E+00  0.12052977823E+04  0.12052977823E+04  0.25500000000E-02 0.  1.
          2   -1    0    0  501    0  0.00000000000E+00 -0.00000000000E+00 -0.12118009439E+04  0.12118009439E+04  0.25500000000E-02 0. -1.
    8880023    1    1    2    0    0 -0.17341433527E+03  0.59608122991E+03  0.92053773077E+03  0.12909629291E+04  0.65864270000E+03 0.  1.
    8880022    1    1    2    0    0  0.17341433527E+03 -0.59608122991E+03 -0.92704089236E+03  0.11261357971E+04  0.15294330000E+03 0.  0.
<mgrwt>
<rscale>  0 0.82976700E+03</rscale>
<asrwt>0</asrwt>
<pdfrwt beam="1">  1        2 0.18643091E+00 0.90509423E+03</pdfrwt>
<pdfrwt beam="2">  1       -2 0.18543043E+00 0.90509423E+03</pdfrwt>
<totfact> 0.31109625E+00</totfact>
</mgrwt>
</event>
<event>
 4    5  0.2295023E-007  0.1370970E+04  0.7818608E-02  0.9006575E-01
          2   -1    0    0  501    0  0.00000000000E+00  0.00000000000E+00  0.29803039600E+04  0.29803039600E+04  0.25500000000E-02 0. -1.
         -2   -1    0    0    0  501 -0.00000000000E+00 -0.00000000000E+00 -0.88400648534E+03  0.88400648535E+03  0.25500000000E-02 0.  1.
    8880023    1    1    2    0    0 -0.11777762110E+04 -0.24205512272E+03 -0.79938503182E+02  0.13732981672E+04  0.65864270000E+03 0.  0.
    8880022    1    1    2    0    0  0.11777762110E+04  0.24205512272E+03  0.21762359779E+04  0.24910122781E+04  0.15294330000E+03 0.  0.
<mgrwt>
<rscale>  0 0.13293941E+04</rscale>
<asrwt>0</asrwt>
<pdfrwt beam="1">  1        2 0.45850830E+00 0.13709696E+04</pdfrwt>
<pdfrwt beam="2">  1       -2 0.13600100E+00 0.13709696E+04</pdfrwt>
<totfact> 0.66855653E-01</totfact>
</mgrwt>
</event>
<event>
 4    5  0.2295023E-007  0.9851959E+03  0.7818608E-02  0.9401187E-01
          2   -1    0    0  501    0  0.00000000000E+00  0.00000000000E+00  0.29142790642E+04  0.29142790642E+04  0.25500000000E-02 0. -1.
         -2   -1    0    0    0  501 -0.00000000000E+00 -0.00000000000E+00 -0.69945549549E+03  0.69945549549E+03  0.25500000000E-02 0.  1.
    8880023    1    1    2    0    0 -0.22811943009E+03  0.69624875593E+03 -0.26763360997E+03  0.10209009550E+04  0.65864270000E+03 0.  0.
    8880022    1    1    2    0    0  0.22811943009E+03 -0.69624875593E+03  0.24824571787E+04  0.25928336047E+04  0.15294330000E+03 0.  0.
<mgrwt>
<rscale>  0 0.91978032E+03</rscale>
<asrwt>0</asrwt>
<pdfrwt beam="1">  1        2 0.44835063E+00 0.98519593E+03</pdfrwt>
<pdfrwt beam="2">  1       -2 0.10760854E+00 0.98519593E+03</pdfrwt>
<totfact> 0.13904740E+00</totfact>
</mgrwt>
</event>
<event>
 4    5  0.2295023E-007  0.1064703E+04  0.7818608E-02  0.9301412E-01
         -2   -1    0    0    0  501 -0.00000000000E+00  0.00000000000E+00  0.11368535747E+04  0.11368535747E+04  0.25500000000E-02 0.  1.
          2   -1    0    0  501    0  0.00000000000E+00 -0.00000000000E+00 -0.12514644183E+04  0.12514644183E+04  0.25500000000E-02 0. -1.
    8880023    1    1    2    0    0 -0.53267127560E+03 -0.64501377115E+03  0.64772131506E+03  0.12462481940E+04  0.65864270000E+03 0.  1.
    8880022    1    1    2    0    0  0.53267127560E+03  0.64501377115E+03 -0.76233215863E+03  0.11420697991E+04  0.15294330000E+03 0.  0.
<mgrwt>
<rscale>  0 0.10065295E+04</rscale>
<asrwt>0</asrwt>
<pdfrwt beam="1">  1        2 0.19253299E+00 0.10647026E+04</pdfrwt>
<pdfrwt beam="2">  1       -2 0.17490055E+00 0.10647026E+04</pdfrwt>
<totfact> 0.34198657E+00</totfact>
</mgrwt>
</event>
<event>
 4    5  0.2295023E-007  0.1212322E+04  0.7818608E-02  0.9145236E-01
          2   -1    0    0  501    0  0.00000000000E+00  0.00000000000E+00  0.30517149086E+04  0.30517149086E+04  0.25500000000E-02 0. -1.
         -2   -1    0    0    0  501 -0.00000000000E+00 -0.00000000000E+00 -0.58478868247E+03  0.58478868247E+03  0.25500000000E-02 0.  1.
    8880023    1    1    2    0    0  0.34619665000E+03 -0.95711191385E+03  0.31725583665E+03  0.12531467625E+04  0.65864270000E+03 0.  1.
    8880022    1    1    2    0    0 -0.34619665000E+03  0.95711191385E+03  0.21496703895E+04  0.23833568286E+04  0.15294330000E+03 0.  0.
<mgrwt>
<rscale>  0 0.11637008E+04</rscale>
<asrwt>0</asrwt>
<pdfrwt beam="1">  1        2 0.46949460E+00 0.12123224E+04</pdfrwt>
<pdfrwt beam="2">  1       -2 0.89967490E-01 0.12123224E+04</pdfrwt>
<totfact> 0.16935703E+00</totfact>
</mgrwt>
</event>
<event>
 4    5  0.2295023E-007  0.1080688E+04  0.7818608E-02  0.9282869E-01
         -2   -1    0    0    0  501 -0.00000000000E+00  0.00000000000E+00  0.68281502672E+03  0.68281502673E+03  0.25500000000E-02 0.  1.
          2   -1    0    0  501    0  0.00000000000E+00 -0.00000000000E+00 -0.39314786497E+04  0.39314786497E+04  0.25500000000E-02 0. -1.
    8880023    1    1    2    0    0  0.20527110564E+03  0.83182912592E+03  0.16340855510E+03  0.10929723161E+04  0.65864270000E+03 0.  1.
    8880022    1    1    2    0    0 -0.20527110564E+03 -0.83182912592E+03 -0.34120721781E+04  0.35213213604E+04  0.15294330000E+03 0.  0.
<mgrwt>
<rscale>  0 0.10237542E+04</rscale>
<asrwt>0</asrwt>
<pdfrwt beam="1">  1        2 0.60484286E+00 0.10806878E+04</pdfrwt>
<pdfrwt beam="2">  1       -2 0.10504847E+00 0.10806878E+04</pdfrwt>
<totfact> 0.29418224E-01</totfact>
</mgrwt>
</event>
<event>
 4    5  0.2295023E-007  0.7583790E+03  0.7818608E-02  0.9809322E-01
         -2   -1    0    0    0  501 -0.00000000000E+00  0.00000000000E+00  0.21844673463E+03  0.21844673464E+03  0.25500000000E-02 0.  1.
          2   -1    0    0  501    0  0.00000000000E+00 -0.00000000000E+00 -0.31033212008E+04  0.31033212008E+04  0.25500000000E-02 0. -1.
    8880023    1    1    2    0    0  0.32087449017E+03 -0.19587750908E+03 -0.51340223288E+03  0.91581684631E+03  0.65864270000E+03 0.  0.
    8880022    1    1    2    0    0 -0.32087449017E+03  0.19587750908E+03 -0.23714722333E+04  0.24059510891E+04  0.15294330000E+03 0.  0.
<mgrwt>
<rscale>  0 0.64864642E+03</rscale>
<asrwt>0</asrwt>
<pdfrwt beam="1">  1        2 0.47743400E+00 0.75837896E+03</pdfrwt>
<pdfrwt beam="2">  1       -2 0.33607192E-01 0.75837896E+03</pdfrwt>
<totfact> 0.13179700E+01</totfact>
</mgrwt>
</event>
<event>
 4    5  0.2295023E-007  0.1008601E+04  0.7818608E-02  0.9370390E-01
         -2   -1    0    0    0  501 -0.00000000000E+00  0.00000000000E+00  0.82456683498E+03  0.82456683498E+03  0.25500000000E-02 0.  1.
          2   -1    0    0  501    0  0.00000000000E+00 -0.00000000000E+00 -0.16854261884E+04  0.16854261884E+04  0.25500000000E-02 0. -1.
    8880023    1    1    2    0    0  0.62714697824E+03  0.43606506868E+03  0.35220952520E+03  0.10683294587E+04  0.65864270000E+03 0.  0.
    8880022    1    1    2    0    0 -0.62714697824E+03 -0.43606506868E+03 -0.12130688787E+04  0.14416635647E+04  0.15294330000E+03 0.  0.
<mgrwt>
<rscale>  0 0.94553031E+03</rscale>
<asrwt>0</asrwt>
<pdfrwt beam="1">  1        2 0.25929634E+00 0.10086012E+04</pdfrwt>
<pdfrwt beam="2">  1       -2 0.12685644E+00 0.10086012E+04</pdfrwt>
<totfact> 0.45892453E+00</totfact>
</mgrwt>
</event>
<event>
 4    5  0.2295023E-007  0.6754674E+03  0.7818608E-02  0.1012013E+00
         -2   -1    0    0    0  501 -0.00000000000E+00  0.00000000000E+00  0.65721988198E+02  0.65721988248E+02  0.25500000000E-02 0.  1.
          2   -1    0    0  501    0  0.00000000000E+00 -0.00000000000E+00 -0.52364488818E+04  0.52364488818E+04  0.25500000000E-02 0. -1.
    8880023    1    1    2    0    0 -0.14866963611E+03 -0.18528091275E+02 -0.17667986016E+04  0.18915161791E+04  0.65864270000E+03 0. -1.
    8880022    1    1    2    0    0  0.14866963611E+03  0.18528091275E+02 -0.34039282920E+04  0.34106546910E+04  0.15294330000E+03 0. -1.
<mgrwt>
<rscale>  0 0.50682265E+03</rscale>
<asrwt>0</asrwt>
<pdfrwt beam="1">  1        2 0.80560719E+00 0.67546736E+03</pdfrwt>
<pdfrwt beam="2">  1       -2 0.10111079E-01 0.67546736E+03</pdfrwt>
<totfact> 0.13434687E+00</totfact>
</mgrwt>
</event>
<event>
 4    5  0.2295023E-007  0.7437030E+03  0.7818608E-02  0.9849289E-01
         -2   -1    0    0    0  501 -0.00000000000E+00  0.00000000000E+00  0.13487003691E+04  0.13487003691E+04  0.25500000000E-02 0.  1.
          2   -1    0    0  501    0  0.00000000000E+00 -0.00000000000E+00 -0.15132048631E+04  0.15132048631E+04  0.25500000000E-02 0. -1.
    8880023    1    1    2    0    0 -0.29622030184E+03  0.17758777830E+03  0.12188951976E+04  0.14278653981E+04  0.65864270000E+03 0.  1.
    8880022    1    1    2    0    0  0.29622030184E+03 -0.17758777830E+03 -0.13833996916E+04  0.14340398342E+04  0.15294330000E+03 0.  0.
<mgrwt>
<rscale>  0 0.62783182E+03</rscale>
<asrwt>0</asrwt>
<pdfrwt beam="1">  1        2 0.23280075E+00 0.74370296E+03</pdfrwt>
<pdfrwt beam="2">  1       -2 0.20749236E+00 0.74370296E+03</pdfrwt>
<totfact> 0.15350564E+00</totfact>
</mgrwt>
</event>
<event>
 4    5  0.2295023E-007  0.9693492E+03  0.7818608E-02  0.9422805E-01
         -2   -1    0    0    0  501 -0.00000000000E+00  0.00000000000E+00  0.24843296000E+03  0.24843296001E+03  0.25500000000E-02 0.  1.
          2   -1    0    0  501    0  0.00000000000E+00 -0.00000000000E+00 -0.32513279256E+04  0.32513279256E+04  0.25500000000E-02 0. -1.
    8880023    1    1    2    0    0 -0.44510223183E+03 -0.55471766723E+03 -0.11200558515E+04  0.14812707396E+04  0.65864270000E+03 0.  1.
    8880022    1    1    2    0    0  0.44510223183E+03  0.55471766723E+03 -0.18828391141E+04  0.20184901461E+04  0.15294330000E+03 0.  0.
<mgrwt>
<rscale>  0 0.90222459E+03</rscale>
<asrwt>0</asrwt>
<pdfrwt beam="1">  1        2 0.50020427E+00 0.96934921E+03</pdfrwt>
<pdfrwt beam="2">  1       -2 0.38220458E-01 0.96934921E+03</pdfrwt>
<totfact> 0.80206250E+00</totfact>
</mgrwt>
</event>
<event>
 4    5  0.2295023E-007  0.1046565E+04  0.7818608E-02  0.9323022E-01
          2   -1    0    0  501    0  0.00000000000E+00  0.00000000000E+00  0.29417650072E+04  0.29417650072E+04  0.25500000000E-02 0. -1.
         -2   -1    0    0    0  501 -0.00000000000E+00 -0.00000000000E+00 -0.46301104083E+03  0.46301104084E+03  0.25500000000E-02 0.  1.
    8880023    1    1    2    0    0 -0.15089158947E+03 -0.79919959825E+03  0.32244434824E+03  0.10951113339E+04  0.65864270000E+03 0.  0.
    8880022    1    1    2    0    0  0.15089158947E+03  0.79919959825E+03  0.21563096181E+04  0.23096647142E+04  0.15294330000E+03 0.  0.
<mgrwt>
<rscale>  0 0.98690758E+03</rscale>
<asrwt>0</asrwt>
<pdfrwt beam="1">  1        2 0.45257922E+00 0.10465651E+04</pdfrwt>
<pdfrwt beam="2">  1       -2 0.71232469E-01 0.10465651E+04</pdfrwt>
<totfact> 0.34335017E+00</totfact>
</mgrwt>
</event>
<event>
 4    5  0.2295023E-007  0.1112406E+04  0.7818608E-02  0.9247368E-01
         -2   -1    0    0    0  501 -0.00000000000E+00  0.00000000000E+00  0.13671680115E+04  0.13671680115E+04  0.25500000000E-02 0.  1.
          2   -1    0    0  501    0  0.00000000000E+00 -0.00000000000E+00 -0.20574325870E+04  0.20574325870E+04  0.25500000000E-02 0. -1.
    8880023    1    1    2    0    0 -0.58018836466E+03  0.68338712852E+03  0.10060685523E+04  0.14998735427E+04  0.65864270000E+03 0.  0.
    8880022    1    1    2    0    0  0.58018836466E+03 -0.68338712852E+03 -0.16963331278E+04  0.19247270558E+04  0.15294330000E+03 0.  0.
<mgrwt>
<rscale>  0 0.10577608E+04</rscale>
<asrwt>0</asrwt>
<pdfrwt beam="1">  1        2 0.31652809E+00 0.11124058E+04</pdfrwt>
<pdfrwt beam="2">  1       -2 0.21033354E+00 0.11124058E+04</pdfrwt>
<totfact> 0.69548560E-01</totfact>
</mgrwt>
</event>
<event>
 4    5  0.2295023E-007  0.6972233E+03  0.7818608E-02  0.1000892E+00
          2   -1    0    0  501    0  0.00000000000E+00  0.00000000000E+00  0.20772060544E+04  0.20772060544E+04  0.25500000000E-02 0. -1.
         -2   -1    0    0    0  501 -0.00000000000E+00 -0.00000000000E+00 -0.70578493537E+03  0.70578493537E+03  0.25500000000E-02 0.  1.
    8880023    1    1    2    0    0  0.13538270586E+03 -0.18434108327E+03 -0.52118459369E+03  0.87049049334E+03  0.65864270000E+03 0.  1.
    8880022    1    1    2    0    0 -0.13538270586E+03  0.18434108327E+03  0.18926057127E+04  0.19125004964E+04  0.15294330000E+03 0.  0.
<mgrwt>
<rscale>  0 0.55260800E+03</rscale>
<asrwt>0</asrwt>
<pdfrwt beam="1">  1        2 0.31957016E+00 0.69722329E+03</pdfrwt>
<pdfrwt beam="2">  1       -2 0.10858230E+00 0.69722329E+03</pdfrwt>
<totfact> 0.42990375E+00</totfact>
</mgrwt>
</event>
<event>
 4    5  0.2295023E-007  0.1130641E+04  0.7818608E-02  0.9227684E-01
          2   -1    0    0  501    0  0.00000000000E+00  0.00000000000E+00  0.10809149114E+04  0.10809149114E+04  0.25500000000E-02 0. -1.
         -2   -1    0    0    0  501 -0.00000000000E+00 -0.00000000000E+00 -0.11435949966E+04  0.11435949966E+04  0.25500000000E-02 0.  1.
    8880023    1    1    2    0    0  0.82856732677E+03  0.39751183382E+03 -0.44823772826E+03  0.12162511008E+04  0.65864270000E+03 0.  0.
    8880022    1    1    2    0    0 -0.82856732677E+03 -0.39751183382E+03  0.38555764310E+03  0.10082588071E+04  0.15294330000E+03 0.  0.
<mgrwt>
<rscale>  0 0.10772197E+04</rscale>
<asrwt>0</asrwt>
<pdfrwt beam="1">  1        2 0.16629460E+00 0.11306413E+04</pdfrwt>
<pdfrwt beam="2">  1       -2 0.17593769E+00 0.11306413E+04</pdfrwt>
<totfact> 0.42393891E+00</totfact>
</mgrwt>
</event>
<event>
 4    5  0.2295023E-007  0.7768359E+03  0.7818608E-02  0.9763323E-01
          2   -1    0    0  501    0  0.00000000000E+00  0.00000000000E+00  0.14027224360E+04  0.14027224360E+04  0.25500000000E-02 0. -1.
         -2   -1    0    0    0  501 -0.00000000000E+00 -0.00000000000E+00 -0.75719953368E+03  0.75719953369E+03  0.25500000000E-02 0.  1.
    8880023    1    1    2    0    0  0.27767363941E+03  0.30423860338E+03 -0.50621798885E+03  0.92721660700E+03  0.65864270000E+03 0.  0.
    8880022    1    1    2    0    0 -0.27767363941E+03 -0.30423860338E+03  0.11517408912E+04  0.12327053627E+04  0.15294330000E+03 0.  0.
<mgrwt>
<rscale>  0 0.67368552E+03</rscale>
<asrwt>0</asrwt>
<pdfrwt beam="1">  1        2 0.21580345E+00 0.77683588E+03</pdfrwt>
<pdfrwt beam="2">  1       -2 0.11649224E+00 0.77683588E+03</pdfrwt>
<totfact> 0.83984956E+00</totfact>
</mgrwt>
</event>
<event>
 4    5  0.2295023E-007  0.6919523E+03  0.7818608E-02  0.1003238E+00
          2   -1    0    0  501    0  0.00000000000E+00  0.00000000000E+00  0.88218672527E+03  0.88218672527E+03  0.25500000000E-02 0. -1.
         -2   -1    0    0    0  501 -0.00000000000E+00 -0.00000000000E+00 -0.49568489588E+03  0.49568489589E+03  0.25500000000E-02 0.  1.
    8880023    1    1    2    0    0  0.19830040126E+03  0.75264226430E+02 -0.21285753881E+03  0.72395185683E+03  0.65864270000E+03 0.  1.
    8880022    1    1    2    0    0 -0.19830040126E+03 -0.75264226430E+02  0.59935936819E+03  0.65391976433E+03  0.15294330000E+03 0.  0.
<mgrwt>
<rscale>  0 0.54252877E+03</rscale>
<asrwt>0</asrwt>
<pdfrwt beam="1">  1        2 0.13572103E+00 0.69195228E+03</pdfrwt>
<pdfrwt beam="2">  1       -2 0.76259215E-01 0.69195228E+03</pdfrwt>
<totfact> 0.47305300E+01</totfact>
</mgrwt>
</event>
<event>
 4    5  0.2295023E-007  0.6999369E+03  0.7818608E-02  0.9997463E-01
         -2   -1    0    0    0  501 -0.00000000000E+00  0.00000000000E+00  0.46931040781E+03  0.46931040782E+03  0.25500000000E-02 0.  1.
          2   -1    0    0  501    0  0.00000000000E+00 -0.00000000000E+00 -0.22493475720E+04  0.22493475720E+04  0.25500000000E-02 0. -1.
    8880023    1    1    2    0    0  0.14233734738E+03  0.18931871310E+03  0.19261722371E+03  0.72595667689E+03  0.65864270000E+03 0.  1.
    8880022    1    1    2    0    0 -0.14233734738E+03 -0.18931871310E+03 -0.19726543879E+04  0.19927013029E+04  0.15294330000E+03 0.  0.
<mgrwt>
<rscale>  0 0.55761621E+03</rscale>
<asrwt>0</asrwt>
<pdfrwt beam="1">  1        2 0.34605347E+00 0.69993693E+03</pdfrwt>
<pdfrwt beam="2">  1       -2 0.72201603E-01 0.69993693E+03</pdfrwt>
<totfact> 0.88383463E+00</totfact>
</mgrwt>
</event>
<event>
 4    5  0.2295023E-007  0.7918465E+03  0.7818608E-02  0.9728711E-01
         -2   -1    0    0    0  501 -0.00000000000E+00  0.00000000000E+00  0.41643071094E+03  0.41643071094E+03  0.25500000000E-02 0.  1.
          2   -1    0    0  501    0  0.00000000000E+00 -0.00000000000E+00 -0.27558518565E+04  0.27558518565E+04  0.25500000000E-02 0. -1.
    8880023    1    1    2    0    0 -0.43840880422E+03  0.31754737081E+02 -0.49404124102E+01  0.79186189256E+03  0.65864270000E+03 0.  1.
    8880022    1    1    2    0    0  0.43840880422E+03 -0.31754737081E+02 -0.23344807331E+04  0.23804206749E+04  0.15294330000E+03 0.  0.
<mgrwt>
<rscale>  0 0.69332782E+03</rscale>
<asrwt>0</asrwt>
<pdfrwt beam="1">  1        2 0.42397720E+00 0.79184648E+03</pdfrwt>
<pdfrwt beam="2">  1       -2 0.64066265E-01 0.79184648E+03</pdfrwt>
<totfact> 0.58125611E+00</totfact>
</mgrwt>
</event>
<event>
 4    5  0.2295023E-007  0.1060178E+04  0.7818608E-02  0.9306745E-01
          2   -1    0    0  501    0  0.00000000000E+00  0.00000000000E+00  0.17458946582E+04  0.17458946582E+04  0.25500000000E-02 0. -1.
         -2   -1    0    0    0  501 -0.00000000000E+00 -0.00000000000E+00 -0.56534841152E+03  0.56534841152E+03  0.25500000000E-02 0.  1.
    8880023    1    1    2    0    0 -0.64182951586E+02  0.82827974372E+03  0.32482805695E+03  0.11088238174E+04  0.65864270000E+03 0.  0.
    8880022    1    1    2    0    0  0.64182951586E+02 -0.82827974372E+03  0.85571818969E+03  0.12024192523E+04  0.15294330000E+03 0.  0.
<mgrwt>
<rscale>  0 0.10016425E+04</rscale>
<asrwt>0</asrwt>
<pdfrwt beam="1">  1        2 0.26859917E+00 0.10601778E+04</pdfrwt>
<pdfrwt beam="2">  1       -2 0.86976681E-01 0.10601778E+04</pdfrwt>
<totfact> 0.10491954E+01</totfact>
</mgrwt>
</event>
<event>
 4    5  0.2295023E-007  0.7408049E+03  0.7818608E-02  0.9857609E-01
          2   -1    0    0  501    0  0.00000000000E+00  0.00000000000E+00  0.93964844822E+03  0.93964844823E+03  0.25500000000E-02 0. -1.
         -2   -1    0    0    0  501 -0.00000000000E+00 -0.00000000000E+00 -0.17726500854E+04  0.17726500854E+04  0.25500000000E-02 0.  1.
    8880023    1    1    2    0    0  0.23781101487E+03  0.24171800708E+03 -0.16532533736E+04  0.18116397537E+04  0.65864270000E+03 0.  1.
    8880022    1    1    2    0    0 -0.23781101487E+03 -0.24171800708E+03  0.82025173640E+03  0.90065877991E+03  0.15294330000E+03 0.  0.
<mgrwt>
<rscale>  0 0.62360477E+03</rscale>
<asrwt>0</asrwt>
<pdfrwt beam="1">  1        2 0.14456130E+00 0.74080489E+03</pdfrwt>
<pdfrwt beam="2">  1       -2 0.27271540E+00 0.74080489E+03</pdfrwt>
<totfact> 0.13386851E+00</totfact>
</mgrwt>
</event>
<event>
 4    5  0.2295023E-007  0.1332464E+04  0.7818608E-02  0.9038020E-01
          2   -1    0    0  501    0  0.00000000000E+00  0.00000000000E+00  0.21314321859E+04  0.21314321859E+04  0.25500000000E-02 0. -1.
         -2   -1    0    0    0  501 -0.00000000000E+00 -0.00000000000E+00 -0.13183454389E+04  0.13183454389E+04  0.25500000000E-02 0.  1.
    8880023    1    1    2    0    0 -0.10110438366E+04  0.56519110950E+03 -0.72604253675E+03  0.15174315804E+04  0.65864270000E+03 0.  1.
    8880022    1    1    2    0    0  0.10110438366E+04 -0.56519110950E+03  0.15391292838E+04  0.19323460443E+04  0.15294330000E+03 0.  0.
<mgrwt>
<rscale>  0 0.12893919E+04</rscale>
<asrwt>0</asrwt>
<pdfrwt beam="1">  1        2 0.32791264E+00 0.13324642E+04</pdfrwt>
<pdfrwt beam="2">  1       -2 0.20282238E+00 0.13324642E+04</pdfrwt>
<totfact> 0.68787801E-01</totfact>
</mgrwt>
</event>
<event>
 4    5  0.2295023E-007  0.8961007E+03  0.7818608E-02  0.9532320E-01
         -2   -1    0    0    0  501 -0.00000000000E+00  0.00000000000E+00  0.73439197441E+03  0.73439197442E+03  0.25500000000E-02 0.  1.
          2   -1    0    0  501    0  0.00000000000E+00 -0.00000000000E+00 -0.28760081571E+04  0.28760081571E+04  0.25500000000E-02 0. -1.
    8880023    1    1    2    0    0 -0.69135497854E+02  0.60366097933E+03  0.40822587206E+03  0.98470547064E+03  0.65864270000E+03 0.  0.
    8880022    1    1    2    0    0  0.69135497854E+02 -0.60366097933E+03 -0.25498420547E+04  0.26256946609E+04  0.15294330000E+03 0.  0.
<mgrwt>
<rscale>  0 0.81942339E+03</rscale>
<asrwt>0</asrwt>
<pdfrwt beam="1">  1        2 0.44246279E+00 0.89610072E+03</pdfrwt>
<pdfrwt beam="2">  1       -2 0.11298338E+00 0.89610072E+03</pdfrwt>
<totfact> 0.13224391E+00</totfact>
</mgrwt>
</event>
<event>
 4    5  0.2295023E-007  0.6998615E+03  0.7818608E-02  0.9997776E-01
         -2   -1    0    0    0  501 -0.00000000000E+00  0.00000000000E+00  0.29429619181E+03  0.29429619182E+03  0.25500000000E-02 0.  1.
          2   -1    0    0  501    0  0.00000000000E+00 -0.00000000000E+00 -0.12156027639E+04  0.12156027639E+04  0.25500000000E-02 0. -1.
    8880023    1    1    2    0    0 -0.23505523566E+03 -0.27294537987E+02 -0.18851547721E+03  0.72480635140E+03  0.65864270000E+03 0.  0.
    8880022    1    1    2    0    0  0.23505523566E+03  0.27294537987E+02 -0.73279109488E+03  0.78509260432E+03  0.15294330000E+03 0.  0.
<mgrwt>
<rscale>  0 0.55747858E+03</rscale>
<asrwt>0</asrwt>
<pdfrwt beam="1">  1        2 0.18701581E+00 0.69986153E+03</pdfrwt>
<pdfrwt beam="2">  1       -2 0.45276338E-01 0.69986153E+03</pdfrwt>
<totfact> 0.87506344E+01</totfact>
</mgrwt>
</event>
<event>
 4    5  0.2295023E-007  0.7045556E+03  0.7818608E-02  0.9978803E-01
          2   -1    0    0  501    0  0.00000000000E+00  0.00000000000E+00  0.79133774929E+03  0.79133774929E+03  0.25500000000E-02 0. -1.
         -2   -1    0    0    0  501 -0.00000000000E+00 -0.00000000000E+00 -0.13988320328E+04  0.13988320328E+04  0.25500000000E-02 0.  1.
    8880023    1    1    2    0    0  0.14704022167E+03  0.20240428330E+03 -0.12774466004E+04  0.14588585757E+04  0.65864270000E+03 0.  1.
    8880022    1    1    2    0    0 -0.14704022167E+03 -0.20240428330E+03  0.66995231690E+03  0.73131120641E+03  0.15294330000E+03 0.  0.
<mgrwt>
<rscale>  0 0.56589531E+03</rscale>
<asrwt>0</asrwt>
<pdfrwt beam="1">  1        2 0.12174427E+00 0.70455555E+03</pdfrwt>
<pdfrwt beam="2">  1       -2 0.21520493E+00 0.70455555E+03</pdfrwt>
<totfact> 0.38211752E+00</totfact>
</mgrwt>
</event>
<event>
 4    5  0.2295023E-007  0.8329516E+03  0.7818608E-02  0.9643617E-01
          2   -1    0    0  501    0  0.00000000000E+00  0.00000000000E+00  0.31921657892E+04  0.31921657892E+04  0.25500000000E-02 0. -1.
         -2   -1    0    0    0  501 -0.00000000000E+00 -0.00000000000E+00 -0.29609749089E+03  0.29609749090E+03  0.25500000000E-02 0.  1.
    8880023    1    1    2    0    0 -0.38419836139E+03 -0.33524573353E+03  0.37830098419E+03  0.91483327642E+03  0.65864270000E+03 0.  1.
    8880022    1    1    2    0    0  0.38419836139E+03  0.33524573353E+03  0.25177673141E+04  0.25734300036E+04  0.15294330000E+03 0.  0.
<mgrwt>
<rscale>  0 0.74475396E+03</rscale>
<asrwt>0</asrwt>
<pdfrwt beam="1">  1        2 0.49110243E+00 0.83295155E+03</pdfrwt>
<pdfrwt beam="2">  1       -2 0.45553460E-01 0.83295155E+03</pdfrwt>
<totfact> 0.63287502E+00</totfact>
</mgrwt>
</event>
<event>
 4    5  0.2295023E-007  0.1019764E+04  0.7818608E-02  0.9356146E-01
          2   -1    0    0  501    0  0.00000000000E+00  0.00000000000E+00  0.30074181603E+04  0.30074181603E+04  0.25500000000E-02 0. -1.
         -2   -1    0    0    0  501 -0.00000000000E+00 -0.00000000000E+00 -0.38790829206E+03  0.38790829206E+03  0.25500000000E-02 0.  1.
    8880023    1    1    2    0    0  0.24586367273E+03 -0.73868708284E+03  0.50721949928E+03  0.11389422192E+04  0.65864270000E+03 0.  0.
    8880022    1    1    2    0    0 -0.24586367273E+03  0.73868708284E+03  0.21122903690E+04  0.22563842332E+04  0.15294330000E+03 0.  0.
<mgrwt>
<rscale>  0 0.95774308E+03</rscale>
<asrwt>0</asrwt>
<pdfrwt beam="1">  1        2 0.46267973E+00 0.10197636E+04</pdfrwt>
<pdfrwt beam="2">  1       -2 0.59678197E-01 0.10197636E+04</pdfrwt>
<totfact> 0.46029322E+00</totfact>
</mgrwt>
</event>
<event>
 4    5  0.2295023E-007  0.7855313E+03  0.7818608E-02  0.9743001E-01
         -2   -1    0    0    0  501 -0.00000000000E+00  0.00000000000E+00  0.96770040164E+03  0.96770040164E+03  0.25500000000E-02 0.  1.
          2   -1    0    0  501    0  0.00000000000E+00 -0.00000000000E+00 -0.52864161524E+03  0.52864161525E+03  0.25500000000E-02 0. -1.
    8880023    1    1    2    0    0 -0.27245869784E+03  0.33017498403E+03  0.62636680226E+03  0.10046864383E+04  0.65864270000E+03 0.  1.
    8880022    1    1    2    0    0  0.27245869784E+03 -0.33017498403E+03 -0.18730801587E+03  0.49165557857E+03  0.15294330000E+03 0.  0.
<mgrwt>
<rscale>  0 0.68513266E+03</rscale>
<asrwt>0</asrwt>
<pdfrwt beam="1">  1        2 0.81329480E-01 0.78553133E+03</pdfrwt>
<pdfrwt beam="2">  1       -2 0.14887698E+00 0.78553133E+03</pdfrwt>
<totfact> 0.17820400E+01</totfact>
</mgrwt>
</event>
<event>
 4    5  0.2295023E-007  0.7256905E+03  0.7818608E-02  0.9903781E-01
         -2   -1    0    0    0  501 -0.00000000000E+00  0.00000000000E+00  0.14299027577E+04  0.14299027577E+04  0.25500000000E-02 0.  1.
          2   -1    0    0  501    0  0.00000000000E+00 -0.00000000000E+00 -0.51540447051E+03  0.51540447052E+03  0.25500000000E-02 0. -1.
    8880023    1    1    2    0    0  0.29074162735E+03  0.91026699968E+02  0.12637350874E+04  0.14572759283E+04  0.65864270000E+03 0.  1.
    8880022    1    1    2    0    0 -0.29074162735E+03 -0.91026699968E+02 -0.34923680022E+03  0.48803129984E+03  0.15294330000E+03 0.  0.
<mgrwt>
<rscale>  0 0.60078378E+03</rscale>
<asrwt>0</asrwt>
<pdfrwt beam="1">  1        2 0.79292995E-01 0.72569054E+03</pdfrwt>
<pdfrwt beam="2">  1       -2 0.21998504E+00 0.72569054E+03</pdfrwt>
<totfact> 0.60284807E+00</totfact>
</mgrwt>
</event>
<event>
 4    5  0.2295023E-007  0.6862964E+03  0.7818608E-02  0.1005965E+00
         -2   -1    0    0    0  501 -0.00000000000E+00  0.00000000000E+00  0.24252041153E+03  0.24252041155E+03  0.25500000000E-02 0.  1.
          2   -1    0    0  501    0  0.00000000000E+00 -0.00000000000E+00 -0.11199232263E+04  0.11199232263E+04  0.25500000000E-02 0. -1.
    8880023    1    1    2    0    0 -0.18621013468E+03 -0.50183070577E+02 -0.32846754068E+03  0.76085063342E+03  0.65864270000E+03 0.  0.
    8880022    1    1    2    0    0  0.18621013468E+03  0.50183070577E+02 -0.54893527408E+03  0.60159300443E+03  0.15294330000E+03 0.  0.
<mgrwt>
<rscale>  0 0.53110296E+03</rscale>
<asrwt>0</asrwt>
<pdfrwt beam="1">  1        2 0.17229588E+00 0.68629641E+03</pdfrwt>
<pdfrwt beam="2">  1       -2 0.37310833E-01 0.68629641E+03</pdfrwt>
<totfact> 0.14592565E+02</totfact>
</mgrwt>
</event>
<event>
 4    5  0.2295023E-007  0.7267302E+03  0.7818608E-02  0.9900438E-01
         -2   -1    0    0    0  501 -0.00000000000E+00  0.00000000000E+00  0.38653385336E+03  0.38653385336E+03  0.25500000000E-02 0.  1.
          2   -1    0    0  501    0  0.00000000000E+00 -0.00000000000E+00 -0.33307052292E+04  0.33307052292E+04  0.25500000000E-02 0. -1.
    8880023    1    1    2    0    0  0.25530777741E+03 -0.17071771368E+03  0.26118020350E+02  0.72719939234E+03  0.65864270000E+03 0.  1.
    8880022    1    1    2    0    0 -0.25530777741E+03  0.17071771368E+03 -0.29702893962E+04  0.29900396902E+04  0.15294330000E+03 0.  0.
<mgrwt>
<rscale>  0 0.60240059E+03</rscale>
<asrwt>0</asrwt>
<pdfrwt beam="1">  1        2 0.51241617E+00 0.72673021E+03</pdfrwt>
<pdfrwt beam="2">  1       -2 0.59466749E-01 0.72673021E+03</pdfrwt>
<totfact> 0.30416296E+00</totfact>
</mgrwt>
</event>
<event>
 4    5  0.2295023E-007  0.1782774E+04  0.7818608E-02  0.8732125E-01
         -2   -1    0    0    0  501 -0.00000000000E+00  0.00000000000E+00  0.14751967280E+04  0.14751967280E+04  0.25500000000E-02 0.  1.
          2   -1    0    0  501    0  0.00000000000E+00 -0.00000000000E+00 -0.34606182680E+04  0.34606182680E+04  0.25500000000E-02 0. -1.
    8880023    1    1    2    0    0  0.52534938872E+03  0.15711400541E+04  0.58296839286E+03  0.18756693214E+04  0.65864270000E+03 0.  0.
    8880022    1    1    2    0    0 -0.52534938872E+03 -0.15711400541E+04 -0.25683899328E+04  0.30601456746E+04  0.15294330000E+03 0.  0.
<mgrwt>
<rscale>  0 0.17522269E+04</rscale>
<asrwt>0</asrwt>
<pdfrwt beam="1">  1        2 0.53240281E+00 0.17827740E+04</pdfrwt>
<pdfrwt beam="2">  1       -2 0.22695334E+00 0.17827740E+04</pdfrwt>
<totfact> 0.70576016E-02</totfact>
</mgrwt>
</event>
<event>
 4    5  0.2295023E-007  0.7347428E+03  0.7818608E-02  0.9875534E-01
          2   -1    0    0  501    0  0.00000000000E+00  0.00000000000E+00  0.19774274990E+04  0.19774274990E+04  0.25500000000E-02 0. -1.
         -2   -1    0    0    0  501 -0.00000000000E+00 -0.00000000000E+00 -0.20877813970E+03  0.20877813972E+03  0.25500000000E-02 0.  1.
    8880023    1    1    2    0    0 -0.26248543742E+03  0.19271285379E+03  0.55624558968E+03  0.92155098132E+03  0.65864270000E+03 0.  1.
    8880022    1    1    2    0    0  0.26248543742E+03 -0.19271285379E+03  0.12124037696E+04  0.12646546574E+04  0.15294330000E+03 0.  0.
<mgrwt>
<rscale>  0 0.61461799E+03</rscale>
<asrwt>0</asrwt>
<pdfrwt beam="1">  1        2 0.30421961E+00 0.73474285E+03</pdfrwt>
<pdfrwt beam="2">  1       -2 0.32119715E-01 0.73474285E+03</pdfrwt>
<totfact> 0.63879954E+01</totfact>
</mgrwt>
</event>
<event>
 4    5  0.2295023E-007  0.1003321E+04  0.7818608E-02  0.9377225E-01
         -2   -1    0    0    0  501 -0.00000000000E+00  0.00000000000E+00  0.72531190517E+03  0.72531190517E+03  0.25500000000E-02 0.  1.
          2   -1    0    0  501    0  0.00000000000E+00 -0.00000000000E+00 -0.23683556155E+04  0.23683556155E+04  0.25500000000E-02 0. -1.
    8880023    1    1    2    0    0  0.10997081143E+01 -0.75686325611E+03  0.26294741857E+03  0.10372052589E+04  0.65864270000E+03 0.  1.
    8880022    1    1    2    0    0 -0.10997081143E+01  0.75686325611E+03 -0.19059911289E+04  0.20564622618E+04  0.15294330000E+03 0.  0.
<mgrwt>
<rscale>  0 0.93973880E+03</rscale>
<asrwt>0</asrwt>
<pdfrwt beam="1">  1        2 0.36436240E+00 0.10033212E+04</pdfrwt>
<pdfrwt beam="2">  1       -2 0.11158645E+00 0.10033212E+04</pdfrwt>
<totfact> 0.26429752E+00</totfact>
</mgrwt>
</event>
<event>
 4    5  0.2295023E-007  0.1015885E+04  0.7818608E-02  0.9361063E-01
          2   -1    0    0  501    0  0.00000000000E+00  0.00000000000E+00  0.10729610880E+04  0.10729610880E+04  0.25500000000E-02 0. -1.
         -2   -1    0    0    0  501 -0.00000000000E+00 -0.00000000000E+00 -0.81290042399E+03  0.81290042400E+03  0.25500000000E-02 0.  1.
    8880023    1    1    2    0    0  0.65744431149E+03  0.40740654133E+03 -0.96707580492E+02  0.10204781600E+04  0.65864270000E+03 0.  0.
    8880022    1    1    2    0    0 -0.65744431149E+03 -0.40740654133E+03  0.35676824449E+03  0.86538335200E+03  0.15294330000E+03 0.  0.
<mgrwt>
<rscale>  0 0.95350474E+03</rscale>
<asrwt>0</asrwt>
<pdfrwt beam="1">  1        2 0.16507094E+00 0.10158855E+04</pdfrwt>
<pdfrwt beam="2">  1       -2 0.12506160E+00 0.10158855E+04</pdfrwt>
<totfact> 0.10745298E+01</totfact>
</mgrwt>
</event>
<event>
 4    5  0.2295023E-007  0.8795628E+03  0.7818608E-02  0.9559670E-01
         -2   -1    0    0    0  501 -0.00000000000E+00  0.00000000000E+00  0.53466025016E+03  0.53466025017E+03  0.25500000000E-02 0.  1.
          2   -1    0    0  501    0  0.00000000000E+00 -0.00000000000E+00 -0.10306946589E+04  0.10306946589E+04  0.25500000000E-02 0. -1.
    8880023    1    1    2    0    0  0.36845410911E+03 -0.45173232948E+03 -0.33835327045E+03  0.94239782995E+03  0.65864270000E+03 0.  0.
    8880022    1    1    2    0    0 -0.36845410911E+03  0.45173232948E+03 -0.15768113828E+03  0.62295707910E+03  0.15294330000E+03 0.  1.
<mgrwt>
<rscale>  0 0.80023989E+03</rscale>
<asrwt>0</asrwt>
<pdfrwt beam="1">  1        2 0.15856841E+00 0.87956281E+03</pdfrwt>
<pdfrwt beam="2">  1       -2 0.82255424E-01 0.87956281E+03</pdfrwt>
<totfact> 0.31403366E+01</totfact>
</mgrwt>
</event>
<event>
 4    5  0.2295023E-007  0.1000013E+04  0.7818608E-02  0.9381541E-01
         -2   -1    0    0    0  501 -0.00000000000E+00  0.00000000000E+00  0.13112192672E+04  0.13112192672E+04  0.25500000000E-02 0.  1.
          2   -1    0    0  501    0  0.00000000000E+00 -0.00000000000E+00 -0.33264309080E+04  0.33264309080E+04  0.25500000000E-02 0. -1.
    8880023    1    1    2    0    0 -0.61357535204E+03  0.43559235491E+03  0.10663325290E+04  0.14618791608E+04  0.65864270000E+03 0.  1.
    8880022    1    1    2    0    0  0.61357535204E+03 -0.43559235491E+03 -0.30815441698E+04  0.31757710144E+04  0.15294330000E+03 0.  0.
<mgrwt>
<rscale>  0 0.93610488E+03</rscale>
<asrwt>0</asrwt>
<pdfrwt beam="1">  1        2 0.51175860E+00 0.10000128E+04</pdfrwt>
<pdfrwt beam="2">  1       -2 0.20172604E+00 0.10000128E+04</pdfrwt>
<totfact> 0.14223327E-01</totfact>
</mgrwt>
</event>
<event>
 4    5  0.2295023E-007  0.8170664E+03  0.7818608E-02  0.9675042E-01
          2   -1    0    0  501    0  0.00000000000E+00  0.00000000000E+00  0.14535925911E+04  0.14535925911E+04  0.25500000000E-02 0. -1.
         -2   -1    0    0    0  501 -0.00000000000E+00 -0.00000000000E+00 -0.11010805106E+04  0.11010805106E+04  0.25500000000E-02 0.  1.
    8880023    1    1    2    0    0 -0.46326908472E+03  0.13845221869E+03 -0.89269045506E+03  0.12101626818E+04  0.65864270000E+03 0.  1.
    8880022    1    1    2    0    0  0.46326908472E+03 -0.13845221869E+03  0.12452025356E+04  0.13445104199E+04  0.15294330000E+03 0.  0.
<mgrwt>
<rscale>  0 0.72522443E+03</rscale>
<asrwt>0</asrwt>
<pdfrwt beam="1">  1        2 0.22362963E+00 0.81706638E+03</pdfrwt>
<pdfrwt beam="2">  1       -2 0.16939700E+00 0.81706638E+03</pdfrwt>
<totfact> 0.29517921E+00</totfact>
</mgrwt>
</event>
<event>
 4    5  0.2295023E-007  0.9896159E+03  0.7818608E-02  0.9395271E-01
          2   -1    0    0  501    0  0.00000000000E+00  0.00000000000E+00  0.16503769567E+04  0.16503769567E+04  0.25500000000E-02 0. -1.
         -2   -1    0    0    0  501 -0.00000000000E+00 -0.00000000000E+00 -0.11256483636E+04  0.11256483636E+04  0.25500000000E-02 0.  1.
    8880023    1    1    2    0    0  0.59831819884E+03  0.43306426704E+03 -0.78599127072E+03  0.12637728476E+04  0.65864270000E+03 0.  1.
    8880022    1    1    2    0    0 -0.59831819884E+03 -0.43306426704E+03  0.13107198639E+04  0.15122524727E+04  0.15294330000E+03 0.  0.
<mgrwt>
<rscale>  0 0.92465873E+03</rscale>
<asrwt>0</asrwt>
<pdfrwt beam="1">  1        2 0.25390415E+00 0.98961585E+03</pdfrwt>
<pdfrwt beam="2">  1       -2 0.17317667E+00 0.98961585E+03</pdfrwt>
<totfact> 0.21049018E+00</totfact>
</mgrwt>
</event>
<event>
 4    5  0.2295023E-007  0.8045245E+03  0.7818608E-02  0.9701097E-01
          2   -1    0    0  501    0  0.00000000000E+00  0.00000000000E+00  0.69970537989E+03  0.69970537989E+03  0.25500000000E-02 0. -1.
         -2   -1    0    0    0  501 -0.00000000000E+00 -0.00000000000E+00 -0.15392772502E+04  0.15392772502E+04  0.25500000000E-02 0.  1.
    8880023    1    1    2    0    0  0.45597890809E+03  0.74382327835E+02 -0.13259514206E+04  0.15509374170E+04  0.65864270000E+03 0.  0.
    8880022    1    1    2    0    0 -0.45597890809E+03 -0.74382327835E+02  0.48637955030E+03  0.68804521311E+03  0.15294330000E+03 0. -1.
<mgrwt>
<rscale>  0 0.70951504E+03</rscale>
<asrwt>0</asrwt>
<pdfrwt beam="1">  1        2 0.10764698E+00 0.80452452E+03</pdfrwt>
<pdfrwt beam="2">  1       -2 0.23681188E+00 0.80452452E+03</pdfrwt>
<totfact> 0.32422577E+00</totfact>
</mgrwt>
</event>
<event>
 4    5  0.2295023E-007  0.6654567E+03  0.7818608E-02  0.1019153E+00
          2   -1    0    0  501    0  0.00000000000E+00  0.00000000000E+00  0.61568998660E+03  0.61568998660E+03  0.25500000000E-02 0. -1.
         -2   -1    0    0    0  501 -0.00000000000E+00 -0.00000000000E+00 -0.35025431001E+03  0.35025431002E+03  0.25500000000E-02 0.  1.
    8880023    1    1    2    0    0 -0.77694273395E+02 -0.54644496864E+02  0.25464297128E+02  0.66594373475E+03  0.65864270000E+03 0.  1.
    8880022    1    1    2    0    0  0.77694273395E+02  0.54644496864E+02  0.23997137946E+03  0.30000056188E+03  0.15294330000E+03 0.  0.
<mgrwt>
<rscale>  0 0.47993404E+03</rscale>
<asrwt>0</asrwt>
<pdfrwt beam="1">  1        2 0.94721535E-01 0.66545671E+03</pdfrwt>
<pdfrwt beam="2">  1       -2 0.53885279E-01 0.66545671E+03</pdfrwt>
<totfact> 0.15822851E+02</totfact>
</mgrwt>
</event>
<event>
 4    5  0.2295023E-007  0.1105551E+04  0.7818608E-02  0.9254901E-01
         -2   -1    0    0    0  501 -0.00000000000E+00  0.00000000000E+00  0.70944394508E+03  0.70944394509E+03  0.25500000000E-02 0.  1.
          2   -1    0    0  501    0  0.00000000000E+00 -0.00000000000E+00 -0.25321614833E+04  0.25321614833E+04  0.25500000000E-02 0. -1.
    8880023    1    1    2    0    0  0.88792957321E+03  0.37596467073E+01  0.10818195505E+03  0.11108314920E+04  0.65864270000E+03 0.  0.
    8880022    1    1    2    0    0 -0.88792957321E+03 -0.37596467073E+01 -0.19308994932E+04  0.21307739364E+04  0.15294330000E+03 0.  0.
<mgrwt>
<rscale>  0 0.10504295E+04</rscale>
<asrwt>0</asrwt>
<pdfrwt beam="1">  1        2 0.38956330E+00 0.11055511E+04</pdfrwt>
<pdfrwt beam="2">  1       -2 0.10914522E+00 0.11055511E+04</pdfrwt>
<totfact> 0.22194077E+00</totfact>
</mgrwt>
</event>
<event>
 4    5  0.2295023E-007  0.9964848E+03  0.7818608E-02  0.9386171E-01
         -2   -1    0    0    0  501 -0.00000000000E+00  0.00000000000E+00  0.32266375135E+03  0.32266375136E+03  0.25500000000E-02 0.  1.
          2   -1    0    0  501    0  0.00000000000E+00 -0.00000000000E+00 -0.32704247191E+04  0.32704247191E+04  0.25500000000E-02 0. -1.
    8880023    1    1    2    0    0 -0.71137549204E+02  0.74438639464E+03 -0.69598928180E+03  0.12154764260E+04  0.65864270000E+03 0.  0.
    8880022    1    1    2    0    0  0.71137549204E+02 -0.74438639464E+03 -0.22517716860E+04  0.23776120445E+04  0.15294330000E+03 0.  0.
<mgrwt>
<rscale>  0 0.93222530E+03</rscale>
<asrwt>0</asrwt>
<pdfrwt beam="1">  1        2 0.50314224E+00 0.99648475E+03</pdfrwt>
<pdfrwt beam="2">  1       -2 0.49640579E-01 0.99648475E+03</pdfrwt>
<totfact> 0.46141148E+00</totfact>
</mgrwt>
</event>
<event>
 4    5  0.2295023E-007  0.1096945E+04  0.7818608E-02  0.9264465E-01
         -2   -1    0    0    0  501 -0.00000000000E+00  0.00000000000E+00  0.18437186068E+04  0.18437186068E+04  0.25500000000E-02 0.  1.
          2   -1    0    0  501    0  0.00000000000E+00 -0.00000000000E+00 -0.10781149886E+04  0.10781149886E+04  0.25500000000E-02 0. -1.
    8880023    1    1    2    0    0  0.35151917717E+03 -0.80368651869E+03  0.14361509861E+04  0.18071573295E+04  0.65864270000E+03 0.  1.
    8880022    1    1    2    0    0 -0.35151917717E+03  0.80368651869E+03 -0.67054736796E+03  0.11146762660E+04  0.15294330000E+03 0.  0.
<mgrwt>
<rscale>  0 0.10412111E+04</rscale>
<asrwt>0</asrwt>
<pdfrwt beam="1">  1        2 0.16586385E+00 0.10969448E+04</pdfrwt>
<pdfrwt beam="2">  1       -2 0.28364902E+00 0.10969448E+04</pdfrwt>
<totfact> 0.88887283E-01</totfact>
</mgrwt>
</event>
<event>
 4    5  0.2295023E-007  0.6953056E+03  0.7818608E-02  0.1001726E+00
          2   -1    0    0  501    0  0.00000000000E+00  0.00000000000E+00  0.15523724782E+04  0.15523724782E+04  0.25500000000E-02 0. -1.
         -2   -1    0    0    0  501 -0.00000000000E+00 -0.00000000000E+00 -0.18937024438E+03  0.18937024439E+03  0.25500000000E-02 0.  1.
    8880023    1    1    2    0    0 -0.18418836950E+03 -0.12535674235E+03  0.55470132986E+03  0.88946244436E+03  0.65864270000E+03 0.  0.
    8880022    1    1    2    0    0  0.18418836950E+03  0.12535674235E+03  0.80830090397E+03  0.85228027824E+03  0.15294330000E+03 0.  0.
<mgrwt>
<rscale>  0 0.54899759E+03</rscale>
<asrwt>0</asrwt>
<pdfrwt beam="1">  1        2 0.23882653E+00 0.69530560E+03</pdfrwt>
<pdfrwt beam="2">  1       -2 0.29133885E-01 0.69530560E+03</pdfrwt>
<totfact> 0.13127733E+02</totfact>
</mgrwt>
</event>
<event>
 4    5  0.2295023E-007  0.7167071E+03  0.7818608E-02  0.9933890E-01
          2   -1    0    0  501    0  0.00000000000E+00  0.00000000000E+00  0.31200615452E+03  0.31200615453E+03  0.25500000000E-02 0. -1.
         -2   -1    0    0    0  501 -0.00000000000E+00 -0.00000000000E+00 -0.10411536375E+04  0.10411536375E+04  0.25500000000E-02 0.  1.
    8880023    1    1    2    0    0  0.14046283545E+03  0.24521215525E+03 -0.21750564590E+03  0.74898446011E+03  0.65864270000E+03 0. -1.
    8880022    1    1    2    0    0 -0.14046283545E+03 -0.24521215525E+03 -0.51164183704E+03  0.60417533188E+03  0.15294330000E+03 0.  0.
<mgrwt>
<rscale>  0 0.58646590E+03</rscale>
<asrwt>0</asrwt>
<pdfrwt beam="1">  1        2 0.48000947E-01 0.71670706E+03</pdfrwt>
<pdfrwt beam="2">  1       -2 0.16017748E+00 0.71670706E+03</pdfrwt>
<totfact> 0.26793966E+01</totfact>
</mgrwt>
</event>
<event>
 4    5  0.2295023E-007  0.8349050E+03  0.7818608E-02  0.9639863E-01
          2   -1    0    0  501    0  0.00000000000E+00  0.00000000000E+00  0.27207048537E+04  0.27207048537E+04  0.25500000000E-02 0. -1.
         -2   -1    0    0    0  501 -0.00000000000E+00 -0.00000000000E+00 -0.61465431291E+03  0.61465431292E+03  0.25500000000E-02 0.  1.
    8880023    1    1    2    0    0 -0.46553696245E+03 -0.21571146164E+03 -0.28722432564E+03  0.88292928233E+03  0.65864270000E+03 0.  0.
    8880022    1    1    2    0    0  0.46553696245E+03  0.21571146164E+03  0.23932748664E+04  0.24524298843E+04  0.15294330000E+03 0.  1.
<mgrwt>
<rscale>  0 0.74713030E+03</rscale>
<asrwt>0</asrwt>
<pdfrwt beam="1">  1        2 0.41856997E+00 0.83490497E+03</pdfrwt>
<pdfrwt beam="2">  1       -2 0.94562203E-01 0.83490497E+03</pdfrwt>
<totfact> 0.25308657E+00</totfact>
</mgrwt>
</event>
<event>
 4    5  0.2295023E-007  0.9269721E+03  0.7818608E-02  0.9484050E-01
          2   -1    0    0  501    0  0.00000000000E+00  0.00000000000E+00  0.36330873428E+04  0.36330873428E+04  0.25500000000E-02 0. -1.
         -2   -1    0    0    0  501 -0.00000000000E+00 -0.00000000000E+00 -0.17843131705E+03  0.17843131706E+03  0.25500000000E-02 0.  1.
    8880023    1    1    2    0    0  0.36708676091E+03 -0.53917931584E+03  0.22424434715E+04  0.24264851028E+04  0.65864270000E+03 0.  0.
    8880022    1    1    2    0    0 -0.36708676091E+03  0.53917931584E+03  0.12122125542E+04  0.13850335571E+04  0.15294330000E+03 0.  0.
<mgrwt>
<rscale>  0 0.85469998E+03</rscale>
<asrwt>0</asrwt>
<pdfrwt beam="1">  1        2 0.55893647E+00 0.92697208E+03</pdfrwt>
<pdfrwt beam="2">  1       -2 0.27450974E-01 0.92697208E+03</pdfrwt>
<totfact> 0.83099449E+00</totfact>
</mgrwt>
</event>
<event>
 4    5  0.2295023E-007  0.1163323E+04  0.7818608E-02  0.9193627E-01
          2   -1    0    0  501    0  0.00000000000E+00  0.00000000000E+00  0.14427254225E+04  0.14427254225E+04  0.25500000000E-02 0. -1.
         -2   -1    0    0    0  501 -0.00000000000E+00 -0.00000000000E+00 -0.13096599935E+04  0.13096599935E+04  0.25500000000E-02 0.  1.
    8880023    1    1    2    0    0 -0.38621693220E+03 -0.87769346811E+03 -0.79512376216E+03  0.14090923838E+04  0.65864270000E+03 0.  0.
    8880022    1    1    2    0    0  0.38621693220E+03  0.87769346811E+03  0.92818919115E+03  0.13432930322E+04  0.15294330000E+03 0.  0.
<mgrwt>
<rscale>  0 0.11119452E+04</rscale>
<asrwt>0</asrwt>
<pdfrwt beam="1">  1        2 0.22195776E+00 0.11633226E+04</pdfrwt>
<pdfrwt beam="2">  1       -2 0.20148615E+00 0.11633226E+04</pdfrwt>
<totfact> 0.17328941E+00</totfact>
</mgrwt>
</event>
<event>
 4    5  0.2295023E-007  0.7135483E+03  0.7818608E-02  0.9945053E-01
          2   -1    0    0  501    0  0.00000000000E+00  0.00000000000E+00  0.26331388325E+04  0.26331388325E+04  0.25500000000E-02 0. -1.
         -2   -1    0    0    0  501 -0.00000000000E+00 -0.00000000000E+00 -0.10471152186E+04  0.10471152186E+04  0.25500000000E-02 0.  1.
    8880023    1    1    2    0    0  0.20132790549E+03  0.18656914069E+03 -0.91457026020E+03  0.11599956624E+04  0.65864270000E+03 0.  1.
    8880022    1    1    2    0    0 -0.20132790549E+03 -0.18656914069E+03  0.25005938741E+04  0.25202583887E+04  0.15294330000E+03 0.  0.
<mgrwt>
<rscale>  0 0.58126626E+03</rscale>
<asrwt>0</asrwt>
<pdfrwt beam="1">  1        2 0.40509828E+00 0.71354830E+03</pdfrwt>
<pdfrwt beam="2">  1       -2 0.16109465E+00 0.71354830E+03</pdfrwt>
<totfact> 0.76721028E-01</totfact>
</mgrwt>
</event>
<event>
 4    5  0.2295023E-007  0.1597150E+04  0.7818608E-02  0.8843916E-01
          2   -1    0    0  501    0  0.00000000000E+00  0.00000000000E+00  0.24311586080E+04  0.24311586080E+04  0.25500000000E-02 0. -1.
         -2   -1    0    0    0  501 -0.00000000000E+00 -0.00000000000E+00 -0.11932348039E+04  0.11932348039E+04  0.25500000000E-02 0.  1.
    8880023    1    1    2    0    0 -0.12899737873E+04 -0.67308758030E+03 -0.15457155097E+03  0.16046126739E+04  0.65864270000E+03 0.  0.
    8880022    1    1    2    0    0  0.12899737873E+04  0.67308758030E+03  0.13924953550E+04  0.20197807380E+04  0.15294330000E+03 0.  0.
<mgrwt>
<rscale>  0 0.15625108E+04</rscale>
<asrwt>0</asrwt>
<pdfrwt beam="1">  1        2 0.37402440E+00 0.15971504E+04</pdfrwt>
<pdfrwt beam="2">  1       -2 0.18357459E+00 0.15971504E+04</pdfrwt>
<totfact> 0.60887044E-01</totfact>
</mgrwt>
</event>
<event>
 4    5  0.2295023E-007  0.7997486E+03  0.7818608E-02  0.9711340E-01
          2   -1    0    0  501    0  0.00000000000E+00  0.00000000000E+00  0.36684668216E+03  0.36684668217E+03  0.25500000000E-02 0. -1.
         -2   -1    0    0    0  501 -0.00000000000E+00 -0.00000000000E+00 -0.24953214031E+04  0.24953214031E+04  0.25500000000E-02 0.  1.
    8880023    1    1    2    0    0 -0.11181254115E+03 -0.43964262219E+03 -0.22332319590E+04  0.23721135868E+04  0.65864270000E+03 0.  1.
    8880022    1    1    2    0    0  0.11181254115E+03  0.43964262219E+03  0.10475723801E+03  0.49005449854E+03  0.15294330000E+03 0.  0.
<mgrwt>
<rscale>  0 0.70345620E+03</rscale>
<asrwt>0</asrwt>
<pdfrwt beam="1">  1        2 0.56437953E-01 0.79974864E+03</pdfrwt>
<pdfrwt beam="2">  1       -2 0.38389559E+00 0.79974864E+03</pdfrwt>
<totfact> 0.87047482E-01</totfact>
</mgrwt>
</event>
<event>
 4    5  0.2295023E-007  0.7143442E+03  0.7818608E-02  0.9942209E-01
          2   -1    0    0  501    0  0.00000000000E+00  0.00000000000E+00  0.96582148622E+03  0.96582148622E+03  0.25500000000E-02 0. -1.
         -2   -1    0    0    0  501 -0.00000000000E+00 -0.00000000000E+00 -0.75077838419E+03  0.75077838419E+03  0.25500000000E-02 0.  1.
    8880023    1    1    2    0    0  0.94461356727E+02 -0.25991258525E+03 -0.54170854390E+03  0.89651316370E+03  0.65864270000E+03 0.  0.
    8880022    1    1    2    0    0 -0.94461356727E+02  0.25991258525E+03  0.75675164593E+03  0.82008670671E+03  0.15294330000E+03 0. -1.
<mgrwt>
<rscale>  0 0.58258538E+03</rscale>
<asrwt>0</asrwt>
<pdfrwt beam="1">  1        2 0.14858792E+00 0.71434425E+03</pdfrwt>
<pdfrwt beam="2">  1       -2 0.11550437E+00 0.71434425E+03</pdfrwt>
<totfact> 0.15779802E+01</totfact>
</mgrwt>
</event>
<event>
 4    5  0.2295023E-007  0.1610010E+04  0.7818608E-02  0.8835623E-01
          2   -1    0    0  501    0  0.00000000000E+00  0.00000000000E+00  0.22103212953E+04  0.22103212953E+04  0.25500000000E-02 0. -1.
         -2   -1    0    0    0  501 -0.00000000000E+00 -0.00000000000E+00 -0.11467047335E+04  0.11467047335E+04  0.25500000000E-02 0.  1.
    8880023    1    1    2    0    0 -0.82588261036E+03  0.12150059025E+04  0.14253571470E+03  0.16163069218E+04  0.65864270000E+03 0.  0.
    8880022    1    1    2    0    0  0.82588261036E+03 -0.12150059025E+04  0.92108084708E+03  0.17407191069E+04  0.15294330000E+03 0.  0.
<mgrwt>
<rscale>  0 0.15756912E+04</rscale>
<asrwt>0</asrwt>
<pdfrwt beam="1">  1        2 0.34004943E+00 0.16100098E+04</pdfrwt>
<pdfrwt beam="2">  1       -2 0.17641611E+00 0.16100098E+04</pdfrwt>
<totfact> 0.91126560E-01</totfact>
</mgrwt>
</event>
<event>
 4    5  0.2295023E-007  0.7421259E+03  0.7818608E-02  0.9853797E-01
         -2   -1    0    0    0  501 -0.00000000000E+00  0.00000000000E+00  0.65608401855E+03  0.65608401855E+03  0.25500000000E-02 0.  1.
          2   -1    0    0  501    0  0.00000000000E+00 -0.00000000000E+00 -0.16894539207E+04  0.16894539207E+04  0.25500000000E-02 0. -1.
    8880023    1    1    2    0    0 -0.17240396914E+03 -0.29532616990E+03  0.41446936071E+03  0.85002101882E+03  0.65864270000E+03 0.  0.
    8880022    1    1    2    0    0  0.17240396914E+03  0.29532616990E+03 -0.14478392629E+04  0.14955169205E+04  0.15294330000E+03 0.  0.
<mgrwt>
<rscale>  0 0.62553688E+03</rscale>
<asrwt>0</asrwt>
<pdfrwt beam="1">  1        2 0.25991599E+00 0.74212592E+03</pdfrwt>
<pdfrwt beam="2">  1       -2 0.10093600E+00 0.74212592E+03</pdfrwt>
<totfact> 0.82697657E+00</totfact>
</mgrwt>
</event>
<event>
 4    5  0.2295023E-007  0.1285909E+04  0.7818608E-02  0.9077825E-01
          2   -1    0    0  501    0  0.00000000000E+00  0.00000000000E+00  0.28299202768E+04  0.28299202768E+04  0.25500000000E-02 0. -1.
         -2   -1    0    0    0  501 -0.00000000000E+00 -0.00000000000E+00 -0.96968372409E+03  0.96968372410E+03  0.25500000000E-02 0.  1.
    8880023    1    1    2    0    0  0.58218034390E+03  0.93851862787E+03 -0.34251775242E+03  0.13307440718E+04  0.65864270000E+03 0.  0.
    8880022    1    1    2    0    0 -0.58218034390E+03 -0.93851862787E+03  0.22027543051E+04  0.24688599291E+04  0.15294330000E+03 0.  0.
<mgrwt>
<rscale>  0 0.12408599E+04</rscale>
<asrwt>0</asrwt>
<pdfrwt beam="1">  1        2 0.43537234E+00 0.12859088E+04</pdfrwt>
<pdfrwt beam="2">  1       -2 0.14918211E+00 0.12859088E+04</pdfrwt>
<totfact> 0.65459418E-01</totfact>
</mgrwt>
</event>
<event>
 4    5  0.2295023E-007  0.6869531E+03  0.7818608E-02  0.1005636E+00
         -2   -1    0    0    0  501 -0.00000000000E+00  0.00000000000E+00  0.53436085941E+03  0.53436085942E+03  0.25500000000E-02 0.  1.
          2   -1    0    0  501    0  0.00000000000E+00 -0.00000000000E+00 -0.85086973556E+03  0.85086973557E+03  0.25500000000E-02 0. -1.
    8880023    1    1    2    0    0 -0.12162896321E+03 -0.15264566069E+03  0.27800767874E+03  0.74107541999E+03  0.65864270000E+03 0.  1.
    8880022    1    1    2    0    0  0.12162896321E+03  0.15264566069E+03 -0.59451655489E+03  0.64415517499E+03  0.15294330000E+03 0.  0.
<mgrwt>
<rscale>  0 0.53246650E+03</rscale>
<asrwt>0</asrwt>
<pdfrwt beam="1">  1        2 0.13090304E+00 0.68695306E+03</pdfrwt>
<pdfrwt beam="2">  1       -2 0.82209363E-01 0.68695306E+03</pdfrwt>
<totfact> 0.42019199E+01</totfact>
</mgrwt>
</event>
<event>
 4    5  0.2295023E-007  0.7110397E+03  0.7818608E-02  0.9954160E-01
         -2   -1    0    0    0  501 -0.00000000000E+00  0.00000000000E+00  0.11916368899E+04  0.11916368899E+04  0.25500000000E-02 0.  1.
          2   -1    0    0  501    0  0.00000000000E+00 -0.00000000000E+00 -0.37520692907E+04  0.37520692907E+04  0.25500000000E-02 0. -1.
    8880023    1    1    2    0    0  0.26689879957E+03  0.23071848676E+02  0.10784590313E+04  0.12917628915E+04  0.65864270000E+03 0.  0.
    8880022    1    1    2    0    0 -0.26689879957E+03 -0.23071848676E+02 -0.36388914321E+04  0.36519432891E+04  0.15294330000E+03 0.  0.
<mgrwt>
<rscale>  0 0.57706747E+03</rscale>
<asrwt>0</asrwt>
<pdfrwt beam="1">  1        2 0.57724142E+00 0.71103972E+03</pdfrwt>
<pdfrwt beam="2">  1       -2 0.18332875E+00 0.71103972E+03</pdfrwt>
<totfact> 0.10283341E-01</totfact>
</mgrwt>
</event>
<event>
 4    5  0.2295023E-007  0.7341741E+03  0.7818608E-02  0.9877254E-01
          2   -1    0    0  501    0  0.00000000000E+00  0.00000000000E+00  0.58511019515E+03  0.58511019516E+03  0.25500000000E-02 0. -1.
         -2   -1    0    0    0  501 -0.00000000000E+00 -0.00000000000E+00 -0.93712475254E+03  0.93712475254E+03  0.25500000000E-02 0.  1.
    8880023    1    1    2    0    0  0.32410669000E+03 -0.12502350353E+02 -0.70585631577E+03  0.10184521589E+04  0.65864270000E+03 0.  1.
    8880022    1    1    2    0    0 -0.32410669000E+03  0.12502350353E+02  0.35384175838E+03  0.50378278876E+03  0.15294330000E+03 0.  0.
<mgrwt>
<rscale>  0 0.61376416E+03</rscale>
<asrwt>0</asrwt>
<pdfrwt beam="1">  1        2 0.90016953E-01 0.73417414E+03</pdfrwt>
<pdfrwt beam="2">  1       -2 0.14417304E+00 0.73417414E+03</pdfrwt>
<totfact> 0.17268500E+01</totfact>
</mgrwt>
</event>
<event>
 4    5  0.2295023E-007  0.1492085E+04  0.7818608E-02  0.8915245E-01
         -2   -1    0    0    0  501 -0.00000000000E+00  0.00000000000E+00  0.31728677342E+04  0.31728677342E+04  0.25500000000E-02 0.  1.
          2   -1    0    0  501    0  0.00000000000E+00 -0.00000000000E+00 -0.81200542306E+03  0.81200542306E+03  0.25500000000E-02 0. -1.
    8880023    1    1    2    0    0 -0.46951603671E+03 -0.12538188444E+04  0.29906062281E+03  0.15217603181E+04  0.65864270000E+03 0.  0.
    8880022    1    1    2    0    0  0.46951603671E+03  0.12538188444E+04  0.20618016883E+04  0.24631128391E+04  0.15294330000E+03 0.  0.
<mgrwt>
<rscale>  0 0.14545598E+04</rscale>
<asrwt>0</asrwt>
<pdfrwt beam="1">  1        2 0.12492391E+00 0.14920849E+04</pdfrwt>
<pdfrwt beam="2">  1       -2 0.48813351E+00 0.14920849E+04</pdfrwt>
<totfact> 0.62681470E-02</totfact>
</mgrwt>
</event>
<event>
 4    5  0.2295023E-007  0.6810712E+03  0.7818608E-02  0.1008724E+00
          2   -1    0    0  501    0  0.00000000000E+00  0.00000000000E+00  0.20568627455E+04  0.20568627455E+04  0.25500000000E-02 0. -1.
         -2   -1    0    0    0  501 -0.00000000000E+00 -0.00000000000E+00 -0.35799664508E+03  0.35799664509E+03  0.25500000000E-02 0.  1.
    8880023    1    1    2    0    0 -0.12948121594E+03  0.11524926008E+03 -0.19169648083E+02  0.68134092707E+03  0.65864270000E+03 0.  1.
    8880022    1    1    2    0    0  0.12948121594E+03 -0.11524926008E+03  0.17180357485E+04  0.17335184635E+04  0.15294330000E+03 0.  0.
<mgrwt>
<rscale>  0 0.51984888E+03</rscale>
<asrwt>0</asrwt>
<pdfrwt beam="1">  1        2 0.31644042E+00 0.68107120E+03</pdfrwt>
<pdfrwt beam="2">  1       -2 0.55076408E-01 0.68107120E+03</pdfrwt>
<totfact> 0.20137502E+01</totfact>
</mgrwt>
</event>
<event>
 4    5  0.2295023E-007  0.9875331E+03  0.7818608E-02  0.9398053E-01
          2   -1    0    0  501    0  0.00000000000E+00  0.00000000000E+00  0.10719702507E+04  0.10719702507E+04  0.25500000000E-02 0. -1.
         -2   -1    0    0    0  501 -0.00000000000E+00 -0.00000000000E+00 -0.88633935783E+03  0.88633935783E+03  0.25500000000E-02 0.  1.
    8880023    1    1    2    0    0 -0.54634229697E+03 -0.49287075771E+03 -0.33640035265E+03  0.10432578266E+04  0.65864270000E+03 0.  1.
    8880022    1    1    2    0    0  0.54634229697E+03  0.49287075771E+03  0.52203124549E+03  0.91505178189E+03  0.15294330000E+03 0.  0.
<mgrwt>
<rscale>  0 0.92236092E+03</rscale>
<asrwt>0</asrwt>
<pdfrwt beam="1">  1        2 0.16491850E+00 0.98753314E+03</pdfrwt>
<pdfrwt beam="2">  1       -2 0.13635990E+00 0.98753314E+03</pdfrwt>
<totfact> 0.86572928E+00</totfact>
</mgrwt>
</event>
<event>
 4    5  0.2295023E-007  0.7905353E+03  0.7818608E-02  0.9731647E-01
          2   -1    0    0  501    0  0.00000000000E+00  0.00000000000E+00  0.43245947206E+03  0.43245947206E+03  0.25500000000E-02 0. -1.
         -2   -1    0    0    0  501 -0.00000000000E+00 -0.00000000000E+00 -0.10211561407E+04  0.10211561407E+04  0.25500000000E-02 0.  1.
    8880023    1    1    2    0    0 -0.19608580839E+03  0.39075081015E+03 -0.59657482913E+03  0.99037749010E+03  0.65864270000E+03 0.  1.
    8880022    1    1    2    0    0  0.19608580839E+03 -0.39075081015E+03  0.78781604633E+01  0.46323812269E+03  0.15294330000E+03 0.  0.
<mgrwt>
<rscale>  0 0.69163397E+03</rscale>
<asrwt>0</asrwt>
<pdfrwt beam="1">  1        2 0.66532227E-01 0.79053529E+03</pdfrwt>
<pdfrwt beam="2">  1       -2 0.15710094E+00 0.79053529E+03</pdfrwt>
<totfact> 0.19464756E+01</totfact>
</mgrwt>
</event>
<event>
 4    5  0.2295023E-007  0.9392796E+03  0.7818608E-02  0.9465709E-01
          2   -1    0    0  501    0  0.00000000000E+00  0.00000000000E+00  0.24156292456E+04  0.24156292456E+04  0.25500000000E-02 0. -1.
         -2   -1    0    0    0  501 -0.00000000000E+00 -0.00000000000E+00 -0.39268437366E+03  0.39268437367E+03  0.25500000000E-02 0.  1.
    8880023    1    1    2    0    0  0.20371431831E+03  0.63791563741E+03  0.35440745014E+03  0.10039176913E+04  0.65864270000E+03 0.  1.
    8880022    1    1    2    0    0 -0.20371431831E+03 -0.63791563741E+03  0.16685374218E+04  0.18043959280E+04  0.15294330000E+03 0.  0.
<mgrwt>
<rscale>  0 0.86859848E+03</rscale>
<asrwt>0</asrwt>
<pdfrwt beam="1">  1        2 0.37163526E+00 0.93927956E+03</pdfrwt>
<pdfrwt beam="2">  1       -2 0.60412982E-01 0.93927956E+03</pdfrwt>
<totfact> 0.10117752E+01</totfact>
</mgrwt>
</event>
<event>
 4    5  0.2295023E-007  0.9944702E+03  0.7818608E-02  0.9388828E-01
          2   -1    0    0  501    0  0.00000000000E+00  0.00000000000E+00  0.94637366957E+03  0.94637366958E+03  0.25500000000E-02 0. -1.
         -2   -1    0    0    0  501 -0.00000000000E+00 -0.00000000000E+00 -0.20200251634E+04  0.20200251634E+04  0.25500000000E-02 0.  1.
    8880023    1    1    2    0    0  0.42142076655E+03 -0.61446349272E+03 -0.17077006505E+04  0.19761610674E+04  0.65864270000E+03 0.  1.
    8880022    1    1    2    0    0 -0.42142076655E+03  0.61446349272E+03  0.63404915664E+03  0.99023776560E+03  0.15294330000E+03 0.  0.
<mgrwt>
<rscale>  0 0.93000801E+03</rscale>
<asrwt>0</asrwt>
<pdfrwt beam="1">  1        2 0.14559595E+00 0.99447024E+03</pdfrwt>
<pdfrwt beam="2">  1       -2 0.31077310E+00 0.99447024E+03</pdfrwt>
<totfact> 0.74994449E-01</totfact>
</mgrwt>
</event>
<event>
 4    5  0.2295023E-007  0.8197975E+03  0.7818608E-02  0.9669519E-01
          2   -1    0    0  501    0  0.00000000000E+00  0.00000000000E+00  0.11887192091E+04  0.11887192091E+04  0.25500000000E-02 0. -1.
         -2   -1    0    0    0  501 -0.00000000000E+00 -0.00000000000E+00 -0.50987189700E+03  0.50987189700E+03  0.25500000000E-02 0.  1.
    8880023    1    1    2    0    0  0.37199651613E+03  0.31603212795E+03 -0.34826174259E+02  0.82053688679E+03  0.65864270000E+03 0.  1.
    8880022    1    1    2    0    0 -0.37199651613E+03 -0.31603212795E+03  0.71367348637E+03  0.87805421932E+03  0.15294330000E+03 0.  0.
<mgrwt>
<rscale>  0 0.72860962E+03</rscale>
<asrwt>0</asrwt>
<pdfrwt beam="1">  1        2 0.18287988E+00 0.81979749E+03</pdfrwt>
<pdfrwt beam="2">  1       -2 0.78441830E-01 0.81979749E+03</pdfrwt>
<totfact> 0.28113722E+01</totfact>
</mgrwt>
</event>
<event>
 4    5  0.2295023E-007  0.1518327E+04  0.7818608E-02  0.8896802E-01
         -2   -1    0    0    0  501 -0.00000000000E+00  0.00000000000E+00  0.16793924871E+04  0.16793924871E+04  0.25500000000E-02 0.  1.
          2   -1    0    0  501    0  0.00000000000E+00 -0.00000000000E+00 -0.31520217390E+04  0.31520217390E+04  0.25500000000E-02 0. -1.
    8880023    1    1    2    0    0 -0.13628557911E+04  0.11887669039E+03  0.11262806818E+04  0.18904565468E+04  0.65864270000E+03 0.  0.
    8880022    1    1    2    0    0  0.13628557911E+04 -0.11887669039E+03 -0.25989099337E+04  0.29409576793E+04  0.15294330000E+03 0.  0.
<mgrwt>
<rscale>  0 0.14815705E+04</rscale>
<asrwt>0</asrwt>
<pdfrwt beam="1">  1        2 0.48492642E+00 0.15183273E+04</pdfrwt>
<pdfrwt beam="2">  1       -2 0.25836807E+00 0.15183273E+04</pdfrwt>
<totfact> 0.74736212E-02</totfact>
</mgrwt>
</event>
<event>
 4    5  0.2295023E-007  0.6849361E+03  0.7818608E-02  0.1006659E+00
         -2   -1    0    0    0  501 -0.00000000000E+00  0.00000000000E+00  0.28617680355E+03  0.28617680356E+03  0.25500000000E-02 0.  1.
          2   -1    0    0  501    0  0.00000000000E+00 -0.00000000000E+00 -0.16691876909E+04  0.16691876909E+04  0.25500000000E-02 0. -1.
    8880023    1    1    2    0    0  0.16771659803E+03 -0.84843772780E+02 -0.15313769108E+03  0.70184662265E+03  0.65864270000E+03 0.  1.
    8880022    1    1    2    0    0 -0.16771659803E+03  0.84843772780E+02 -0.12298731962E+04  0.12535178718E+04  0.15294330000E+03 0.  0.
<mgrwt>
<rscale>  0 0.52824437E+03</rscale>
<asrwt>0</asrwt>
<pdfrwt beam="1">  1        2 0.25679810E+00 0.68493615E+03</pdfrwt>
<pdfrwt beam="2">  1       -2 0.44027201E-01 0.68493615E+03</pdfrwt>
<totfact> 0.51502009E+01</totfact>
</mgrwt>
</event>
<event>
 4    5  0.2828006E-007  0.9819069E+03  0.7818608E-02  0.9405621E-01
         -2   -1    0    0    0  501 -0.00000000000E+00  0.00000000000E+00  0.19697646388E+04  0.19697646388E+04  0.25500000000E-02 0.  1.
          2   -1    0    0  501    0  0.00000000000E+00 -0.00000000000E+00 -0.20143453359E+04  0.20143453359E+04  0.25500000000E-02 0. -1.
    8880023    1    1    2    0    0 -0.21367868032E+03  0.69618419694E+03  0.17693133946E+04  0.20235145438E+04  0.65864270000E+03 0.  1.
    8880022    1    1    2    0    0  0.21367868032E+03 -0.69618419694E+03 -0.18138940917E+04  0.19605954309E+04  0.15294330000E+03 0.  0.
<mgrwt>
<rscale>  0 0.91614514E+03</rscale>
<asrwt>0</asrwt>
<pdfrwt beam="1">  1        2 0.30989928E+00 0.98190693E+03</pdfrwt>
<pdfrwt beam="2">  1       -2 0.30304071E+00 0.98190693E+03</pdfrwt>
<totfact> 0.20263315E-01</totfact>
</mgrwt>
</event>
<event>
 4    5  0.2295023E-007  0.1302117E+04  0.7818608E-02  0.9063734E-01
          2   -1    0    0  501    0  0.00000000000E+00  0.00000000000E+00  0.15793342166E+04  0.15793342166E+04  0.25500000000E-02 0. -1.
         -2   -1    0    0    0  501 -0.00000000000E+00 -0.00000000000E+00 -0.99061479451E+03  0.99061479452E+03  0.25500000000E-02 0.  1.
    8880023    1    1    2    0    0 -0.10097025643E+04 -0.49213848002E+03  0.21392142312E+02  0.13022931244E+04  0.65864270000E+03 0.  0.
    8880022    1    1    2    0    0  0.10097025643E+04  0.49213848002E+03  0.56732727982E+03  0.12676558868E+04  0.15294330000E+03 0.  0.
<mgrwt>
<rscale>  0 0.12577790E+04</rscale>
<asrwt>0</asrwt>
<pdfrwt beam="1">  1        2 0.24297449E+00 0.13021174E+04</pdfrwt>
<pdfrwt beam="2">  1       -2 0.15240228E+00 0.13021174E+04</pdfrwt>
<totfact> 0.31660360E+00</totfact>
</mgrwt>
</event>
<event>
 4    5  0.2295023E-007  0.7225912E+03  0.7818608E-02  0.9913914E-01
         -2   -1    0    0    0  501 -0.00000000000E+00  0.00000000000E+00  0.27095897832E+03  0.27095897834E+03  0.25500000000E-02 0.  1.
          2   -1    0    0  501    0  0.00000000000E+00 -0.00000000000E+00 -0.13404458354E+04  0.13404458354E+04  0.25500000000E-02 0. -1.
    8880023    1    1    2    0    0  0.29690304779E+03 -0.13280515217E+02 -0.31904188814E+03  0.78988969136E+03  0.65864270000E+03 0.  0.
    8880022    1    1    2    0    0 -0.29690304779E+03  0.13280515217E+02 -0.75044496892E+03  0.82151512236E+03  0.15294330000E+03 0.  0.
<mgrwt>
<rscale>  0 0.59591674E+03</rscale>
<asrwt>0</asrwt>
<pdfrwt beam="1">  1        2 0.20622243E+00 0.72259117E+03</pdfrwt>
<pdfrwt beam="2">  1       -2 0.41685997E-01 0.72259117E+03</pdfrwt>
<totfact> 0.87072748E+01</totfact>
</mgrwt>
</event>
<event>
 4    5  0.2295023E-007  0.1060601E+04  0.7818608E-02  0.9306245E-01
          2   -1    0    0  501    0  0.00000000000E+00  0.00000000000E+00  0.17507059035E+04  0.17507059035E+04  0.25500000000E-02 0. -1.
         -2   -1    0    0    0  501 -0.00000000000E+00 -0.00000000000E+00 -0.56818571862E+03  0.56818571863E+03  0.25500000000E-02 0.  1.
    8880023    1    1    2    0    0 -0.82698811375E+03 -0.84584051367E+02  0.31203592254E+03  0.11055498294E+04  0.65864270000E+03 0.  0.
    8880022    1    1    2    0    0  0.82698811375E+03  0.84584051367E+02  0.87048426233E+03  0.12133417927E+04  0.15294330000E+03 0.  0.
<mgrwt>
<rscale>  0 0.10020995E+04</rscale>
<asrwt>0</asrwt>
<pdfrwt beam="1">  1        2 0.26933937E+00 0.10606008E+04</pdfrwt>
<pdfrwt beam="2">  1       -2 0.87413189E-01 0.10606008E+04</pdfrwt>
<totfact> 0.10308032E+01</totfact>
</mgrwt>
</event>
<event>
 4    5  0.2295023E-007  0.1028923E+04  0.7818608E-02  0.9344659E-01
          2   -1    0    0  501    0  0.00000000000E+00  0.00000000000E+00  0.20571230332E+04  0.20571230332E+04  0.25500000000E-02 0. -1.
         -2   -1    0    0    0  501 -0.00000000000E+00 -0.00000000000E+00 -0.11320996915E+04  0.11320996915E+04  0.25500000000E-02 0.  1.
    8880023    1    1    2    0    0  0.22040817283E+03 -0.75913948912E+03 -0.78827291616E+03  0.12961700981E+04  0.65864270000E+03 0.  1.
    8880022    1    1    2    0    0 -0.22040817283E+03  0.75913948912E+03  0.17132962579E+04  0.18930526266E+04  0.15294330000E+03 0.  0.
<mgrwt>
<rscale>  0 0.96773442E+03</rscale>
<asrwt>0</asrwt>
<pdfrwt beam="1">  1        2 0.31648047E+00 0.10289231E+04</pdfrwt>
<pdfrwt beam="2">  1       -2 0.17416918E+00 0.10289231E+04</pdfrwt>
<totfact> 0.12293449E+00</totfact>
</mgrwt>
</event>
<event>
 4    5  0.2295023E-007  0.9552166E+03  0.7818608E-02  0.9442648E-01
         -2   -1    0    0    0  501 -0.00000000000E+00  0.00000000000E+00  0.10672502690E+04  0.10672502690E+04  0.25500000000E-02 0.  1.
          2   -1    0    0  501    0  0.00000000000E+00 -0.00000000000E+00 -0.15088208118E+04  0.15088208118E+04  0.25500000000E-02 0. -1.
    8880023    1    1    2    0    0 -0.67884948442E+03  0.13338669362E+03  0.73320282880E+03  0.12041699328E+04  0.65864270000E+03 0.  0.
    8880022    1    1    2    0    0  0.67884948442E+03 -0.13338669362E+03 -0.11747733716E+04  0.13719011481E+04  0.15294330000E+03 0. -1.
<mgrwt>
<rscale>  0 0.88647516E+03</rscale>
<asrwt>0</asrwt>
<pdfrwt beam="1">  1        2 0.23212628E+00 0.95521664E+03</pdfrwt>
<pdfrwt beam="2">  1       -2 0.16419235E+00 0.95521664E+03</pdfrwt>
<totfact> 0.29394057E+00</totfact>
</mgrwt>
</event>
<event>
 4    5  0.2295023E-007  0.6943165E+03  0.7818608E-02  0.1002165E+00
         -2   -1    0    0    0  501 -0.00000000000E+00  0.00000000000E+00  0.16782099955E+04  0.16782099955E+04  0.25500000000E-02 0.  1.
          2   -1    0    0  501    0  0.00000000000E+00 -0.00000000000E+00 -0.55381798053E+03  0.55381798054E+03  0.25500000000E-02 0. -1.
    8880023    1    1    2    0    0 -0.13105082605E+02  0.21930204400E+03  0.15674716573E+04  0.17143636523E+04  0.65864270000E+03 0.  1.
    8880022    1    1    2    0    0  0.13105082605E+02 -0.21930204400E+03 -0.44307964227E+03  0.51766432377E+03  0.15294330000E+03 0.  0.
<mgrwt>
<rscale>  0 0.54711076E+03</rscale>
<asrwt>0</asrwt>
<pdfrwt beam="1">  1        2 0.85202767E-01 0.69431645E+03</pdfrwt>
<pdfrwt beam="2">  1       -2 0.25818615E+00 0.69431645E+03</pdfrwt>
<totfact> 0.32503333E+00</totfact>
</mgrwt>
</event>
<event>
 4    5  0.2295023E-007  0.1407322E+04  0.7818608E-02  0.8978015E-01
         -2   -1    0    0    0  501 -0.00000000000E+00  0.00000000000E+00  0.12637954275E+04  0.12637954275E+04  0.25500000000E-02 0.  1.
          2   -1    0    0  501    0  0.00000000000E+00 -0.00000000000E+00 -0.17771549925E+04  0.17771549925E+04  0.25500000000E-02 0. -1.
    8880023    1    1    2    0    0  0.71393880378E+03 -0.10183491761E+04  0.43105527625E+03  0.14718568264E+04  0.65864270000E+03 0.  0.
    8880022    1    1    2    0    0 -0.71393880378E+03  0.10183491761E+04 -0.94441484123E+03  0.15690935936E+04  0.15294330000E+03 0.  0.
<mgrwt>
<rscale>  0 0.13670586E+04</rscale>
<asrwt>0</asrwt>
<pdfrwt beam="1">  1        2 0.27340846E+00 0.14073215E+04</pdfrwt>
<pdfrwt beam="2">  1       -2 0.19443007E+00 0.14073215E+04</pdfrwt>
<totfact> 0.12207785E+00</totfact>
</mgrwt>
</event>
<event>
 4    5  0.2295023E-007  0.7547089E+03  0.7818608E-02  0.9819003E-01
         -2   -1    0    0    0  501 -0.00000000000E+00  0.00000000000E+00  0.23506257493E+03  0.23506257494E+03  0.25500000000E-02 0.  1.
          2   -1    0    0  501    0  0.00000000000E+00 -0.00000000000E+00 -0.21161936641E+04  0.21161936641E+04  0.25500000000E-02 0. -1.
    8880023    1    1    2    0    0 -0.20311594062E+03 -0.30743986324E+03 -0.47996846902E+03  0.89440219832E+03  0.65864270000E+03 0.  1.
    8880022    1    1    2    0    0  0.20311594062E+03  0.30743986324E+03 -0.14011626201E+04  0.14568540407E+04  0.15294330000E+03 0.  0.
<mgrwt>
<rscale>  0 0.64352622E+03</rscale>
<asrwt>0</asrwt>
<pdfrwt beam="1">  1        2 0.32556824E+00 0.75470892E+03</pdfrwt>
<pdfrwt beam="2">  1       -2 0.36163474E-01 0.75470892E+03</pdfrwt>
<totfact> 0.42740608E+01</totfact>
</mgrwt>
</event>
<event>
 4    5  0.2295023E-007  0.1307715E+04  0.7818608E-02  0.9058926E-01
          2   -1    0    0  501    0  0.00000000000E+00  0.00000000000E+00  0.19553579442E+04  0.19553579442E+04  0.25500000000E-02 0. -1.
         -2   -1    0    0    0  501 -0.00000000000E+00 -0.00000000000E+00 -0.10420337494E+04  0.10420337494E+04  0.25500000000E-02 0.  1.
    8880023    1    1    2    0    0 -0.11254083026E+04 -0.98808721858E+02 -0.29031049240E+03  0.13395511933E+04  0.65864270000E+03 0.  1.
    8880022    1    1    2    0    0  0.11254083026E+04  0.98808721858E+02  0.12036346872E+04  0.16578405003E+04  0.15294330000E+03 0.  0.
<mgrwt>
<rscale>  0 0.12636158E+04</rscale>
<asrwt>0</asrwt>
<pdfrwt beam="1">  1        2 0.30082430E+00 0.13077145E+04</pdfrwt>
<pdfrwt beam="2">  1       -2 0.16031288E+00 0.13077145E+04</pdfrwt>
<totfact> 0.17034596E+00</totfact>
</mgrwt>
</event>
<event>
 4    5  0.2295023E-007  0.7619632E+03  0.7818608E-02  0.9800051E-01
          2   -1    0    0  501    0  0.00000000000E+00  0.00000000000E+00  0.20129299574E+04  0.20129299574E+04  0.25500000000E-02 0. -1.
         -2   -1    0    0    0  501 -0.00000000000E+00 -0.00000000000E+00 -0.60619523003E+03  0.60619523004E+03  0.25500000000E-02 0.  1.
    8880023    1    1    2    0    0  0.33328874819E+03  0.18893484730E+03 -0.33270986745E+03  0.83143480103E+03  0.65864270000E+03 0.  1.
    8880022    1    1    2    0    0 -0.33328874819E+03 -0.18893484730E+03  0.17394445948E+04  0.17876903864E+04  0.15294330000E+03 0.  0.
<mgrwt>
<rscale>  0 0.65359798E+03</rscale>
<asrwt>0</asrwt>
<pdfrwt beam="1">  1        2 0.30968153E+00 0.76196324E+03</pdfrwt>
<pdfrwt beam="2">  1       -2 0.93260806E-01 0.76196324E+03</pdfrwt>
<totfact> 0.66131104E+00</totfact>
</mgrwt>
</event>
<event>
 4    5  0.2295023E-007  0.1574317E+04  0.7818608E-02  0.8858865E-01
          2   -1    0    0  501    0  0.00000000000E+00  0.00000000000E+00  0.35570746236E+04  0.35570746236E+04  0.25500000000E-02 0. -1.
         -2   -1    0    0    0  501 -0.00000000000E+00 -0.00000000000E+00 -0.94176148505E+03  0.94176148505E+03  0.25500000000E-02 0.  1.
    8880023    1    1    2    0    0  0.35375610624E+03 -0.13854681344E+04  0.26248042001E+04  0.30607307345E+04  0.65864270000E+03 0.  0.
    8880022    1    1    2    0    0 -0.35375610624E+03  0.13854681344E+04 -0.94910614752E+01  0.14381053742E+04  0.15294330000E+03 0.  0.
<mgrwt>
<rscale>  0 0.15390919E+04</rscale>
<asrwt>0</asrwt>
<pdfrwt beam="1">  1        2 0.54724225E+00 0.15743175E+04</pdfrwt>
<pdfrwt beam="2">  1       -2 0.14488638E+00 0.15743175E+04</pdfrwt>
<totfact> 0.23013666E-01</totfact>
</mgrwt>
</event>
<event>
 4    5  0.2295023E-007  0.8833691E+03  0.7818608E-02  0.9553275E-01
         -2   -1    0    0    0  501 -0.00000000000E+00  0.00000000000E+00  0.15110339185E+04  0.15110339185E+04  0.25500000000E-02 0.  1.
          2   -1    0    0  501    0  0.00000000000E+00 -0.00000000000E+00 -0.76030510310E+03  0.76030510310E+03  0.25500000000E-02 0. -1.
    8880023    1    1    2    0    0 -0.17259189991E+03  0.56279905146E+03  0.12178169248E+04  0.15044663522E+04  0.65864270000E+03 0.  1.
    8880022    1    1    2    0    0  0.17259189991E+03 -0.56279905146E+03 -0.46708810936E+03  0.76687266946E+03  0.15294330000E+03 0.  0.
<mgrwt>
<rscale>  0 0.80467494E+03</rscale>
<asrwt>0</asrwt>
<pdfrwt beam="1">  1        2 0.11697002E+00 0.88336909E+03</pdfrwt>
<pdfrwt beam="2">  1       -2 0.23246676E+00 0.88336909E+03</pdfrwt>
<totfact> 0.30678758E+00</totfact>
</mgrwt>
</event>
<event>
 4    5  0.2295023E-007  0.7648447E+03  0.7818608E-02  0.9792723E-01
          2   -1    0    0  501    0  0.00000000000E+00  0.00000000000E+00  0.32514890577E+04  0.32514890577E+04  0.25500000000E-02 0. -1.
         -2   -1    0    0    0  501 -0.00000000000E+00 -0.00000000000E+00 -0.24329863561E+03  0.24329863563E+03  0.25500000000E-02 0.  1.
    8880023    1    1    2    0    0  0.29000704352E+03 -0.25898485019E+03  0.41898315652E+03  0.87208619392E+03  0.65864270000E+03 0.  1.
    8880022    1    1    2    0    0 -0.29000704352E+03  0.25898485019E+03  0.25892072655E+04  0.26227014994E+04  0.15294330000E+03 0.  0.
<mgrwt>
<rscale>  0 0.65754550E+03</rscale>
<asrwt>0</asrwt>
<pdfrwt beam="1">  1        2 0.50022903E+00 0.76484472E+03</pdfrwt>
<pdfrwt beam="2">  1       -2 0.37430564E-01 0.76484472E+03</pdfrwt>
<totfact> 0.86324685E+00</totfact>
</mgrwt>
</event>
<event>
 4    5  0.2295023E-007  0.1028757E+04  0.7818608E-02  0.9344865E-01
         -2   -1    0    0    0  501 -0.00000000000E+00  0.00000000000E+00  0.19011824971E+04  0.19011824971E+04  0.25500000000E-02 0.  1.
          2   -1    0    0  501    0  0.00000000000E+00 -0.00000000000E+00 -0.64208109285E+03  0.64208109286E+03  0.25500000000E-02 0. -1.
    8880023    1    1    2    0    0  0.42790160969E+03 -0.66440302245E+03  0.13884051947E+04  0.17280076258E+04  0.65864270000E+03 0.  0.
    8880022    1    1    2    0    0 -0.42790160969E+03  0.66440302245E+03 -0.12930379048E+03  0.81525596414E+03  0.15294330000E+03 0.  0.
<mgrwt>
<rscale>  0 0.96755369E+03</rscale>
<asrwt>0</asrwt>
<pdfrwt beam="1">  1        2 0.98781708E-01 0.10287572E+04</pdfrwt>
<pdfrwt beam="2">  1       -2 0.29248961E+00 0.10287572E+04</pdfrwt>
<totfact> 0.16144848E+00</totfact>
</mgrwt>
</event>
<event>
 4    5  0.2295023E-007  0.9763268E+03  0.7818608E-02  0.9413207E-01
          2   -1    0    0  501    0  0.00000000000E+00  0.00000000000E+00  0.48799644988E+04  0.48799644988E+04  0.25500000000E-02 0. -1.
         -2   -1    0    0    0  501 -0.00000000000E+00 -0.00000000000E+00 -0.65327440431E+03  0.65327440432E+03  0.25500000000E-02 0.  1.
    8880023    1    1    2    0    0  0.44181346793E+03 -0.56938971094E+03 -0.24065573019E+03  0.10055491883E+04  0.65864270000E+03 0.  1.
    8880022    1    1    2    0    0 -0.44181346793E+03  0.56938971094E+03  0.44673458247E+04  0.45276897148E+04  0.15294330000E+03 0.  0.
<mgrwt>
<rscale>  0 0.90996759E+03</rscale>
<asrwt>0</asrwt>
<pdfrwt beam="1">  1        2 0.75076374E+00 0.97632678E+03</pdfrwt>
<pdfrwt beam="2">  1       -2 0.10050376E+00 0.97632678E+03</pdfrwt>
<totfact> 0.43201362E-02</totfact>
</mgrwt>
</event>
<event>
 4    5  0.2295023E-007  0.6758237E+03  0.7818608E-02  0.1011792E+00
         -2   -1    0    0    0  501 -0.00000000000E+00  0.00000000000E+00  0.17985937783E+03  0.17985937785E+03  0.25500000000E-02 0.  1.
          2   -1    0    0  501    0  0.00000000000E+00 -0.00000000000E+00 -0.21896003552E+04  0.21896003552E+04  0.25500000000E-02 0. -1.
    8880023    1    1    2    0    0  0.20950280271E+02  0.14996173869E+03 -0.49052802844E+03  0.83507807435E+03  0.65864270000E+03 0.  1.
    8880022    1    1    2    0    0 -0.20950280271E+02 -0.14996173869E+03 -0.15192129490E+04  0.15343816587E+04  0.15294330000E+03 0.  0.
<mgrwt>
<rscale>  0 0.50768585E+03</rscale>
<asrwt>0</asrwt>
<pdfrwt beam="1">  1        2 0.33686157E+00 0.67582368E+03</pdfrwt>
<pdfrwt beam="2">  1       -2 0.27670675E-01 0.67582368E+03</pdfrwt>
<totfact> 0.64944247E+01</totfact>
</mgrwt>
</event>
<event>
 4    5  0.2295023E-007  0.7320455E+03  0.7818608E-02  0.9883755E-01
         -2   -1    0    0    0  501 -0.00000000000E+00  0.00000000000E+00  0.11146996500E+04  0.11146996500E+04  0.25500000000E-02 0.  1.
          2   -1    0    0  501    0  0.00000000000E+00 -0.00000000000E+00 -0.44543991595E+03  0.44543991595E+03  0.25500000000E-02 0. -1.
    8880023    1    1    2    0    0  0.31938104049E+03  0.87281491441E+01  0.88256543031E+03  0.11466526827E+04  0.65864270000E+03 0.  1.
    8880022    1    1    2    0    0 -0.31938104049E+03 -0.87281491441E+01 -0.21330569624E+03  0.41348688332E+03  0.15294330000E+03 0.  0.
<mgrwt>
<rscale>  0 0.61055101E+03</rscale>
<asrwt>0</asrwt>
<pdfrwt beam="1">  1        2 0.68529218E-01 0.73204551E+03</pdfrwt>
<pdfrwt beam="2">  1       -2 0.17149225E+00 0.73204551E+03</pdfrwt>
<totfact> 0.14882490E+01</totfact>
</mgrwt>
</event>
<event>
 4    5  0.2295023E-007  0.1034034E+04  0.7818608E-02  0.9338325E-01
          2   -1    0    0  501    0  0.00000000000E+00  0.00000000000E+00  0.92716493904E+03  0.92716493904E+03  0.25500000000E-02 0. -1.
         -2   -1    0    0    0  501 -0.00000000000E+00 -0.00000000000E+00 -0.20126185988E+04  0.20126185989E+04  0.25500000000E-02 0.  1.
    8880023    1    1    2    0    0  0.69441047508E+03 -0.39142174799E+03 -0.16527130481E+04  0.19495352057E+04  0.65864270000E+03 0.  1.
    8880022    1    1    2    0    0 -0.69441047508E+03  0.39142174799E+03  0.56725938832E+03  0.99024833216E+03  0.15294330000E+03 0.  0.
<mgrwt>
<rscale>  0 0.97329869E+03</rscale>
<asrwt>0</asrwt>
<pdfrwt beam="1">  1        2 0.14264076E+00 0.10340344E+04</pdfrwt>
<pdfrwt beam="2">  1       -2 0.30963363E+00 0.10340344E+04</pdfrwt>
<totfact> 0.78036930E-01</totfact>
</mgrwt>
</event>
<event>
 4    5  0.2295023E-007  0.1231478E+04  0.7818608E-02  0.9127115E-01
         -2   -1    0    0    0  501 -0.00000000000E+00  0.00000000000E+00  0.85712174092E+03  0.85712174093E+03  0.25500000000E-02 0.  1.
          2   -1    0    0  501    0  0.00000000000E+00 -0.00000000000E+00 -0.16684075065E+04  0.16684075065E+04  0.25500000000E-02 0. -1.
    8880023    1    1    2    0    0 -0.18071324636E+03  0.10247291307E+04 -0.59824351362E+02  0.12329299364E+04  0.65864270000E+03 0.  0.
    8880022    1    1    2    0    0  0.18071324636E+03 -0.10247291307E+04 -0.75146141423E+03  0.12925993110E+04  0.15294330000E+03 0.  0.
<mgrwt>
<rscale>  0 0.11838458E+04</rscale>
<asrwt>0</asrwt>
<pdfrwt beam="1">  1        2 0.25667808E+00 0.12314777E+04</pdfrwt>
<pdfrwt beam="2">  1       -2 0.13186488E+00 0.12314777E+04</pdfrwt>
<totfact> 0.41529089E+00</totfact>
</mgrwt>
</event>
<event>
 4    5  0.2295023E-007  0.7127334E+03  0.7818608E-02  0.9947987E-01
          2   -1    0    0  501    0  0.00000000000E+00  0.00000000000E+00  0.82509828747E+03  0.82509828748E+03  0.25500000000E-02 0. -1.
         -2   -1    0    0    0  501 -0.00000000000E+00 -0.00000000000E+00 -0.48059377771E+03  0.48059377772E+03  0.25500000000E-02 0.  1.
    8880023    1    1    2    0    0  0.33760012900E+01 -0.27233672178E+03 -0.14277214520E+03  0.72689254991E+03  0.65864270000E+03 0.  0.
    8880022    1    1    2    0    0 -0.33760012900E+01  0.27233672178E+03  0.48727665496E+03  0.57879951528E+03  0.15294330000E+03 0.  0.
<mgrwt>
<rscale>  0 0.57990928E+03</rscale>
<asrwt>0</asrwt>
<pdfrwt beam="1">  1        2 0.12693820E+00 0.71273340E+03</pdfrwt>
<pdfrwt beam="2">  1       -2 0.73937505E-01 0.71273340E+03</pdfrwt>
<totfact> 0.55378920E+01</totfact>
</mgrwt>
</event>
<event>
 4    5  0.2295023E-007  0.8093455E+03  0.7818608E-02  0.9690942E-01
          2   -1    0    0  501    0  0.00000000000E+00  0.00000000000E+00  0.80205953768E+03  0.80205953768E+03  0.25500000000E-02 0. -1.
         -2   -1    0    0    0  501 -0.00000000000E+00 -0.00000000000E+00 -0.61957811625E+03  0.61957811625E+03  0.25500000000E-02 0.  1.
    8880023    1    1    2    0    0 -0.36720481583E+03 -0.29392266069E+03 -0.15342932751E+03  0.82376008160E+03  0.65864270000E+03 0.  0.
    8880022    1    1    2    0    0  0.36720481583E+03  0.29392266069E+03  0.33591074894E+03  0.59787757234E+03  0.15294330000E+03 0.  0.
<mgrwt>
<rscale>  0 0.71558677E+03</rscale>
<asrwt>0</asrwt>
<pdfrwt beam="1">  1        2 0.12339378E+00 0.80934548E+03</pdfrwt>
<pdfrwt beam="2">  1       -2 0.95319710E-01 0.80934548E+03</pdfrwt>
<totfact> 0.32030866E+01</totfact>
</mgrwt>
</event>
<event>
 4    5  0.2295023E-007  0.8664516E+03  0.7818608E-02  0.9582189E-01
         -2   -1    0    0    0  501 -0.00000000000E+00  0.00000000000E+00  0.10952478642E+04  0.10952478642E+04  0.25500000000E-02 0.  1.
          2   -1    0    0  501    0  0.00000000000E+00 -0.00000000000E+00 -0.63970202542E+03  0.63970202542E+03  0.25500000000E-02 0. -1.
    8880023    1    1    2    0    0  0.35807289361E+03 -0.43440999532E+03  0.68859493053E+03  0.11067526489E+04  0.65864270000E+03 0.  0.
    8880022    1    1    2    0    0 -0.35807289361E+03  0.43440999532E+03 -0.23304909171E+03  0.62819724079E+03  0.15294330000E+03 0.  0.
<mgrwt>
<rscale>  0 0.78486356E+03</rscale>
<asrwt>0</asrwt>
<pdfrwt beam="1">  1        2 0.98415698E-01 0.86645164E+03</pdfrwt>
<pdfrwt beam="2">  1       -2 0.16849967E+00 0.86645164E+03</pdfrwt>
<totfact> 0.10063546E+01</totfact>
</mgrwt>
</event>
<event>
 4    5  0.2295023E-007  0.9444426E+03  0.7818608E-02  0.9458155E-01
         -2   -1    0    0    0  501 -0.00000000000E+00  0.00000000000E+00  0.76324824457E+03  0.76324824457E+03  0.25500000000E-02 0.  1.
          2   -1    0    0  501    0  0.00000000000E+00 -0.00000000000E+00 -0.22148339206E+04  0.22148339206E+04  0.25500000000E-02 0. -1.
    8880023    1    1    2    0    0 -0.63627530368E+03  0.23090109739E+03  0.38108609425E+03  0.10184293772E+04  0.65864270000E+03 0.  0.
    8880022    1    1    2    0    0  0.63627530368E+03 -0.23090109739E+03 -0.18326717703E+04  0.19596527880E+04  0.15294330000E+03 0. -1.
<mgrwt>
<rscale>  0 0.87440414E+03</rscale>
<asrwt>0</asrwt>
<pdfrwt beam="1">  1        2 0.34074368E+00 0.94444258E+03</pdfrwt>
<pdfrwt beam="2">  1       -2 0.11742281E+00 0.94444258E+03</pdfrwt>
<totfact> 0.28667597E+00</totfact>
</mgrwt>
</event>
<event>
 4    5  0.2295023E-007  0.7933041E+03  0.7818608E-02  0.9725465E-01
          2   -1    0    0  501    0  0.00000000000E+00  0.00000000000E+00  0.21184975748E+04  0.21184975748E+04  0.25500000000E-02 0. -1.
         -2   -1    0    0    0  501 -0.00000000000E+00 -0.00000000000E+00 -0.24431514342E+03  0.24431514344E+03  0.25500000000E-02 0.  1.
    8880023    1    1    2    0    0 -0.65131835859E+02 -0.43735466603E+03  0.56889767573E+03  0.97620491274E+03  0.65864270000E+03 0.  1.
    8880022    1    1    2    0    0  0.65131835859E+02  0.43735466603E+03  0.13052847557E+04  0.13866078055E+04  0.15294330000E+03 0.  0.
<mgrwt>
<rscale>  0 0.69520633E+03</rscale>
<asrwt>0</asrwt>
<pdfrwt beam="1">  1        2 0.32592271E+00 0.79330414E+03</pdfrwt>
<pdfrwt beam="2">  1       -2 0.37586945E-01 0.79330414E+03</pdfrwt>
<totfact> 0.39380367E+01</totfact>
</mgrwt>
</event>
<event>
 4    5  0.2295023E-007  0.6692560E+03  0.7818608E-02  0.1016202E+00
          2   -1    0    0  501    0  0.00000000000E+00  0.00000000000E+00  0.54882739474E+03  0.54882739475E+03  0.25500000000E-02 0. -1.
         -2   -1    0    0    0  501 -0.00000000000E+00 -0.00000000000E+00 -0.42092727490E+03  0.42092727490E+03  0.25500000000E-02 0.  1.
    8880023    1    1    2    0    0 -0.96142639003E+02 -0.69641741924E+02 -0.93370831108E+02  0.67573789121E+03  0.65864270000E+03 0.  1.
    8880022    1    1    2    0    0  0.96142639003E+02  0.69641741924E+02  0.22127095095E+03  0.29401677844E+03  0.15294330000E+03 0.  0.
<mgrwt>
<rscale>  0 0.49082473E+03</rscale>
<asrwt>0</asrwt>
<pdfrwt beam="1">  1        2 0.84434983E-01 0.66925599E+03</pdfrwt>
<pdfrwt beam="2">  1       -2 0.64758043E-01 0.66925599E+03</pdfrwt>
<totfact> 0.12331654E+02</totfact>
</mgrwt>
</event>
<event>
 4    5  0.2295023E-007  0.8896946E+03  0.7818608E-02  0.9542782E-01
         -2   -1    0    0    0  501 -0.00000000000E+00  0.00000000000E+00  0.14737326536E+04  0.14737326536E+04  0.25500000000E-02 0.  1.
          2   -1    0    0  501    0  0.00000000000E+00 -0.00000000000E+00 -0.14280600654E+04  0.14280600654E+04  0.25500000000E-02 0. -1.
    8880023    1    1    2    0    0  0.50675813804E+03 -0.31771446919E+03  0.12582961238E+04  0.15410599066E+04  0.65864270000E+03 0.  1.
    8880022    1    1    2    0    0 -0.50675813804E+03  0.31771446919E+03 -0.12126235356E+04  0.13607328124E+04  0.15294330000E+03 0.  0.
<mgrwt>
<rscale>  0 0.81201863E+03</rscale>
<asrwt>0</asrwt>
<pdfrwt beam="1">  1        2 0.21970155E+00 0.88969461E+03</pdfrwt>
<pdfrwt beam="2">  1       -2 0.22672810E+00 0.88969461E+03</pdfrwt>
<totfact> 0.12643239E+00</totfact>
</mgrwt>
</event>
<event>
 4    5  0.2295023E-007  0.7192582E+03  0.7818608E-02  0.9925104E-01
         -2   -1    0    0    0  501 -0.00000000000E+00  0.00000000000E+00  0.54637481089E+03  0.54637481090E+03  0.25500000000E-02 0.  1.
          2   -1    0    0  501    0  0.00000000000E+00 -0.00000000000E+00 -0.20894789347E+04  0.20894789347E+04  0.25500000000E-02 0. -1.
    8880023    1    1    2    0    0  0.27960706002E+03 -0.73089306091E+02  0.28874442103E+03  0.77505206381E+03  0.65864270000E+03 0.  1.
    8880022    1    1    2    0    0 -0.27960706002E+03  0.73089306091E+02 -0.18318485448E+04  0.18608016818E+04  0.15294330000E+03 0.  0.
<mgrwt>
<rscale>  0 0.59059918E+03</rscale>
<asrwt>0</asrwt>
<pdfrwt beam="1">  1        2 0.32145829E+00 0.71925820E+03</pdfrwt>
<pdfrwt beam="2">  1       -2 0.84057664E-01 0.71925820E+03</pdfrwt>
<totfact> 0.76780810E+00</totfact>
</mgrwt>
</event>
<event>
 4    5  0.2295023E-007  0.1385286E+04  0.7818608E-02  0.8995201E-01
          2   -1    0    0  501    0  0.00000000000E+00  0.00000000000E+00  0.16819425304E+04  0.16819425304E+04  0.25500000000E-02 0. -1.
         -2   -1    0    0    0  501 -0.00000000000E+00 -0.00000000000E+00 -0.13548049113E+04  0.13548049113E+04  0.25500000000E-02 0.  1.
    8880023    1    1    2    0    0 -0.10910713679E+04  0.54292661781E+03  0.93001487962E+03  0.16685154853E+04  0.65864270000E+03 0. -1.
    8880022    1    1    2    0    0  0.10910713679E+04 -0.54292661781E+03 -0.60287726044E+03  0.13682319564E+04  0.15294330000E+03 0.  0.
<mgrwt>
<rscale>  0 0.13442380E+04</rscale>
<asrwt>0</asrwt>
<pdfrwt beam="1">  1        2 0.25876039E+00 0.13852856E+04</pdfrwt>
<pdfrwt beam="2">  1       -2 0.20843153E+00 0.13852856E+04</pdfrwt>
<totfact> 0.11185430E+00</totfact>
</mgrwt>
</event>
<event>
 4    5  0.2295023E-007  0.8106072E+03  0.7818608E-02  0.9688314E-01
          2   -1    0    0  501    0  0.00000000000E+00  0.00000000000E+00  0.15295599100E+04  0.15295599100E+04  0.25500000000E-02 0. -1.
         -2   -1    0    0    0  501 -0.00000000000E+00 -0.00000000000E+00 -0.59914321051E+03  0.59914321051E+03  0.25500000000E-02 0.  1.
    8880023    1    1    2    0    0 -0.45035607663E+03 -0.14301467976E+03 -0.24981597037E+03  0.84822875435E+03  0.65864270000E+03 0.  0.
    8880022    1    1    2    0    0  0.45035607663E+03  0.14301467976E+03  0.11802326699E+04  0.12804743662E+04  0.15294330000E+03 0.  0.
<mgrwt>
<rscale>  0 0.71716878E+03</rscale>
<asrwt>0</asrwt>
<pdfrwt beam="1">  1        2 0.23531691E+00 0.81060718E+03</pdfrwt>
<pdfrwt beam="2">  1       -2 0.92175880E-01 0.81060718E+03</pdfrwt>
<totfact> 0.12424192E+01</totfact>
</mgrwt>
</event>
<event>
 4    5  0.2295023E-007  0.7689756E+03  0.7818608E-02  0.9782401E-01
          2   -1    0    0  501    0  0.00000000000E+00  0.00000000000E+00  0.18469709630E+04  0.18469709630E+04  0.25500000000E-02 0. -1.
         -2   -1    0    0    0  501 -0.00000000000E+00 -0.00000000000E+00 -0.42108462170E+03  0.42108462171E+03  0.25500000000E-02 0.  1.
    8880023    1    1    2    0    0  0.31134468431E+03 -0.24612559980E+03 -0.11499461392E+02  0.76906161470E+03  0.65864270000E+03 0.  0.
    8880022    1    1    2    0    0 -0.31134468431E+03  0.24612559980E+03  0.14373858027E+04  0.14989939700E+04  0.15294330000E+03 0. -1.
<mgrwt>
<rscale>  0 0.66315607E+03</rscale>
<asrwt>0</asrwt>
<pdfrwt beam="1">  1        2 0.28414937E+00 0.76897564E+03</pdfrwt>
<pdfrwt beam="2">  1       -2 0.64782251E-01 0.76897564E+03</pdfrwt>
<totfact> 0.18374929E+01</totfact>
</mgrwt>
</event>
<event>
 4    5  0.2295023E-007  0.9428064E+03  0.7818608E-02  0.9460540E-01
          2   -1    0    0  501    0  0.00000000000E+00  0.00000000000E+00  0.92700737024E+03  0.92700737024E+03  0.25500000000E-02 0. -1.
         -2   -1    0    0    0  501 -0.00000000000E+00 -0.00000000000E+00 -0.72107346115E+03  0.72107346116E+03  0.25500000000E-02 0.  1.
    8880023    1    1    2    0    0  0.43548727195E+03 -0.51519377957E+03  0.95891527456E+02  0.94767039936E+03  0.65864270000E+03 0.  1.
    8880022    1    1    2    0    0 -0.43548727195E+03  0.51519377957E+03  0.11004238163E+03  0.70041043203E+03  0.15294330000E+03 0.  1.
<mgrwt>
<rscale>  0 0.87256589E+03</rscale>
<asrwt>0</asrwt>
<pdfrwt beam="1">  1        2 0.14261652E+00 0.94280645E+03</pdfrwt>
<pdfrwt beam="2">  1       -2 0.11093438E+00 0.94280645E+03</pdfrwt>
<totfact> 0.18063214E+01</totfact>
</mgrwt>
</event>
<event>
 4    5  0.2295023E-007  0.9152301E+03  0.7818608E-02  0.9502012E-01
         -2   -1    0    0    0  501 -0.00000000000E+00  0.00000000000E+00  0.44856049211E+03  0.44856049212E+03  0.25500000000E-02 0.  1.
          2   -1    0    0  501    0  0.00000000000E+00 -0.00000000000E+00 -0.24904666120E+04  0.24904666120E+04  0.25500000000E-02 0. -1.
    8880023    1    1    2    0    0 -0.47064809318E+03  0.42699686746E+03 -0.13740767816E+03  0.92548745465E+03  0.65864270000E+03 0.  0.
    8880022    1    1    2    0    0  0.47064809318E+03 -0.42699686746E+03 -0.19044984417E+04  0.20135396495E+04  0.15294330000E+03 0.  0.
<mgrwt>
<rscale>  0 0.84135666E+03</rscale>
<asrwt>0</asrwt>
<pdfrwt beam="1">  1        2 0.38314870E+00 0.91523011E+03</pdfrwt>
<pdfrwt beam="2">  1       -2 0.69009308E-01 0.91523011E+03</pdfrwt>
<totfact> 0.69132549E+00</totfact>
</mgrwt>
</event>
<event>
 4    5  0.2295023E-007  0.1062389E+04  0.7818608E-02  0.9304135E-01
         -2   -1    0    0    0  501 -0.00000000000E+00  0.00000000000E+00  0.35009841757E+03  0.35009841758E+03  0.25500000000E-02 0.  1.
          2   -1    0    0  501    0  0.00000000000E+00 -0.00000000000E+00 -0.39414036831E+04  0.39414036831E+04  0.25500000000E-02 0. -1.
    8880023    1    1    2    0    0 -0.48357962338E+03 -0.67897710862E+03 -0.68482908689E+03  0.12639858586E+04  0.65864270000E+03 0.  1.
    8880022    1    1    2    0    0  0.48357962338E+03  0.67897710862E+03 -0.29064761786E+04  0.30275162421E+04  0.15294330000E+03 0.  0.
<mgrwt>
<rscale>  0 0.10040308E+04</rscale>
<asrwt>0</asrwt>
<pdfrwt beam="1">  1        2 0.60636977E+00 0.10623885E+04</pdfrwt>
<pdfrwt beam="2">  1       -2 0.53861298E-01 0.10623885E+04</pdfrwt>
<totfact> 0.12887560E+00</totfact>
</mgrwt>
</event>
<event>
 4    5  0.2295023E-007  0.6635022E+03  0.7818608E-02  0.1020825E+00
         -2   -1    0    0    0  501 -0.00000000000E+00  0.00000000000E+00  0.43792332977E+03  0.43792332977E+03  0.25500000000E-02 0.  1.
          2   -1    0    0  501    0  0.00000000000E+00 -0.00000000000E+00 -0.13302607349E+04  0.13302607349E+04  0.25500000000E-02 0. -1.
    8880023    1    1    2    0    0 -0.86528892540E+01 -0.79687212653E+02  0.17562500725E+03  0.68635214998E+03  0.65864270000E+03 0.  1.
    8880022    1    1    2    0    0  0.86528892540E+01  0.79687212653E+02 -0.10679624124E+04  0.10818319147E+04  0.15294330000E+03 0.  0.
<mgrwt>
<rscale>  0 0.47390248E+03</rscale>
<asrwt>0</asrwt>
<pdfrwt beam="1">  1        2 0.20465550E+00 0.66350217E+03</pdfrwt>
<pdfrwt beam="2">  1       -2 0.67372821E-01 0.66350217E+03</pdfrwt>
<totfact> 0.33051345E+01</totfact>
</mgrwt>
</event>
<event>
 4    5  0.2295023E-007  0.6859429E+03  0.7818608E-02  0.1006144E+00
         -2   -1    0    0    0  501 -0.00000000000E+00  0.00000000000E+00  0.76903702539E+03  0.76903702539E+03  0.25500000000E-02 0.  1.
          2   -1    0    0  501    0  0.00000000000E+00 -0.00000000000E+00 -0.12563590776E+04  0.12563590776E+04  0.25500000000E-02 0. -1.
    8880023    1    1    2    0    0 -0.94816442647E+02 -0.16648523745E+03  0.59966510923E+03  0.91110698690E+03  0.65864270000E+03 0.  1.
    8880022    1    1    2    0    0  0.94816442647E+02  0.16648523745E+03 -0.10869871614E+04  0.11142891161E+04  0.15294330000E+03 0.  0.
<mgrwt>
<rscale>  0 0.53036459E+03</rscale>
<asrwt>0</asrwt>
<pdfrwt beam="1">  1        2 0.19328601E+00 0.68594293E+03</pdfrwt>
<pdfrwt beam="2">  1       -2 0.11831339E+00 0.68594293E+03</pdfrwt>
<totfact> 0.99284608E+00</totfact>
</mgrwt>
</event>
<event>
 4    5  0.2295023E-007  0.9598442E+03  0.7818608E-02  0.9436090E-01
          2   -1    0    0  501    0  0.00000000000E+00  0.00000000000E+00  0.19604795108E+04  0.19604795108E+04  0.25500000000E-02 0. -1.
         -2   -1    0    0    0  501 -0.00000000000E+00 -0.00000000000E+00 -0.10182875692E+04  0.10182875692E+04  0.25500000000E-02 0.  1.
    8880023    1    1    2    0    0  0.50830123393E+03  0.47866535101E+03 -0.69985820135E+03  0.11878982999E+04  0.65864270000E+03 0.  0.
    8880022    1    1    2    0    0 -0.50830123393E+03 -0.47866535101E+03  0.16420501429E+04  0.17908687801E+04  0.15294330000E+03 0.  0.
<mgrwt>
<rscale>  0 0.89164230E+03</rscale>
<asrwt>0</asrwt>
<pdfrwt beam="1">  1        2 0.30161223E+00 0.95984419E+03</pdfrwt>
<pdfrwt beam="2">  1       -2 0.15665963E+00 0.95984419E+03</pdfrwt>
<totfact> 0.18798447E+00</totfact>
</mgrwt>
</event>
<event>
 4    5  0.2295023E-007  0.7449691E+03  0.7818608E-02  0.9845702E-01
         -2   -1    0    0    0  501 -0.00000000000E+00  0.00000000000E+00  0.68084159708E+03  0.68084159708E+03  0.25500000000E-02 0.  1.
          2   -1    0    0  501    0  0.00000000000E+00 -0.00000000000E+00 -0.13201909019E+04  0.13201909019E+04  0.25500000000E-02 0. -1.
    8880023    1    1    2    0    0  0.29572150929E+03 -0.18362331299E+03  0.43411281246E+03  0.86222553449E+03  0.65864270000E+03 0.  1.
    8880022    1    1    2    0    0 -0.29572150929E+03  0.18362331299E+03 -0.10734621173E+04  0.11388069645E+04  0.15294330000E+03 0.  0.
<mgrwt>
<rscale>  0 0.62966543E+03</rscale>
<asrwt>0</asrwt>
<pdfrwt beam="1">  1        2 0.20310629E+00 0.74496909E+03</pdfrwt>
<pdfrwt beam="2">  1       -2 0.10474486E+00 0.74496909E+03</pdfrwt>
<totfact> 0.12158913E+01</totfact>
</mgrwt>
</event>
<event>
 4    5  0.2295023E-007  0.8090609E+03  0.7818608E-02  0.9691536E-01
         -2   -1    0    0    0  501 -0.00000000000E+00  0.00000000000E+00  0.49586392835E+03  0.49586392835E+03  0.25500000000E-02 0.  1.
          2   -1    0    0  501    0  0.00000000000E+00 -0.00000000000E+00 -0.19692781502E+04  0.19692781502E+04  0.25500000000E-02 0. -1.
    8880023    1    1    2    0    0  0.34780354396E+03 -0.31591451835E+03  0.10069168441E+03  0.81530258780E+03  0.65864270000E+03 0.  1.
    8880022    1    1    2    0    0 -0.34780354396E+03  0.31591451835E+03 -0.15741059062E+04  0.16498394907E+04  0.15294330000E+03 0.  0.
<mgrwt>
<rscale>  0 0.71522951E+03</rscale>
<asrwt>0</asrwt>
<pdfrwt beam="1">  1        2 0.30296587E+00 0.80906087E+03</pdfrwt>
<pdfrwt beam="2">  1       -2 0.76286759E-01 0.80906087E+03</pdfrwt>
<totfact> 0.10961139E+01</totfact>
</mgrwt>
</event>
<event>
 4    5  0.2295023E-007  0.1029687E+04  0.7818608E-02  0.9343708E-01
         -2   -1    0    0    0  501 -0.00000000000E+00  0.00000000000E+00  0.84176889843E+03  0.84176889843E+03  0.25500000000E-02 0.  1.
          2   -1    0    0  501    0  0.00000000000E+00 -0.00000000000E+00 -0.31727401660E+04  0.31727401660E+04  0.25500000000E-02 0. -1.
    8880023    1    1    2    0    0 -0.60162747713E+03  0.51428582673E+03  0.44656784604E+03  0.11223540351E+04  0.65864270000E+03 0.  1.
    8880022    1    1    2    0    0  0.60162747713E+03 -0.51428582673E+03 -0.27775391136E+04  0.28921550293E+04  0.15294330000E+03 0.  0.
<mgrwt>
<rscale>  0 0.96856675E+03</rscale>
<asrwt>0</asrwt>
<pdfrwt beam="1">  1        2 0.48811387E+00 0.10296872E+04</pdfrwt>
<pdfrwt beam="2">  1       -2 0.12950291E+00 0.10296872E+04</pdfrwt>
<totfact> 0.60227774E-01</totfact>
</mgrwt>
</event>
<event>
 4    5  0.2295023E-007  0.1779364E+04  0.7818608E-02  0.8734038E-01
          2   -1    0    0  501    0  0.00000000000E+00  0.00000000000E+00  0.20007275897E+04  0.20007275897E+04  0.25500000000E-02 0. -1.
         -2   -1    0    0    0  501 -0.00000000000E+00 -0.00000000000E+00 -0.15873113434E+04  0.15873113434E+04  0.25500000000E-02 0.  1.
    8880023    1    1    2    0    0 -0.16228551194E+04 -0.31411321512E+03 -0.25682734996E+03  0.17978031996E+04  0.65864270000E+03 0.  0.
    8880022    1    1    2    0    0  0.16228551194E+04  0.31411321512E+03  0.67024359618E+03  0.17902357335E+04  0.15294330000E+03 0.  0.
<mgrwt>
<rscale>  0 0.17487508E+04</rscale>
<asrwt>0</asrwt>
<pdfrwt beam="1">  1        2 0.30780424E+00 0.17793639E+04</pdfrwt>
<pdfrwt beam="2">  1       -2 0.24420175E+00 0.17793639E+04</pdfrwt>
<totfact> 0.42477723E-01</totfact>
</mgrwt>
</event>
<event>
 4    5  0.2295023E-007  0.7180403E+03  0.7818608E-02  0.9929274E-01
          2   -1    0    0  501    0  0.00000000000E+00  0.00000000000E+00  0.16325154762E+04  0.16325154762E+04  0.25500000000E-02 0. -1.
         -2   -1    0    0    0  501 -0.00000000000E+00 -0.00000000000E+00 -0.85309305260E+03  0.85309305260E+03  0.25500000000E-02 0.  1.
    8880023    1    1    2    0    0  0.18379403721E+02 -0.28536607121E+03 -0.68099844213E+03  0.98961643152E+03  0.65864270000E+03 0.  1.
    8880022    1    1    2    0    0 -0.18379403721E+02  0.28536607121E+03  0.14604208657E+04  0.14959920973E+04  0.15294330000E+03 0.  0.
<mgrwt>
<rscale>  0 0.58863298E+03</rscale>
<asrwt>0</asrwt>
<pdfrwt beam="1">  1        2 0.25115623E+00 0.71804025E+03</pdfrwt>
<pdfrwt beam="2">  1       -2 0.13124508E+00 0.71804025E+03</pdfrwt>
<totfact> 0.46853440E+00</totfact>
</mgrwt>
</event>
<event>
 4    5  0.2295023E-007  0.1546474E+04  0.7818608E-02  0.8877498E-01
          2   -1    0    0  501    0  0.00000000000E+00  0.00000000000E+00  0.44616124824E+04  0.44616124824E+04  0.25500000000E-02 0. -1.
         -2   -1    0    0    0  501 -0.00000000000E+00 -0.00000000000E+00 -0.17813226379E+04  0.17813226380E+04  0.25500000000E-02 0.  1.
    8880023    1    1    2    0    0  0.11961306213E+04  0.72597726695E+03 -0.13005106528E+04  0.20206210975E+04  0.65864270000E+03 0.  0.
    8880022    1    1    2    0    0 -0.11961306213E+04 -0.72597726695E+03  0.39808004973E+04  0.42223140229E+04  0.15294330000E+03 0.  0.
<mgrwt>
<rscale>  0 0.15105044E+04</rscale>
<asrwt>0</asrwt>
<pdfrwt beam="1">  1        2 0.68640191E+00 0.15464739E+04</pdfrwt>
<pdfrwt beam="2">  1       -2 0.27404964E+00 0.15464739E+04</pdfrwt>
<totfact> 0.58657167E-03</totfact>
</mgrwt>
</event>
<event>
 4    5  0.2295023E-007  0.9962058E+03  0.7818608E-02  0.9386539E-01
         -2   -1    0    0    0  501 -0.00000000000E+00  0.00000000000E+00  0.37110404869E+03  0.37110404869E+03  0.25500000000E-02 0.  1.
          2   -1    0    0  501    0  0.00000000000E+00 -0.00000000000E+00 -0.34142846669E+04  0.34142846669E+04  0.25500000000E-02 0. -1.
    8880023    1    1    2    0    0 -0.22924687847E+03 -0.71138010916E+03 -0.28195910510E+04  0.29904046034E+04  0.65864270000E+03 0.  0.
    8880022    1    1    2    0    0  0.22924687847E+03  0.71138010916E+03 -0.22358956718E+03  0.79498411215E+03  0.15294330000E+03 0.  0.
<mgrwt>
<rscale>  0 0.93191836E+03</rscale>
<asrwt>0</asrwt>
<pdfrwt beam="1">  1        2 0.52527455E+00 0.99620580E+03</pdfrwt>
<pdfrwt beam="2">  1       -2 0.57092933E-01 0.99620580E+03</pdfrwt>
<totfact> 0.27740724E+00</totfact>
</mgrwt>
</event>
<event>
 4    5  0.2295023E-007  0.6976612E+03  0.7818608E-02  0.1000704E+00
         -2   -1    0    0    0  501 -0.00000000000E+00  0.00000000000E+00  0.62715746772E+03  0.62715746772E+03  0.25500000000E-02 0.  1.
          2   -1    0    0  501    0  0.00000000000E+00 -0.00000000000E+00 -0.52871062074E+03  0.52871062075E+03  0.25500000000E-02 0. -1.
    8880023    1    1    2    0    0  0.20569375441E+03  0.10301010638E+03  0.35152705771E+03  0.78121858733E+03  0.65864270000E+03 0.  0.
    8880022    1    1    2    0    0 -0.20569375441E+03 -0.10301010638E+03 -0.25308021074E+03  0.37464950114E+03  0.15294330000E+03 0.  0.
<mgrwt>
<rscale>  0 0.55342404E+03</rscale>
<asrwt>0</asrwt>
<pdfrwt beam="1">  1        2 0.81340095E-01 0.69766124E+03</pdfrwt>
<pdfrwt beam="2">  1       -2 0.96485764E-01 0.69766124E+03</pdfrwt>
<totfact> 0.52644068E+01</totfact>
</mgrwt>
</event>
<event>
 4    5  0.2295023E-007  0.1607582E+04  0.7818608E-02  0.8837181E-01
         -2   -1    0    0    0  501 -0.00000000000E+00  0.00000000000E+00  0.67819645466E+03  0.67819645466E+03  0.25500000000E-02 0.  1.
          2   -1    0    0  501    0  0.00000000000E+00 -0.00000000000E+00 -0.36079595441E+04  0.36079595441E+04  0.25500000000E-02 0. -1.
    8880023    1    1    2    0    0  0.14083081232E+04  0.40887435969E+03 -0.11584432475E+04  0.19814921085E+04  0.65864270000E+03 0.  0.
    8880022    1    1    2    0    0 -0.14083081232E+04 -0.40887435969E+03 -0.17713198419E+04  0.23046638903E+04  0.15294330000E+03 0.  0.
<mgrwt>
<rscale>  0 0.15732033E+04</rscale>
<asrwt>0</asrwt>
<pdfrwt beam="1">  1        2 0.55507069E+00 0.16075821E+04</pdfrwt>
<pdfrwt beam="2">  1       -2 0.10433792E+00 0.16075821E+04</pdfrwt>
<totfact> 0.48346167E-01</totfact>
</mgrwt>
</event>
<event>
 4    5  0.2295023E-007  0.8740435E+03  0.7818608E-02  0.9569055E-01
          2   -1    0    0  501    0  0.00000000000E+00  0.00000000000E+00  0.95590760823E+03  0.95590760823E+03  0.25500000000E-02 0. -1.
         -2   -1    0    0    0  501 -0.00000000000E+00 -0.00000000000E+00 -0.79889508049E+03  0.79889508049E+03  0.25500000000E-02 0.  1.
    8880023    1    1    2    0    0 -0.22661087842E+03  0.52800497982E+03 -0.38049671951E+03  0.95327315537E+03  0.65864270000E+03 0.  1.
    8880022    1    1    2    0    0  0.22661087842E+03 -0.52800497982E+03  0.53750924725E+03  0.80152953335E+03  0.15294330000E+03 0.  0.
<mgrwt>
<rscale>  0 0.79378625E+03</rscale>
<asrwt>0</asrwt>
<pdfrwt beam="1">  1        2 0.14706271E+00 0.87404345E+03</pdfrwt>
<pdfrwt beam="2">  1       -2 0.12290694E+00 0.87404345E+03</pdfrwt>
<totfact> 0.13508572E+01</totfact>
</mgrwt>
</event>
<event>
 4    5  0.2295023E-007  0.1345758E+04  0.7818608E-02  0.9027019E-01
          2   -1    0    0  501    0  0.00000000000E+00  0.00000000000E+00  0.31542389671E+04  0.31542389671E+04  0.25500000000E-02 0. -1.
         -2   -1    0    0    0  501 -0.00000000000E+00 -0.00000000000E+00 -0.75791878288E+03  0.75791878288E+03  0.25500000000E-02 0.  1.
    8880023    1    1    2    0    0 -0.10476889665E+04  0.52877378948E+03  0.12569635728E+03  0.13516152084E+04  0.65864270000E+03 0.  0.
    8880022    1    1    2    0    0  0.10476889665E+04 -0.52877378948E+03  0.22706238270E+04  0.25605425416E+04  0.15294330000E+03 0.  0.
<mgrwt>
<rscale>  0 0.13032154E+04</rscale>
<asrwt>0</asrwt>
<pdfrwt beam="1">  1        2 0.48526753E+00 0.13457578E+04</pdfrwt>
<pdfrwt beam="2">  1       -2 0.11660289E+00 0.13457578E+04</pdfrwt>
<totfact> 0.76954279E-01</totfact>
</mgrwt>
</event>
<event>
 4    5  0.2295023E-007  0.8732711E+03  0.7818608E-02  0.9570379E-01
         -2   -1    0    0    0  501 -0.00000000000E+00  0.00000000000E+00  0.20151945561E+04  0.20151945561E+04  0.25500000000E-02 0.  1.
          2   -1    0    0  501    0  0.00000000000E+00 -0.00000000000E+00 -0.68269052197E+03  0.68269052197E+03  0.25500000000E-02 0. -1.
    8880023    1    1    2    0    0  0.56728355057E+03 -0.83555652117E+02  0.17611828674E+04  0.19657994486E+04  0.65864270000E+03 0.  1.
    8880022    1    1    2    0    0 -0.56728355057E+03  0.83555652117E+02 -0.42867883323E+03  0.73208562943E+03  0.15294330000E+03 0.  0.
<mgrwt>
<rscale>  0 0.79288095E+03</rscale>
<asrwt>0</asrwt>
<pdfrwt beam="1">  1        2 0.10502931E+00 0.87327108E+03</pdfrwt>
<pdfrwt beam="2">  1       -2 0.31002993E+00 0.87327108E+03</pdfrwt>
<totfact> 0.11954274E+00</totfact>
</mgrwt>
</event>
<event>
 4    5  0.2453070E-007  0.1069087E+04  0.7818608E-02  0.9296281E-01
         -2   -1    0    0    0  501 -0.00000000000E+00  0.00000000000E+00  0.18092824719E+04  0.18092824719E+04  0.25500000000E-02 0.  1.
          2   -1    0    0  501    0  0.00000000000E+00 -0.00000000000E+00 -0.28677250086E+04  0.28677250086E+04  0.25500000000E-02 0. -1.
    8880023    1    1    2    0    0  0.40633568050E+03 -0.73758194510E+03  0.15774770772E+04  0.19056179959E+04  0.65864270000E+03 0.  0.
    8880022    1    1    2    0    0 -0.40633568050E+03  0.73758194510E+03 -0.26359196139E+04  0.27713894846E+04  0.15294330000E+03 0.  0.
<mgrwt>
<rscale>  0 0.10112595E+04</rscale>
<asrwt>0</asrwt>
<pdfrwt beam="1">  1        2 0.44118846E+00 0.10690865E+04</pdfrwt>
<pdfrwt beam="2">  1       -2 0.27835115E+00 0.10690865E+04</pdfrwt>
<totfact> 0.91417881E-02</totfact>
</mgrwt>
</event>
<event>
 4    5  0.2295023E-007  0.8560416E+03  0.7818608E-02  0.9600644E-01
         -2   -1    0    0    0  501 -0.00000000000E+00  0.00000000000E+00  0.25300061529E+03  0.25300061531E+03  0.25500000000E-02 0.  1.
          2   -1    0    0  501    0  0.00000000000E+00 -0.00000000000E+00 -0.21382420398E+04  0.21382420398E+04  0.25500000000E-02 0. -1.
    8880023    1    1    2    0    0 -0.54202634425E+03  0.72141445921E+02 -0.14159819093E+04  0.16546334699E+04  0.65864270000E+03 0.  0.
    8880022    1    1    2    0    0  0.54202634425E+03 -0.72141445921E+02 -0.46925951523E+03  0.73660918520E+03  0.15294330000E+03 0. -1.
<mgrwt>
<rscale>  0 0.77253577E+03</rscale>
<asrwt>0</asrwt>
<pdfrwt beam="1">  1        2 0.32896030E+00 0.85604156E+03</pdfrwt>
<pdfrwt beam="2">  1       -2 0.38923173E-01 0.85604156E+03</pdfrwt>
<totfact> 0.35629614E+01</totfact>
</mgrwt>
</event>
<event>
 4    5  0.2295023E-007  0.1907648E+04  0.7818608E-02  0.8665216E-01
         -2   -1    0    0    0  501 -0.00000000000E+00  0.00000000000E+00  0.20062417739E+04  0.20062417739E+04  0.25500000000E-02 0.  1.
          2   -1    0    0  501    0  0.00000000000E+00 -0.00000000000E+00 -0.22883507659E+04  0.22883507659E+04  0.25500000000E-02 0. -1.
    8880023    1    1    2    0    0  0.17186454979E+04  0.50156742422E+03  0.93486178048E+03  0.21244032064E+04  0.65864270000E+03 0.  0.
    8880022    1    1    2    0    0 -0.17186454979E+04 -0.50156742422E+03 -0.12169707725E+04  0.21701893334E+04  0.15294330000E+03 0.  0.
<mgrwt>
<rscale>  0 0.18793267E+04</rscale>
<asrwt>0</asrwt>
<pdfrwt beam="1">  1        2 0.35205396E+00 0.19076484E+04</pdfrwt>
<pdfrwt beam="2">  1       -2 0.30865258E+00 0.19076484E+04</pdfrwt>
<totfact> 0.11595880E-01</totfact>
</mgrwt>
</event>
<event>
 4    5  0.2295023E-007  0.8005970E+03  0.7818608E-02  0.9709507E-01
         -2   -1    0    0    0  501 -0.00000000000E+00  0.00000000000E+00  0.41427333597E+03  0.41427333598E+03  0.25500000000E-02 0.  1.
          2   -1    0    0  501    0  0.00000000000E+00 -0.00000000000E+00 -0.23088133199E+04  0.23088133199E+04  0.25500000000E-02 0. -1.
    8880023    1    1    2    0    0  0.14487455133E+03 -0.43145879125E+03 -0.33705991360E+02  0.80130619883E+03  0.65864270000E+03 0.  0.
    8880022    1    1    2    0    0 -0.14487455133E+03  0.43145879125E+03 -0.18608339926E+04  0.19217804571E+04  0.15294330000E+03 0.  0.
<mgrwt>
<rscale>  0 0.70453575E+03</rscale>
<asrwt>0</asrwt>
<pdfrwt beam="1">  1        2 0.35520204E+00 0.80059698E+03</pdfrwt>
<pdfrwt beam="2">  1       -2 0.63734361E-01 0.80059698E+03</pdfrwt>
<totfact> 0.10564105E+01</totfact>
</mgrwt>
</event>
<event>
 4    5  0.2295023E-007  0.8249413E+03  0.7818608E-02  0.9659256E-01
          2   -1    0    0  501    0  0.00000000000E+00  0.00000000000E+00  0.60642103565E+03  0.60642103565E+03  0.25500000000E-02 0. -1.
         -2   -1    0    0    0  501 -0.00000000000E+00 -0.00000000000E+00 -0.24103063208E+04  0.24103063208E+04  0.25500000000E-02 0.  1.
    8880023    1    1    2    0    0  0.35329183110E+03  0.34914588306E+03 -0.22088442372E+04  0.23578636593E+04  0.65864270000E+03 0.  1.
    8880022    1    1    2    0    0 -0.35329183110E+03 -0.34914588306E+03  0.40495895202E+03  0.65886369714E+03  0.15294330000E+03 0.  0.
<mgrwt>
<rscale>  0 0.73495339E+03</rscale>
<asrwt>0</asrwt>
<pdfrwt beam="1">  1        2 0.93295545E-01 0.82494131E+03</pdfrwt>
<pdfrwt beam="2">  1       -2 0.37081635E+00 0.82494131E+03</pdfrwt>
<totfact> 0.58682580E-01</totfact>
</mgrwt>
</event>
<event>
 4    5  0.2295023E-007  0.1373708E+04  0.7818608E-02  0.9004386E-01
         -2   -1    0    0    0  501 -0.00000000000E+00  0.00000000000E+00  0.12814265426E+04  0.12814265426E+04  0.25500000000E-02 0.  1.
          2   -1    0    0  501    0  0.00000000000E+00 -0.00000000000E+00 -0.20250298801E+04  0.20250298801E+04  0.25500000000E-02 0. -1.
    8880023    1    1    2    0    0  0.26938901742E+03  0.11750291659E+04  0.59633777934E+03  0.14975623315E+04  0.65864270000E+03 0.  0.
    8880022    1    1    2    0    0 -0.26938901742E+03 -0.11750291659E+04 -0.13399411169E+04  0.18088940912E+04  0.15294330000E+03 0.  0.
<mgrwt>
<rscale>  0 0.13322348E+04</rscale>
<asrwt>0</asrwt>
<pdfrwt beam="1">  1        2 0.31154306E+00 0.13737082E+04</pdfrwt>
<pdfrwt beam="2">  1       -2 0.19714255E+00 0.13737082E+04</pdfrwt>
<totfact> 0.85557140E-01</totfact>
</mgrwt>
</event>
<event>
 4    5  0.2295023E-007  0.1081913E+04  0.7818608E-02  0.9281466E-01
         -2   -1    0    0    0  501 -0.00000000000E+00  0.00000000000E+00  0.48899580795E+03  0.48899580796E+03  0.25500000000E-02 0.  1.
          2   -1    0    0  501    0  0.00000000000E+00 -0.00000000000E+00 -0.22824075834E+04  0.22824075834E+04  0.25500000000E-02 0. -1.
    8880023    1    1    2    0    0  0.25430475936E+03 -0.81978885283E+03 -0.45415972413E+03  0.11733694794E+04  0.65864270000E+03 0.  0.
    8880022    1    1    2    0    0 -0.25430475936E+03  0.81978885283E+03 -0.13392520514E+04  0.15980339120E+04  0.15294330000E+03 0.  1.
<mgrwt>
<rscale>  0 0.10250715E+04</rscale>
<asrwt>0</asrwt>
<pdfrwt beam="1">  1        2 0.35113962E+00 0.10819126E+04</pdfrwt>
<pdfrwt beam="2">  1       -2 0.75230126E-01 0.10819126E+04</pdfrwt>
<totfact> 0.73363914E+00</totfact>
</mgrwt>
</event>
<event>
 4    5  0.2295023E-007  0.7512019E+03  0.7818608E-02  0.9828442E-01
         -2   -1    0    0    0  501 -0.00000000000E+00  0.00000000000E+00  0.18817343680E+03  0.18817343681E+03  0.25500000000E-02 0.  1.
          2   -1    0    0  501    0  0.00000000000E+00 -0.00000000000E+00 -0.18292537128E+04  0.18292537128E+04  0.25500000000E-02 0. -1.
    8880023    1    1    2    0    0  0.23494457800E+02  0.36047475119E+03 -0.84965539795E+03  0.11341157513E+04  0.65864270000E+03 0.  0.
    8880022    1    1    2    0    0 -0.23494457800E+02 -0.36047475119E+03 -0.79142487806E+03  0.88331139833E+03  0.15294330000E+03 0.  0.
<mgrwt>
<rscale>  0 0.63858288E+03</rscale>
<asrwt>0</asrwt>
<pdfrwt beam="1">  1        2 0.28142364E+00 0.75120187E+03</pdfrwt>
<pdfrwt beam="2">  1       -2 0.28949761E-01 0.75120187E+03</pdfrwt>
<totfact> 0.93176745E+01</totfact>
</mgrwt>
</event>
<event>
 4    5  0.2295023E-007  0.7698519E+03  0.7818608E-02  0.9780239E-01
         -2   -1    0    0    0  501 -0.00000000000E+00  0.00000000000E+00  0.92143517614E+03  0.92143517615E+03  0.25500000000E-02 0.  1.
          2   -1    0    0  501    0  0.00000000000E+00 -0.00000000000E+00 -0.18899450253E+04  0.18899450253E+04  0.25500000000E-02 0. -1.
    8880023    1    1    2    0    0  0.24569326242E+03  0.31384159189E+03  0.72946387407E+03  0.10605609241E+04  0.65864270000E+03 0.  0.
    8880022    1    1    2    0    0 -0.24569326242E+03 -0.31384159189E+03 -0.16979737232E+04  0.17508192773E+04  0.15294330000E+03 0.  0.
<mgrwt>
<rscale>  0 0.66433913E+03</rscale>
<asrwt>0</asrwt>
<pdfrwt beam="1">  1        2 0.29076077E+00 0.76985189E+03</pdfrwt>
<pdfrwt beam="2">  1       -2 0.14175926E+00 0.76985189E+03</pdfrwt>
<totfact> 0.27573715E+00</totfact>
</mgrwt>
</event>
<event>
 4    5  0.2295023E-007  0.1878061E+04  0.7818608E-02  0.8680542E-01
          2   -1    0    0  501    0  0.00000000000E+00  0.00000000000E+00  0.31897926272E+04  0.31897926272E+04  0.25500000000E-02 0. -1.
         -2   -1    0    0    0  501 -0.00000000000E+00 -0.00000000000E+00 -0.17110609118E+04  0.17110609118E+04  0.25500000000E-02 0.  1.
    8880023    1    1    2    0    0  0.14376999486E+04  0.10130753299E+04 -0.78038733333E+03  0.20337446650E+04  0.65864270000E+03 0.  0.
    8880022    1    1    2    0    0 -0.14376999486E+04 -0.10130753299E+04  0.22591190487E+04  0.28671088740E+04  0.15294330000E+03 0.  0.
<mgrwt>
<rscale>  0 0.18492432E+04</rscale>
<asrwt>0</asrwt>
<pdfrwt beam="1">  1        2 0.49073733E+00 0.18780610E+04</pdfrwt>
<pdfrwt beam="2">  1       -2 0.26324014E+00 0.18780610E+04</pdfrwt>
<totfact> 0.63069528E-02</totfact>
</mgrwt>
</event>
<event>
 4    5  0.2295023E-007  0.1254971E+04  0.7818608E-02  0.9105455E-01
          2   -1    0    0  501    0  0.00000000000E+00  0.00000000000E+00  0.23521635937E+04  0.23521635938E+04  0.25500000000E-02 0. -1.
         -2   -1    0    0    0  501 -0.00000000000E+00 -0.00000000000E+00 -0.88757303632E+03  0.88757303633E+03  0.25500000000E-02 0.  1.
    8880023    1    1    2    0    0 -0.77913717332E+03  0.73081238745E+03 -0.18498980410E+03  0.12685317948E+04  0.65864270000E+03 0.  0.
    8880022    1    1    2    0    0  0.77913717332E+03 -0.73081238745E+03  0.16495803615E+04  0.19712048353E+04  0.15294330000E+03 0.  0.
<mgrwt>
<rscale>  0 0.12084932E+04</rscale>
<asrwt>0</asrwt>
<pdfrwt beam="1">  1        2 0.36187132E+00 0.12549708E+04</pdfrwt>
<pdfrwt beam="2">  1       -2 0.13654970E+00 0.12549708E+04</pdfrwt>
<totfact> 0.15751815E+00</totfact>
</mgrwt>
</event>
<event>
 4    5  0.2295023E-007  0.8791264E+03  0.7818608E-02  0.9560407E-01
          2   -1    0    0  501    0  0.00000000000E+00  0.00000000000E+00  0.11707264495E+04  0.11707264495E+04  0.25500000000E-02 0. -1.
         -2   -1    0    0    0  501 -0.00000000000E+00 -0.00000000000E+00 -0.93763669666E+03  0.93763669666E+03  0.25500000000E-02 0.  1.
    8880023    1    1    2    0    0  0.53924310371E+02 -0.57978034217E+03 -0.61170300653E+03  0.10710013309E+04  0.65864270000E+03 0.  1.
    8880022    1    1    2    0    0 -0.53924310371E+02  0.57978034217E+03  0.84479275938E+03  0.10373618152E+04  0.15294330000E+03 0.  0.
<mgrwt>
<rscale>  0 0.79973062E+03</rscale>
<asrwt>0</asrwt>
<pdfrwt beam="1">  1        2 0.18011176E+00 0.87912643E+03</pdfrwt>
<pdfrwt beam="2">  1       -2 0.14425180E+00 0.87912643E+03</pdfrwt>
<totfact> 0.65796755E+00</totfact>
</mgrwt>
</event>
<event>
 4    5  0.2295023E-007  0.1095638E+04  0.7818608E-02  0.9265928E-01
         -2   -1    0    0    0  501 -0.00000000000E+00  0.00000000000E+00  0.49950833863E+03  0.49950833863E+03  0.25500000000E-02 0.  1.
          2   -1    0    0  501    0  0.00000000000E+00 -0.00000000000E+00 -0.19999428012E+04  0.19999428012E+04  0.25500000000E-02 0. -1.
    8880023    1    1    2    0    0 -0.47123392678E+03  0.73793708265E+03 -0.67768190838E+03  0.12882839465E+04  0.65864270000E+03 0.  0.
    8880022    1    1    2    0    0  0.47123392678E+03 -0.73793708265E+03 -0.82275255422E+03  0.12111671933E+04  0.15294330000E+03 0.  0.
<mgrwt>
<rscale>  0 0.10398100E+04</rscale>
<asrwt>0</asrwt>
<pdfrwt beam="1">  1        2 0.30768350E+00 0.10956381E+04</pdfrwt>
<pdfrwt beam="2">  1       -2 0.76847438E-01 0.10956381E+04</pdfrwt>
<totfact> 0.10028900E+01</totfact>
</mgrwt>
</event>
<event>
 4    5  0.2295023E-007  0.9913267E+03  0.7818608E-02  0.9392994E-01
         -2   -1    0    0    0  501 -0.00000000000E+00  0.00000000000E+00  0.32576767856E+03  0.32576767857E+03  0.25500000000E-02 0.  1.
          2   -1    0    0  501    0  0.00000000000E+00 -0.00000000000E+00 -0.24324127065E+04  0.24324127065E+04  0.25500000000E-02 0. -1.
    8880023    1    1    2    0    0 -0.31102698789E+03  0.67244376341E+03 -0.14497272059E+04  0.17562566954E+04  0.65864270000E+03 0. -1.
    8880022    1    1    2    0    0  0.31102698789E+03 -0.67244376341E+03 -0.65691782208E+03  0.10019236898E+04  0.15294330000E+03 0.  0.
<mgrwt>
<rscale>  0 0.92654501E+03</rscale>
<asrwt>0</asrwt>
<pdfrwt beam="1">  1        2 0.37421733E+00 0.99132669E+03</pdfrwt>
<pdfrwt beam="2">  1       -2 0.50118106E-01 0.99132669E+03</pdfrwt>
<totfact> 0.14514414E+01</totfact>
</mgrwt>
</event>
<event>
 4    5  0.2295023E-007  0.8759080E+03  0.7818608E-02  0.9565870E-01
          2   -1    0    0  501    0  0.00000000000E+00  0.00000000000E+00  0.15573071510E+04  0.15573071510E+04  0.25500000000E-02 0. -1.
         -2   -1    0    0    0  501 -0.00000000000E+00 -0.00000000000E+00 -0.86376372050E+03  0.86376372050E+03  0.25500000000E-02 0.  1.
    8880023    1    1    2    0    0  0.40379027465E+03 -0.41274442846E+03 -0.55504217023E+03  0.10369602529E+04  0.65864270000E+03 0.  1.
    8880022    1    1    2    0    0 -0.40379027465E+03  0.41274442846E+03  0.12485856007E+04  0.13841106186E+04  0.15294330000E+03 0.  0.
<mgrwt>
<rscale>  0 0.79596942E+03</rscale>
<asrwt>0</asrwt>
<pdfrwt beam="1">  1        2 0.23958571E+00 0.87590796E+03</pdfrwt>
<pdfrwt beam="2">  1       -2 0.13288673E+00 0.87590796E+03</pdfrwt>
<totfact> 0.48821921E+00</totfact>
</mgrwt>
</event>
<event>
 4    5  0.2295023E-007  0.1630025E+04  0.7818608E-02  0.8822890E-01
          2   -1    0    0  501    0  0.00000000000E+00  0.00000000000E+00  0.26905447771E+04  0.26905447771E+04  0.25500000000E-02 0. -1.
         -2   -1    0    0    0  501 -0.00000000000E+00 -0.00000000000E+00 -0.12679994788E+04  0.12679994788E+04  0.25500000000E-02 0.  1.
    8880023    1    1    2    0    0 -0.80007437616E+03 -0.12581936776E+04 -0.31886617893E+03  0.16609202823E+04  0.65864270000E+03 0.  0.
    8880022    1    1    2    0    0  0.80007437616E+03  0.12581936776E+04  0.17414114773E+04  0.22976239736E+04  0.15294330000E+03 0.  0.
<mgrwt>
<rscale>  0 0.15961931E+04</rscale>
<asrwt>0</asrwt>
<pdfrwt beam="1">  1        2 0.41392996E+00 0.16300247E+04</pdfrwt>
<pdfrwt beam="2">  1       -2 0.19507685E+00 0.16300247E+04</pdfrwt>
<totfact> 0.35767044E-01</totfact>
</mgrwt>
</event>
<event>
 4    5  0.2295023E-007  0.9248629E+03  0.7818608E-02  0.9487243E-01
          2   -1    0    0  501    0  0.00000000000E+00  0.00000000000E+00  0.15425770321E+04  0.15425770321E+04  0.25500000000E-02 0. -1.
         -2   -1    0    0    0  501 -0.00000000000E+00 -0.00000000000E+00 -0.51398987352E+03  0.51398987352E+03  0.25500000000E-02 0.  1.
    8880023    1    1    2    0    0  0.64537481096E+03  0.71080585551E+02  0.12475489028E+03  0.93323902896E+03  0.65864270000E+03 0.  0.
    8880022    1    1    2    0    0 -0.64537481096E+03 -0.71080585551E+02  0.90383226832E+03  0.11233278767E+04  0.15294330000E+03 0.  0.
<mgrwt>
<rscale>  0 0.85230933E+03</rscale>
<asrwt>0</asrwt>
<pdfrwt beam="1">  1        2 0.23731954E+00 0.92486286E+03</pdfrwt>
<pdfrwt beam="2">  1       -2 0.79075368E-01 0.92486286E+03</pdfrwt>
<totfact> 0.17125059E+01</totfact>
</mgrwt>
</event>
<event>
 4    5  0.2295023E-007  0.7585438E+03  0.7818608E-02  0.9808892E-01
          2   -1    0    0  501    0  0.00000000000E+00  0.00000000000E+00  0.39667004272E+04  0.39667004272E+04  0.25500000000E-02 0. -1.
         -2   -1    0    0    0  501 -0.00000000000E+00 -0.00000000000E+00 -0.10880041925E+03  0.10880041928E+03  0.25500000000E-02 0.  1.
    8880023    1    1    2    0    0 -0.37950141579E+02 -0.37435044746E+03  0.32960883818E+04  0.33822458955E+04  0.65864270000E+03 0. -1.
    8880022    1    1    2    0    0  0.37950141579E+02  0.37435044746E+03  0.56181162618E+03  0.69325495100E+03  0.15294330000E+03 0.  0.
<mgrwt>
<rscale>  0 0.64887517E+03</rscale>
<asrwt>0</asrwt>
<pdfrwt beam="1">  1        2 0.61026152E+00 0.75854379E+03</pdfrwt>
<pdfrwt beam="2">  1       -2 0.16738528E-01 0.75854379E+03</pdfrwt>
<totfact> 0.11610913E+01</totfact>
</mgrwt>
</event>
<event>
 4    5  0.2295023E-007  0.8037501E+03  0.7818608E-02  0.9702745E-01
         -2   -1    0    0    0  501 -0.00000000000E+00  0.00000000000E+00  0.10915640966E+04  0.10915640966E+04  0.25500000000E-02 0.  1.
          2   -1    0    0  501    0  0.00000000000E+00 -0.00000000000E+00 -0.75893631179E+03  0.75893631179E+03  0.25500000000E-02 0. -1.
    8880023    1    1    2    0    0 -0.39177362102E+01  0.46063944774E+03  0.83010571878E+03  0.11554608432E+04  0.65864270000E+03 0.  0.
    8880022    1    1    2    0    0  0.39177362102E+01 -0.46063944774E+03 -0.49747793395E+03  0.69503956524E+03  0.15294330000E+03 0.  0.
<mgrwt>
<rscale>  0 0.70853565E+03</rscale>
<asrwt>0</asrwt>
<pdfrwt beam="1">  1        2 0.11675943E+00 0.80375012E+03</pdfrwt>
<pdfrwt beam="2">  1       -2 0.16793294E+00 0.80375012E+03</pdfrwt>
<totfact> 0.82336273E+00</totfact>
</mgrwt>
</event>
<event>
 4    5  0.2295023E-007  0.6903374E+03  0.7818608E-02  0.1003993E+00
         -2   -1    0    0    0  501 -0.00000000000E+00  0.00000000000E+00  0.23842464440E+03  0.23842464441E+03  0.25500000000E-02 0.  1.
          2   -1    0    0  501    0  0.00000000000E+00 -0.00000000000E+00 -0.38512970473E+04  0.38512970473E+04  0.25500000000E-02 0. -1.
    8880023    1    1    2    0    0 -0.11830615495E+03  0.16958511913E+03 -0.27682125867E+03  0.74377125142E+03  0.65864270000E+03 0.  1.
    8880022    1    1    2    0    0  0.11830615495E+03 -0.16958511913E+03 -0.33360511442E+04  0.33459504403E+04  0.15294330000E+03 0.  0.
<mgrwt>
<rscale>  0 0.53933660E+03</rscale>
<asrwt>0</asrwt>
<pdfrwt beam="1">  1        2 0.59250719E+00 0.69033736E+03</pdfrwt>
<pdfrwt beam="2">  1       -2 0.36680717E-01 0.69033736E+03</pdfrwt>
<totfact> 0.35020424E+00</totfact>
</mgrwt>
</event>
<event>
 4    5  0.2295023E-007  0.8063358E+03  0.7818608E-02  0.9697260E-01
          2   -1    0    0  501    0  0.00000000000E+00  0.00000000000E+00  0.17764069192E+04  0.17764069192E+04  0.25500000000E-02 0. -1.
         -2   -1    0    0    0  501 -0.00000000000E+00 -0.00000000000E+00 -0.10192652488E+04  0.10192652488E+04  0.25500000000E-02 0.  1.
    8880023    1    1    2    0    0 -0.44676420299E+03 -0.12949514261E+03 -0.81654192274E+03  0.11475705481E+04  0.65864270000E+03 0.  0.
    8880022    1    1    2    0    0  0.44676420299E+03  0.12949514261E+03  0.15736835932E+04  0.16481016199E+04  0.15294330000E+03 0.  0.
<mgrwt>
<rscale>  0 0.71180135E+03</rscale>
<asrwt>0</asrwt>
<pdfrwt beam="1">  1        2 0.27329337E+00 0.80633582E+03</pdfrwt>
<pdfrwt beam="2">  1       -2 0.15681004E+00 0.80633582E+03</pdfrwt>
<totfact> 0.24211257E+00</totfact>
</mgrwt>
</event>
<event>
 4    5  0.2295023E-007  0.8912222E+03  0.7818608E-02  0.9540272E-01
          2   -1    0    0  501    0  0.00000000000E+00  0.00000000000E+00  0.22702624401E+04  0.22702624401E+04  0.25500000000E-02 0. -1.
         -2   -1    0    0    0  501 -0.00000000000E+00 -0.00000000000E+00 -0.42653787586E+03  0.42653787587E+03  0.25500000000E-02 0.  1.
    8880023    1    1    2    0    0 -0.34556590116E+03 -0.49096948008E+03  0.16364362409E+03  0.90612155055E+03  0.65864270000E+03 0.  1.
    8880022    1    1    2    0    0  0.34556590116E+03  0.49096948008E+03  0.16800809401E+04  0.17906787654E+04  0.15294330000E+03 0.  0.
<mgrwt>
<rscale>  0 0.81378727E+03</rscale>
<asrwt>0</asrwt>
<pdfrwt beam="1">  1        2 0.34927114E+00 0.89122221E+03</pdfrwt>
<pdfrwt beam="2">  1       -2 0.65621212E-01 0.89122221E+03</pdfrwt>
<totfact> 0.10292668E+01</totfact>
</mgrwt>
</event>
<event>
 4    5  0.2295023E-007  0.1533718E+04  0.7818608E-02  0.8886186E-01
          2   -1    0    0  501    0  0.00000000000E+00  0.00000000000E+00  0.13021676497E+04  0.13021676497E+04  0.25500000000E-02 0. -1.
         -2   -1    0    0    0  501 -0.00000000000E+00 -0.00000000000E+00 -0.20711040945E+04  0.20711040945E+04  0.25500000000E-02 0.  1.
    8880023    1    1    2    0    0 -0.11478500042E+04 -0.77519037288E+03  0.36516773669E+03  0.15765904441E+04  0.65864270000E+03 0.  0.
    8880022    1    1    2    0    0  0.11478500042E+04  0.77519037288E+03 -0.11341041815E+04  0.17966813000E+04  0.15294330000E+03 0.  0.
<mgrwt>
<rscale>  0 0.14973959E+04</rscale>
<asrwt>0</asrwt>
<pdfrwt beam="1">  1        2 0.20033348E+00 0.15337177E+04</pdfrwt>
<pdfrwt beam="2">  1       -2 0.31863140E+00 0.15337177E+04</pdfrwt>
<totfact> 0.37839096E-01</totfact>
</mgrwt>
</event>
<event>
 4    5  0.2295023E-007  0.8520635E+03  0.7818608E-02  0.9607840E-01
         -2   -1    0    0    0  501 -0.00000000000E+00  0.00000000000E+00  0.15591488743E+04  0.15591488743E+04  0.25500000000E-02 0.  1.
          2   -1    0    0  501    0  0.00000000000E+00 -0.00000000000E+00 -0.72677838465E+03  0.72677838465E+03  0.25500000000E-02 0. -1.
    8880023    1    1    2    0    0  0.51022217957E+03  0.17853653288E+03  0.13004309178E+04  0.15547130746E+04  0.65864270000E+03 0.  0.
    8880022    1    1    2    0    0 -0.51022217957E+03 -0.17853653288E+03 -0.46806042810E+03  0.73121418440E+03  0.15294330000E+03 0.  0.
<mgrwt>
<rscale>  0 0.76779449E+03</rscale>
<asrwt>0</asrwt>
<pdfrwt beam="1">  1        2 0.11181206E+00 0.85206348E+03</pdfrwt>
<pdfrwt beam="2">  1       -2 0.23986906E+00 0.85206348E+03</pdfrwt>
<totfact> 0.29401635E+00</totfact>
</mgrwt>
</event>
<event>
 4    5  0.2295023E-007  0.9340330E+03  0.7818608E-02  0.9473469E-01
          2   -1    0    0  501    0  0.00000000000E+00  0.00000000000E+00  0.40042846663E+04  0.40042846663E+04  0.25500000000E-02 0. -1.
         -2   -1    0    0    0  501 -0.00000000000E+00 -0.00000000000E+00 -0.44393211613E+03  0.44393211614E+03  0.25500000000E-02 0.  1.
    8880023    1    1    2    0    0  0.59300868713E+03  0.29486982998E+03  0.12040684505E+03  0.94176193077E+03  0.65864270000E+03 0.  0.
    8880022    1    1    2    0    0 -0.59300868713E+03 -0.29486982998E+03  0.34399457051E+04  0.35064548517E+04  0.15294330000E+03 0.  0.
<mgrwt>
<rscale>  0 0.86268417E+03</rscale>
<asrwt>0</asrwt>
<pdfrwt beam="1">  1        2 0.61604382E+00 0.93403304E+03</pdfrwt>
<pdfrwt beam="2">  1       -2 0.68297246E-01 0.93403304E+03</pdfrwt>
<totfact> 0.71082010E-01</totfact>
</mgrwt>
</event>
<event>
 4    5  0.2295023E-007  0.1117673E+04  0.7818608E-02  0.9241630E-01
         -2   -1    0    0    0  501 -0.00000000000E+00  0.00000000000E+00  0.34488757778E+03  0.34488757779E+03  0.25500000000E-02 0.  1.
          2   -1    0    0  501    0  0.00000000000E+00 -0.00000000000E+00 -0.40503752272E+04  0.40503752272E+04  0.25500000000E-02 0. -1.
    8880023    1    1    2    0    0  0.24206206275E+03 -0.86993640423E+03 -0.87246233752E+03  0.14178801523E+04  0.65864270000E+03 0.  1.
    8880022    1    1    2    0    0 -0.24206206275E+03  0.86993640423E+03 -0.28330253119E+04  0.29773826527E+04  0.15294330000E+03 0. -1.
<mgrwt>
<rscale>  0 0.10633882E+04</rscale>
<asrwt>0</asrwt>
<pdfrwt beam="1">  1        2 0.62313462E+00 0.11176733E+04</pdfrwt>
<pdfrwt beam="2">  1       -2 0.53059630E-01 0.11176733E+04</pdfrwt>
<totfact> 0.10793052E+00</totfact>
</mgrwt>
</event>
<event>
 4    5  0.2295023E-007  0.7866552E+03  0.7818608E-02  0.9740430E-01
          2   -1    0    0  501    0  0.00000000000E+00  0.00000000000E+00  0.14708038634E+04  0.14708038634E+04  0.25500000000E-02 0. -1.
         -2   -1    0    0    0  501 -0.00000000000E+00 -0.00000000000E+00 -0.80821224495E+03  0.80821224495E+03  0.25500000000E-02 0.  1.
    8880023    1    1    2    0    0 -0.36336283017E+03 -0.23018187575E+03 -0.56549769923E+03  0.96882098262E+03  0.65864270000E+03 0.  0.
    8880022    1    1    2    0    0  0.36336283017E+03  0.23018187575E+03  0.12280893177E+04  0.13101951257E+04  0.15294330000E+03 0.  0.
<mgrwt>
<rscale>  0 0.68659810E+03</rscale>
<asrwt>0</asrwt>
<pdfrwt beam="1">  1        2 0.22627752E+00 0.78665523E+03</pdfrwt>
<pdfrwt beam="2">  1       -2 0.12434035E+00 0.78665523E+03</pdfrwt>
<totfact> 0.65316870E+00</totfact>
</mgrwt>
</event>
<event>
 4    5  0.2295023E-007  0.1144182E+04  0.7818608E-02  0.9213389E-01
          2   -1    0    0  501    0  0.00000000000E+00  0.00000000000E+00  0.19772414444E+04  0.19772414444E+04  0.25500000000E-02 0. -1.
         -2   -1    0    0    0  501 -0.00000000000E+00 -0.00000000000E+00 -0.14578147527E+04  0.14578147527E+04  0.25500000000E-02 0.  1.
    8880023    1    1    2    0    0  0.51502409447E+03  0.78108423406E+03 -0.10815470376E+04  0.15744512058E+04  0.65864270000E+03 0.  1.
    8880022    1    1    2    0    0 -0.51502409447E+03 -0.78108423406E+03  0.16009737293E+04  0.18606049913E+04  0.15294330000E+03 0.  0.
<mgrwt>
<rscale>  0 0.10916295E+04</rscale>
<asrwt>0</asrwt>
<pdfrwt beam="1">  1        2 0.30419099E+00 0.11441821E+04</pdfrwt>
<pdfrwt beam="2">  1       -2 0.22427919E+00 0.11441821E+04</pdfrwt>
<totfact> 0.62542897E-01</totfact>
</mgrwt>
</event>
<event>
 4    5  0.2295023E-007  0.1209564E+04  0.7818608E-02  0.9147881E-01
         -2   -1    0    0    0  501 -0.00000000000E+00  0.00000000000E+00  0.86733799840E+03  0.86733799841E+03  0.25500000000E-02 0.  1.
          2   -1    0    0  501    0  0.00000000000E+00 -0.00000000000E+00 -0.27171904115E+04  0.27171904115E+04  0.25500000000E-02 0. -1.
    8880023    1    1    2    0    0 -0.62805173657E+03  0.79673398591E+03  0.26112967665E+03  0.12374299747E+04  0.65864270000E+03 0.  0.
    8880022    1    1    2    0    0  0.62805173657E+03 -0.79673398591E+03 -0.21109820898E+04  0.23470984352E+04  0.15294330000E+03 0.  0.
<mgrwt>
<rscale>  0 0.11607957E+04</rscale>
<asrwt>0</asrwt>
<pdfrwt beam="1">  1        2 0.41802929E+00 0.12095637E+04</pdfrwt>
<pdfrwt beam="2">  1       -2 0.13343662E+00 0.12095637E+04</pdfrwt>
<totfact> 0.10338391E+00</totfact>
</mgrwt>
</event>
<event>
 4    5  0.2295023E-007  0.8066798E+03  0.7818608E-02  0.9696535E-01
         -2   -1    0    0    0  501 -0.00000000000E+00  0.00000000000E+00  0.34779617315E+03  0.34779617316E+03  0.25500000000E-02 0.  1.
          2   -1    0    0  501    0  0.00000000000E+00 -0.00000000000E+00 -0.12350331105E+04  0.12350331105E+04  0.25500000000E-02 0. -1.
    8880023    1    1    2    0    0 -0.45166287344E+03 -0.11367799037E+03 -0.43808536355E+03  0.91796025446E+03  0.65864270000E+03 0.  0.
    8880022    1    1    2    0    0  0.45166287344E+03  0.11367799037E+03 -0.44915157380E+03  0.66486902921E+03  0.15294330000E+03 0.  0.
<mgrwt>
<rscale>  0 0.71223479E+03</rscale>
<asrwt>0</asrwt>
<pdfrwt beam="1">  1        2 0.19000509E+00 0.80667976E+03</pdfrwt>
<pdfrwt beam="2">  1       -2 0.53507104E-01 0.80667976E+03</pdfrwt>
<totfact> 0.60164950E+01</totfact>
</mgrwt>
</event>
<event>
 4    5  0.2295023E-007  0.7722197E+03  0.7818608E-02  0.9774441E-01
         -2   -1    0    0    0  501 -0.00000000000E+00  0.00000000000E+00  0.17796679476E+03  0.17796679478E+03  0.25500000000E-02 0.  1.
          2   -1    0    0  501    0  0.00000000000E+00 -0.00000000000E+00 -0.23406481537E+04  0.23406481537E+04  0.25500000000E-02 0. -1.
    8880023    1    1    2    0    0  0.40310021147E+03 -0.48302088619E+01 -0.90828182823E+03  0.11921825352E+04  0.65864270000E+03 0.  0.
    8880022    1    1    2    0    0 -0.40310021147E+03  0.48302088619E+01 -0.12543995307E+04  0.13264324133E+04  0.15294330000E+03 0.  0.
<mgrwt>
<rscale>  0 0.66752416E+03</rscale>
<asrwt>0</asrwt>
<pdfrwt beam="1">  1        2 0.36009969E+00 0.77221973E+03</pdfrwt>
<pdfrwt beam="2">  1       -2 0.27379508E-01 0.77221973E+03</pdfrwt>
<totfact> 0.53951337E+01</totfact>
</mgrwt>
</event>
<event>
 4    5  0.2295023E-007  0.6734796E+03  0.7818608E-02  0.1013282E+00
         -2   -1    0    0    0  501 -0.00000000000E+00  0.00000000000E+00  0.13023842798E+03  0.13023842800E+03  0.25500000000E-02 0.  1.
          2   -1    0    0  501    0  0.00000000000E+00 -0.00000000000E+00 -0.33753944239E+04  0.33753944239E+04  0.25500000000E-02 0. -1.
    8880023    1    1    2    0    0  0.46259048527E+02  0.13275801605E+03 -0.77494043577E+03  0.10266973632E+04  0.65864270000E+03 0.  1.
    8880022    1    1    2    0    0 -0.46259048527E+02 -0.13275801605E+03 -0.24702155602E+04  0.24789354887E+04  0.15294330000E+03 0.  0.
<mgrwt>
<rscale>  0 0.50190763E+03</rscale>
<asrwt>0</asrwt>
<pdfrwt beam="1">  1        2 0.51929138E+00 0.67347962E+03</pdfrwt>
<pdfrwt beam="2">  1       -2 0.20036684E-01 0.67347962E+03</pdfrwt>
<totfact> 0.22900769E+01</totfact>
</mgrwt>
</event>
<event>
 4    5  0.2295023E-007  0.8753804E+03  0.7818608E-02  0.9566769E-01
          2   -1    0    0  501    0  0.00000000000E+00  0.00000000000E+00  0.19945330241E+04  0.19945330241E+04  0.25500000000E-02 0. -1.
         -2   -1    0    0    0  501 -0.00000000000E+00 -0.00000000000E+00 -0.10009445786E+04  0.10009445786E+04  0.25500000000E-02 0.  1.
    8880023    1    1    2    0    0 -0.25023187983E+03 -0.51948494975E+03 -0.74995562109E+03  0.11527030175E+04  0.65864270000E+03 0.  1.
    8880022    1    1    2    0    0  0.25023187983E+03  0.51948494975E+03  0.17435440666E+04  0.18427745852E+04  0.15294330000E+03 0.  0.
<mgrwt>
<rscale>  0 0.79535199E+03</rscale>
<asrwt>0</asrwt>
<pdfrwt beam="1">  1        2 0.30685123E+00 0.87538038E+03</pdfrwt>
<pdfrwt beam="2">  1       -2 0.15399147E+00 0.87538038E+03</pdfrwt>
<totfact> 0.19097395E+00</totfact>
</mgrwt>
</event>
<event>
 4    5  0.2295023E-007  0.1684422E+04  0.7818608E-02  0.8789317E-01
         -2   -1    0    0    0  501 -0.00000000000E+00  0.00000000000E+00  0.15429940111E+04  0.15429940111E+04  0.25500000000E-02 0.  1.
          2   -1    0    0  501    0  0.00000000000E+00 -0.00000000000E+00 -0.20266438121E+04  0.20266438121E+04  0.25500000000E-02 0. -1.
    8880023    1    1    2    0    0 -0.14217524874E+04  0.61813187239E+03 -0.96230302153E+03  0.19399238281E+04  0.65864270000E+03 0.  0.
    8880022    1    1    2    0    0  0.14217524874E+04 -0.61813187239E+03  0.47865322052E+03  0.16297139951E+04  0.15294330000E+03 0.  0.
<mgrwt>
<rscale>  0 0.16518429E+04</rscale>
<asrwt>0</asrwt>
<pdfrwt beam="1">  1        2 0.31179136E+00 0.16844220E+04</pdfrwt>
<pdfrwt beam="2">  1       -2 0.23738369E+00 0.16844220E+04</pdfrwt>
<totfact> 0.45697938E-01</totfact>
</mgrwt>
</event>
<event>
 4    5  0.2295023E-007  0.1084008E+04  0.7818608E-02  0.9279074E-01
          2   -1    0    0  501    0  0.00000000000E+00  0.00000000000E+00  0.22986915321E+04  0.22986915321E+04  0.25500000000E-02 0. -1.
         -2   -1    0    0    0  501 -0.00000000000E+00 -0.00000000000E+00 -0.74115797360E+03  0.74115797361E+03  0.25500000000E-02 0.  1.
    8880023    1    1    2    0    0 -0.83716333664E+03  0.20104859960E+03 -0.17604866712E+03  0.10982105131E+04  0.65864270000E+03 0.  1.
    8880022    1    1    2    0    0  0.83716333664E+03 -0.20104859960E+03  0.17335822256E+04  0.19416389926E+04  0.15294330000E+03 0.  0.
<mgrwt>
<rscale>  0 0.10273242E+04</rscale>
<asrwt>0</asrwt>
<pdfrwt beam="1">  1        2 0.35364485E+00 0.10840079E+04</pdfrwt>
<pdfrwt beam="2">  1       -2 0.11402430E+00 0.10840079E+04</pdfrwt>
<totfact> 0.27148054E+00</totfact>
</mgrwt>
</event>
<event>
 4    5  0.2295023E-007  0.6657409E+03  0.7818608E-02  0.1018920E+00
          2   -1    0    0  501    0  0.00000000000E+00  0.00000000000E+00  0.27571445509E+03  0.27571445510E+03  0.25500000000E-02 0. -1.
         -2   -1    0    0    0  501 -0.00000000000E+00 -0.00000000000E+00 -0.24133882219E+04  0.24133882219E+04  0.25500000000E-02 0.  1.
    8880023    1    1    2    0    0  0.38967329826E+02  0.88782123199E+02 -0.23310035181E+04  0.24242088041E+04  0.65864270000E+03 0.  0.
    8880022    1    1    2    0    0 -0.38967329826E+02 -0.88782123199E+02  0.19332975125E+03  0.26489387295E+03  0.15294330000E+03 0.  0.
<mgrwt>
<rscale>  0 0.48078457E+03</rscale>
<asrwt>0</asrwt>
<pdfrwt beam="1">  1        2 0.42417610E-01 0.66574088E+03</pdfrwt>
<pdfrwt beam="2">  1       -2 0.37129048E+00 0.66574088E+03</pdfrwt>
<totfact> 0.14731297E+00</totfact>
</mgrwt>
</event>
<event>
 4    5  0.2295023E-007  0.8138399E+03  0.7818608E-02  0.9681633E-01
          2   -1    0    0  501    0  0.00000000000E+00  0.00000000000E+00  0.13345541251E+04  0.13345541251E+04  0.25500000000E-02 0. -1.
         -2   -1    0    0    0  501 -0.00000000000E+00 -0.00000000000E+00 -0.53952931262E+03  0.53952931263E+03  0.25500000000E-02 0.  1.
    8880023    1    1    2    0    0  0.43206894974E+03 -0.20455224863E+03 -0.12759042896E+03  0.82378074970E+03  0.65864270000E+03 0.  0.
    8880022    1    1    2    0    0 -0.43206894974E+03  0.20455224863E+03  0.92261524140E+03  0.10503026880E+04  0.15294330000E+03 0. -1.
<mgrwt>
<rscale>  0 0.72120942E+03</rscale>
<asrwt>0</asrwt>
<pdfrwt beam="1">  1        2 0.20531602E+00 0.81383991E+03</pdfrwt>
<pdfrwt beam="2">  1       -2 0.83004511E-01 0.81383991E+03</pdfrwt>
<totfact> 0.20352194E+01</totfact>
</mgrwt>
</event>
<event>
 4    5  0.2295023E-007  0.7606652E+03  0.7818608E-02  0.9803388E-01
          2   -1    0    0  501    0  0.00000000000E+00  0.00000000000E+00  0.11430627025E+04  0.11430627025E+04  0.25500000000E-02 0. -1.
         -2   -1    0    0    0  501 -0.00000000000E+00 -0.00000000000E+00 -0.47752042033E+03  0.47752042034E+03  0.25500000000E-02 0.  1.
    8880023    1    1    2    0    0 -0.32938392845E+03 -0.19054563664E+03 -0.84900637829E+02  0.76538861798E+03  0.65864270000E+03 0.  0.
    8880022    1    1    2    0    0  0.32938392845E+03  0.19054563664E+03  0.75044291995E+03  0.85519450483E+03  0.15294330000E+03 0.  0.
<mgrwt>
<rscale>  0 0.65181026E+03</rscale>
<asrwt>0</asrwt>
<pdfrwt beam="1">  1        2 0.17585580E+00 0.76066525E+03</pdfrwt>
<pdfrwt beam="2">  1       -2 0.73464681E-01 0.76066525E+03</pdfrwt>
<totfact> 0.34840067E+01</totfact>
</mgrwt>
</event>
<event>
 4    5  0.2295023E-007  0.1143763E+04  0.7818608E-02  0.9213828E-01
         -2   -1    0    0    0  501 -0.00000000000E+00  0.00000000000E+00  0.77833846032E+03  0.77833846033E+03  0.25500000000E-02 0.  1.
          2   -1    0    0  501    0  0.00000000000E+00 -0.00000000000E+00 -0.16751814862E+04  0.16751814862E+04  0.25500000000E-02 0. -1.
    8880023    1    1    2    0    0  0.41646961445E+03 -0.83721933350E+03 -0.97480238679E+03  0.15028083882E+04  0.65864270000E+03 0. -1.
    8880022    1    1    2    0    0 -0.41646961445E+03  0.83721933350E+03  0.77959360913E+02  0.95071155831E+03  0.15294330000E+03 0.  0.
<mgrwt>
<rscale>  0 0.10911838E+04</rscale>
<asrwt>0</asrwt>
<pdfrwt beam="1">  1        2 0.25772023E+00 0.11437628E+04</pdfrwt>
<pdfrwt beam="2">  1       -2 0.11974438E+00 0.11437628E+04</pdfrwt>
<totfact> 0.52986177E+00</totfact>
</mgrwt>
</event>
<event>
 4    5  0.2295023E-007  0.1136008E+04  0.7818608E-02  0.9221987E-01
         -2   -1    0    0    0  501 -0.00000000000E+00  0.00000000000E+00  0.70510282668E+03  0.70510282668E+03  0.25500000000E-02 0.  1.
          2   -1    0    0  501    0  0.00000000000E+00 -0.00000000000E+00 -0.22623630856E+04  0.22623630856E+04  0.25500000000E-02 0. -1.
    8880023    1    1    2    0    0  0.49688849880E+03 -0.78090030196E+03  0.15556845437E+02  0.11361142916E+04  0.65864270000E+03 0.  0.
    8880022    1    1    2    0    0 -0.49688849880E+03  0.78090030196E+03 -0.15728171043E+04  0.18313516207E+04  0.15294330000E+03 0.  0.
<mgrwt>
<rscale>  0 0.10829345E+04</rscale>
<asrwt>0</asrwt>
<pdfrwt beam="1">  1        2 0.34805586E+00 0.11360078E+04</pdfrwt>
<pdfrwt beam="2">  1       -2 0.10847736E+00 0.11360078E+04</pdfrwt>
<totfact> 0.31935711E+00</totfact>
</mgrwt>
</event>
<event>
 4    5  0.2295023E-007  0.1662084E+04  0.7818608E-02  0.8802926E-01
          2   -1    0    0  501    0  0.00000000000E+00  0.00000000000E+00  0.17825152725E+04  0.17825152725E+04  0.25500000000E-02 0. -1.
         -2   -1    0    0    0  501 -0.00000000000E+00 -0.00000000000E+00 -0.18720866620E+04  0.18720866620E+04  0.25500000000E-02 0.  1.
    8880023    1    1    2    0    0  0.12363251590E+04  0.89454590750E+03 -0.93122501072E+03  0.19051778148E+04  0.65864270000E+03 0.  0.
    8880022    1    1    2    0    0 -0.12363251590E+04 -0.89454590750E+03  0.84165362125E+03  0.17494241197E+04  0.15294330000E+03 0.  0.
<mgrwt>
<rscale>  0 0.16290025E+04</rscale>
<asrwt>0</asrwt>
<pdfrwt beam="1">  1        2 0.27423312E+00 0.16620838E+04</pdfrwt>
<pdfrwt beam="2">  1       -2 0.28801333E+00 0.16620838E+04</pdfrwt>
<totfact> 0.30632422E-01</totfact>
</mgrwt>
</event>
<event>
 4    5  0.2295023E-007  0.1054707E+04  0.7818608E-02  0.9313244E-01
          2   -1    0    0  501    0  0.00000000000E+00  0.00000000000E+00  0.25014875977E+04  0.25014875977E+04  0.25500000000E-02 0. -1.
         -2   -1    0    0    0  501 -0.00000000000E+00 -0.00000000000E+00 -0.39056938662E+03  0.39056938663E+03  0.25500000000E-02 0.  1.
    8880023    1    1    2    0    0  0.65874228311E+03 -0.49462641021E+03  0.75101578571E+03  0.12947708669E+04  0.65864270000E+03 0.  0.
    8880022    1    1    2    0    0 -0.65874228311E+03  0.49462641021E+03  0.13599024253E+04  0.15972861174E+04  0.15294330000E+03 0.  0.
<mgrwt>
<rscale>  0 0.99572661E+03</rscale>
<asrwt>0</asrwt>
<pdfrwt beam="1">  1        2 0.38484425E+00 0.10547070E+04</pdfrwt>
<pdfrwt beam="2">  1       -2 0.60087597E-01 0.10547070E+04</pdfrwt>
<totfact> 0.90159618E+00</totfact>
</mgrwt>
</event>
<event>
 4    5  0.2295023E-007  0.1464275E+04  0.7818608E-02  0.8935283E-01
         -2   -1    0    0    0  501 -0.00000000000E+00  0.00000000000E+00  0.13043369768E+04  0.13043369768E+04  0.25500000000E-02 0.  1.
          2   -1    0    0  501    0  0.00000000000E+00 -0.00000000000E+00 -0.16298030737E+04  0.16298030737E+04  0.25500000000E-02 0. -1.
    8880023    1    1    2    0    0 -0.96704070865E+03  0.88041160335E+03 -0.61133882582E+03  0.15867695768E+04  0.65864270000E+03 0.  0.
    8880022    1    1    2    0    0  0.96704070865E+03 -0.88041160335E+03  0.28587272890E+03  0.13473704738E+04  0.15294330000E+03 0.  0.
<mgrwt>
<rscale>  0 0.14258976E+04</rscale>
<asrwt>0</asrwt>
<pdfrwt beam="1">  1        2 0.25073893E+00 0.14642754E+04</pdfrwt>
<pdfrwt beam="2">  1       -2 0.20066723E+00 0.14642754E+04</pdfrwt>
<totfact> 0.13342477E+00</totfact>
</mgrwt>
</event>
<event>
 4    5  0.2295023E-007  0.1045146E+04  0.7818608E-02  0.9324739E-01
          2   -1    0    0  501    0  0.00000000000E+00  0.00000000000E+00  0.29642216656E+04  0.29642216656E+04  0.25500000000E-02 0. -1.
         -2   -1    0    0    0  501 -0.00000000000E+00 -0.00000000000E+00 -0.35790942730E+03  0.35790942731E+03  0.25500000000E-02 0.  1.
    8880023    1    1    2    0    0 -0.70922642735E+03 -0.39435873987E+03  0.21204264189E+04  0.23640091678E+04  0.65864270000E+03 0.  0.
    8880022    1    1    2    0    0  0.70922642735E+03  0.39435873987E+03  0.48588581938E+03  0.95812192515E+03  0.15294330000E+03 0.  0.
<mgrwt>
<rscale>  0 0.98536914E+03</rscale>
<asrwt>0</asrwt>
<pdfrwt beam="1">  1        2 0.45603408E+00 0.10451465E+04</pdfrwt>
<pdfrwt beam="2">  1       -2 0.55062991E-01 0.10451465E+04</pdfrwt>
<totfact> 0.57754669E+00</totfact>
</mgrwt>
</event>
<event>
 4    5  0.2295023E-007  0.1327930E+04  0.7818608E-02  0.9041808E-01
          2   -1    0    0  501    0  0.00000000000E+00  0.00000000000E+00  0.22953440349E+04  0.22953440349E+04  0.25500000000E-02 0. -1.
         -2   -1    0    0    0  501 -0.00000000000E+00 -0.00000000000E+00 -0.81579811073E+03  0.81579811073E+03  0.25500000000E-02 0.  1.
    8880023    1    1    2    0    0  0.68478943769E+03  0.92771284729E+03  0.13728048740E+03  0.13350070560E+04  0.65864270000E+03 0.  1.
    8880022    1    1    2    0    0 -0.68478943769E+03 -0.92771284729E+03  0.13422654368E+04  0.17761350897E+04  0.15294330000E+03 0.  0.
<mgrwt>
<rscale>  0 0.12846735E+04</rscale>
<asrwt>0</asrwt>
<pdfrwt beam="1">  1        2 0.35312985E+00 0.13279299E+04</pdfrwt>
<pdfrwt beam="2">  1       -2 0.12550740E+00 0.13279299E+04</pdfrwt>
<totfact> 0.20876852E+00</totfact>
</mgrwt>
</event>
<event>
 4    5  0.2295023E-007  0.6894407E+03  0.7818608E-02  0.1004420E+00
          2   -1    0    0  501    0  0.00000000000E+00  0.00000000000E+00  0.73352692112E+03  0.73352692113E+03  0.25500000000E-02 0. -1.
         -2   -1    0    0    0  501 -0.00000000000E+00 -0.00000000000E+00 -0.59908270137E+03  0.59908270138E+03  0.25500000000E-02 0.  1.
    8880023    1    1    2    0    0  0.16104413223E+03  0.12483233984E+03 -0.35897428022E+03  0.77729728271E+03  0.65864270000E+03 0.  1.
    8880022    1    1    2    0    0 -0.16104413223E+03 -0.12483233984E+03  0.49341849997E+03  0.55531233979E+03  0.15294330000E+03 0.  0.
<mgrwt>
<rscale>  0 0.53754106E+03</rscale>
<asrwt>0</asrwt>
<pdfrwt beam="1">  1        2 0.11285029E+00 0.68944074E+03</pdfrwt>
<pdfrwt beam="2">  1       -2 0.92166570E-01 0.68944074E+03</pdfrwt>
<totfact> 0.39318111E+01</totfact>
</mgrwt>
</event>
<event>
 4    5  0.2295023E-007  0.9675661E+03  0.7818608E-02  0.9425278E-01
          2   -1    0    0  501    0  0.00000000000E+00  0.00000000000E+00  0.24125977308E+04  0.24125977308E+04  0.25500000000E-02 0. -1.
         -2   -1    0    0    0  501 -0.00000000000E+00 -0.00000000000E+00 -0.34065963299E+03  0.34065963300E+03  0.25500000000E-02 0.  1.
    8880023    1    1    2    0    0  0.21462340869E+03  0.67550782692E+03  0.16543169705E+04  0.19164939021E+04  0.65864270000E+03 0.  0.
    8880022    1    1    2    0    0 -0.21462340869E+03 -0.67550782692E+03  0.41762112731E+03  0.83676346166E+03  0.15294330000E+03 0.  0.
<mgrwt>
<rscale>  0 0.90024253E+03</rscale>
<asrwt>0</asrwt>
<pdfrwt beam="1">  1        2 0.37116887E+00 0.96756614E+03</pdfrwt>
<pdfrwt beam="2">  1       -2 0.52409176E-01 0.96756614E+03</pdfrwt>
<totfact> 0.13626676E+01</totfact>
</mgrwt>
</event>
<event>
 4    5  0.2295023E-007  0.7750769E+03  0.7818608E-02  0.9767531E-01
         -2   -1    0    0    0  501 -0.00000000000E+00  0.00000000000E+00  0.50302254031E+03  0.50302254031E+03  0.25500000000E-02 0.  1.
          2   -1    0    0  501    0  0.00000000000E+00 -0.00000000000E+00 -0.17549571450E+04  0.17549571450E+04  0.25500000000E-02 0. -1.
    8880023    1    1    2    0    0 -0.40798317212E+03 -0.21993763784E+02  0.15024063671E+03  0.78950392625E+03  0.65864270000E+03 0.  1.
    8880022    1    1    2    0    0  0.40798317212E+03  0.21993763784E+02 -0.14021752414E+04  0.14684757591E+04  0.15294330000E+03 0.  0.
<mgrwt>
<rscale>  0 0.67134500E+03</rscale>
<asrwt>0</asrwt>
<pdfrwt beam="1">  1        2 0.26999340E+00 0.77507690E+03</pdfrwt>
<pdfrwt beam="2">  1       -2 0.77388084E-01 0.77507690E+03</pdfrwt>
<totfact> 0.13964553E+01</totfact>
</mgrwt>
</event>
<event>
 4    5  0.2295023E-007  0.7640665E+03  0.7818608E-02  0.9794691E-01
          2   -1    0    0  501    0  0.00000000000E+00  0.00000000000E+00  0.40155100811E+04  0.40155100811E+04  0.25500000000E-02 0. -1.
         -2   -1    0    0    0  501 -0.00000000000E+00 -0.00000000000E+00 -0.91249885158E+02  0.91249885193E+02  0.25500000000E-02 0.  1.
    8880023    1    1    2    0    0  0.35278955296E+03  0.15977134313E+03  0.29480774721E+04  0.30454816267E+04  0.65864270000E+03 0. -1.
    8880022    1    1    2    0    0 -0.35278955296E+03 -0.15977134313E+03  0.97618272386E+03  0.10612783396E+04  0.15294330000E+03 0.  1.
<mgrwt>
<rscale>  0 0.65648214E+03</rscale>
<asrwt>0</asrwt>
<pdfrwt beam="1">  1        2 0.61777080E+00 0.76406646E+03</pdfrwt>
<pdfrwt beam="2">  1       -2 0.14038443E-01 0.76406646E+03</pdfrwt>
<totfact> 0.14309136E+01</totfact>
</mgrwt>
</event>
<event>
 4    5  0.2295023E-007  0.8989598E+03  0.7818608E-02  0.9527704E-01
         -2   -1    0    0    0  501 -0.00000000000E+00  0.00000000000E+00  0.17660314989E+03  0.17660314991E+03  0.25500000000E-02 0.  1.
          2   -1    0    0  501    0  0.00000000000E+00 -0.00000000000E+00 -0.41075405460E+04  0.41075405460E+04  0.25500000000E-02 0. -1.
    8880023    1    1    2    0    0  0.55313046564E+03  0.26146732252E+03 -0.13125779296E+04  0.15909083884E+04  0.65864270000E+03 0.  1.
    8880022    1    1    2    0    0 -0.55313046564E+03 -0.26146732252E+03 -0.26183594665E+04  0.26932353075E+04  0.15294330000E+03 0.  0.
<mgrwt>
<rscale>  0 0.82271805E+03</rscale>
<asrwt>0</asrwt>
<pdfrwt beam="1">  1        2 0.63192924E+00 0.89895978E+03</pdfrwt>
<pdfrwt beam="2">  1       -2 0.27169718E-01 0.89895978E+03</pdfrwt>
<totfact> 0.37005522E+00</totfact>
</mgrwt>
</event>
<event>
 4    5  0.2295023E-007  0.1784052E+04  0.7818608E-02  0.8731410E-01
          2   -1    0    0  501    0  0.00000000000E+00  0.00000000000E+00  0.40087571822E+04  0.40087571822E+04  0.25500000000E-02 0. -1.
         -2   -1    0    0    0  501 -0.00000000000E+00 -0.00000000000E+00 -0.20025769953E+04  0.20025769953E+04  0.25500000000E-02 0.  1.
    8880023    1    1    2    0    0  0.16074211766E+04 -0.40648291660E+03 -0.13683437970E+04  0.22483785610E+04  0.65864270000E+03 0.  0.
    8880022    1    1    2    0    0 -0.16074211766E+04  0.40648291660E+03  0.33745239839E+04  0.37629556164E+04  0.15294330000E+03 0.  0.
<mgrwt>
<rscale>  0 0.17535294E+04</rscale>
<asrwt>0</asrwt>
<pdfrwt beam="1">  1        2 0.61673188E+00 0.17840520E+04</pdfrwt>
<pdfrwt beam="2">  1       -2 0.30808877E+00 0.17840520E+04</pdfrwt>
<totfact> 0.87108580E-03</totfact>
</mgrwt>
</event>
<event>
 4    5  0.2295023E-007  0.6839446E+03  0.7818608E-02  0.1007175E+00
          2   -1    0    0  501    0  0.00000000000E+00  0.00000000000E+00  0.11905432490E+04  0.11905432490E+04  0.25500000000E-02 0. -1.
         -2   -1    0    0    0  501 -0.00000000000E+00 -0.00000000000E+00 -0.89025055521E+03  0.89025055522E+03  0.25500000000E-02 0.  1.
    8880023    1    1    2    0    0  0.12681120303E+03 -0.13374931236E+03 -0.74329084638E+03  0.10100799218E+04  0.65864270000E+03 0.  0.
    8880022    1    1    2    0    0 -0.12681120303E+03  0.13374931236E+03  0.10435835401E+04  0.10707138824E+04  0.15294330000E+03 0.  0.
<mgrwt>
<rscale>  0 0.52613034E+03</rscale>
<asrwt>0</asrwt>
<pdfrwt beam="1">  1        2 0.18316050E+00 0.68394456E+03</pdfrwt>
<pdfrwt beam="2">  1       -2 0.13696162E+00 0.68394456E+03</pdfrwt>
<totfact> 0.75125156E+00</totfact>
</mgrwt>
</event>
<event>
 4    5  0.2295023E-007  0.7053661E+03  0.7818608E-02  0.9975629E-01
         -2   -1    0    0    0  501 -0.00000000000E+00  0.00000000000E+00  0.22000137990E+03  0.22000137991E+03  0.25500000000E-02 0.  1.
          2   -1    0    0  501    0  0.00000000000E+00 -0.00000000000E+00 -0.11533080495E+04  0.11533080496E+04  0.25500000000E-02 0. -1.
    8880023    1    1    2    0    0 -0.17800401442E+03  0.17901319309E+03 -0.58208916267E+03  0.91453220392E+03  0.65864270000E+03 0.  1.
    8880022    1    1    2    0    0  0.17800401442E+03 -0.17901319309E+03 -0.35121750698E+03  0.45877722554E+03  0.15294330000E+03 0. -1.
<mgrwt>
<rscale>  0 0.56731913E+03</rscale>
<asrwt>0</asrwt>
<pdfrwt beam="1">  1        2 0.17743200E+00 0.70536612E+03</pdfrwt>
<pdfrwt beam="2">  1       -2 0.33846367E-01 0.70536612E+03</pdfrwt>
<totfact> 0.16754216E+02</totfact>
</mgrwt>
</event>
<event>
 4    5  0.2295023E-007  0.8921151E+03  0.7818608E-02  0.9538810E-01
          2   -1    0    0  501    0  0.00000000000E+00  0.00000000000E+00  0.14379430218E+04  0.14379430218E+04  0.25500000000E-02 0. -1.
         -2   -1    0    0    0  501 -0.00000000000E+00 -0.00000000000E+00 -0.60311668483E+03  0.60311668484E+03  0.25500000000E-02 0.  1.
    8880023    1    1    2    0    0 -0.53007386307E+03  0.28474687886E+03 -0.12204283580E+03  0.90042420301E+03  0.65864270000E+03 0.  0.
    8880022    1    1    2    0    0  0.53007386307E+03 -0.28474687886E+03  0.95686917272E+03  0.11406355036E+04  0.15294330000E+03 0.  0.
<mgrwt>
<rscale>  0 0.81482016E+03</rscale>
<asrwt>0</asrwt>
<pdfrwt beam="1">  1        2 0.22122200E+00 0.89211507E+03</pdfrwt>
<pdfrwt beam="2">  1       -2 0.92787184E-01 0.89211507E+03</pdfrwt>
<totfact> 0.13643023E+01</totfact>
</mgrwt>
</event>
<event>
 4    5  0.2295023E-007  0.7094062E+03  0.7818608E-02  0.9960213E-01
          2   -1    0    0  501    0  0.00000000000E+00  0.00000000000E+00  0.30202806226E+04  0.30202806226E+04  0.25500000000E-02 0. -1.
         -2   -1    0    0    0  501 -0.00000000000E+00 -0.00000000000E+00 -0.26356902424E+03  0.26356902425E+03  0.25500000000E-02 0.  1.
    8880023    1    1    2    0    0  0.18612729827E+03  0.18655700676E+03  0.24021304238E+03  0.74897222908E+03  0.65864270000E+03 0.  0.
    8880022    1    1    2    0    0 -0.18612729827E+03 -0.18655700676E+03  0.25164985559E+04  0.25348774177E+04  0.15294330000E+03 0. -1.
<mgrwt>
<rscale>  0 0.57429793E+03</rscale>
<asrwt>0</asrwt>
<pdfrwt beam="1">  1        2 0.46465858E+00 0.70940616E+03</pdfrwt>
<pdfrwt beam="2">  1       -2 0.40549078E-01 0.70940616E+03</pdfrwt>
<totfact> 0.10432827E+01</totfact>
</mgrwt>
</event>
<event>
 4    5  0.2437705E-007  0.9851566E+03  0.7818608E-02  0.9401240E-01
         -2   -1    0    0    0  501 -0.00000000000E+00  0.00000000000E+00  0.25247146632E+04  0.25247146632E+04  0.25500000000E-02 0.  1.
          2   -1    0    0  501    0  0.00000000000E+00 -0.00000000000E+00 -0.18264795682E+04  0.18264795682E+04  0.25500000000E-02 0. -1.
    8880023    1    1    2    0    0  0.59656561447E+03  0.42524431428E+03  0.23443496926E+04  0.25429331384E+04  0.65864270000E+03 0.  1.
    8880022    1    1    2    0    0 -0.59656561447E+03 -0.42524431428E+03 -0.16461145976E+04  0.18082610930E+04  0.15294330000E+03 0.  0.
<mgrwt>
<rscale>  0 0.91973685E+03</rscale>
<asrwt>0</asrwt>
<pdfrwt beam="1">  1        2 0.28099686E+00 0.98515657E+03</pdfrwt>
<pdfrwt beam="2">  1       -2 0.38841764E+00 0.98515657E+03</pdfrwt>
<totfact> 0.75404588E-02</totfact>
</mgrwt>
</event>
<event>
 4    5  0.2295023E-007  0.8740060E+03  0.7818608E-02  0.9569119E-01
         -2   -1    0    0    0  501 -0.00000000000E+00  0.00000000000E+00  0.27474270861E+04  0.27474270861E+04  0.25500000000E-02 0.  1.
          2   -1    0    0  501    0  0.00000000000E+00 -0.00000000000E+00 -0.10591922096E+04  0.10591922096E+04  0.25500000000E-02 0. -1.
    8880023    1    1    2    0    0  0.18493244283E+03  0.54394503920E+03  0.25860774416E+04  0.27297770887E+04  0.65864270000E+03 0.  1.
    8880022    1    1    2    0    0 -0.18493244283E+03 -0.54394503920E+03 -0.89784256504E+03  0.10768422070E+04  0.15294330000E+03 0.  0.
<mgrwt>
<rscale>  0 0.79374232E+03</rscale>
<asrwt>0</asrwt>
<pdfrwt beam="1">  1        2 0.16295265E+00 0.87400596E+03</pdfrwt>
<pdfrwt beam="2">  1       -2 0.42268110E+00 0.87400596E+03</pdfrwt>
<totfact> 0.12678386E-01</totfact>
</mgrwt>
</event>
<event>
 4    5  0.2295023E-007  0.7467907E+03  0.7818608E-02  0.9840590E-01
         -2   -1    0    0    0  501 -0.00000000000E+00  0.00000000000E+00  0.29244177183E+03  0.29244177184E+03  0.25500000000E-02 0.  1.
          2   -1    0    0  501    0  0.00000000000E+00 -0.00000000000E+00 -0.14448178716E+04  0.14448178716E+04  0.25500000000E-02 0. -1.
    8880023    1    1    2    0    0 -0.18696771302E+03 -0.29821014693E+03 -0.30432754959E+03  0.80641904810E+03  0.65864270000E+03 0.  1.
    8880022    1    1    2    0    0  0.18696771302E+03  0.29821014693E+03 -0.84804855020E+03  0.93084059535E+03  0.15294330000E+03 0.  0.
<mgrwt>
<rscale>  0 0.63229010E+03</rscale>
<asrwt>0</asrwt>
<pdfrwt beam="1">  1        2 0.22227967E+00 0.74679075E+03</pdfrwt>
<pdfrwt beam="2">  1       -2 0.44991043E-01 0.74679075E+03</pdfrwt>
<totfact> 0.65203124E+01</totfact>
</mgrwt>
</event>
<event>
 4    5  0.2295023E-007  0.1476903E+04  0.7818608E-02  0.8926120E-01
         -2   -1    0    0    0  501 -0.00000000000E+00  0.00000000000E+00  0.12412378382E+04  0.12412378382E+04  0.25500000000E-02 0.  1.
          2   -1    0    0  501    0  0.00000000000E+00 -0.00000000000E+00 -0.41532357001E+04  0.41532357001E+04  0.25500000000E-02 0. -1.
    8880023    1    1    2    0    0 -0.98158447421E+03 -0.88539543391E+03  0.63382755373E+03  0.16071654328E+04  0.65864270000E+03 0.  0.
    8880022    1    1    2    0    0  0.98158447421E+03  0.88539543391E+03 -0.35458254156E+04  0.37873081054E+04  0.15294330000E+03 0.  0.
<mgrwt>
<rscale>  0 0.14389178E+04</rscale>
<asrwt>0</asrwt>
<pdfrwt beam="1">  1        2 0.63895933E+00 0.14769033E+04</pdfrwt>
<pdfrwt beam="2">  1       -2 0.19095967E+00 0.14769033E+04</pdfrwt>
<totfact> 0.37515072E-02</totfact>
</mgrwt>
</event>
<event>
 4    5  0.2295023E-007  0.1361890E+04  0.7818608E-02  0.9013875E-01
         -2   -1    0    0    0  501 -0.00000000000E+00  0.00000000000E+00  0.23904519399E+04  0.23904519399E+04  0.25500000000E-02 0.  1.
          2   -1    0    0  501    0  0.00000000000E+00 -0.00000000000E+00 -0.99784542412E+03  0.99784542412E+03  0.25500000000E-02 0. -1.
    8880023    1    1    2    0    0  0.62834442673E+03 -0.10129746580E+04 -0.21747658857E+03  0.13791448978E+04  0.65864270000E+03 0.  0.
    8880022    1    1    2    0    0 -0.62834442673E+03  0.10129746580E+04  0.16100831044E+04  0.20091524662E+04  0.15294330000E+03 0.  0.
<mgrwt>
<rscale>  0 0.13199719E+04</rscale>
<asrwt>0</asrwt>
<pdfrwt beam="1">  1        2 0.15351468E+00 0.13618901E+04</pdfrwt>
<pdfrwt beam="2">  1       -2 0.36776183E+00 0.13618901E+04</pdfrwt>
<totfact> 0.29242735E-01</totfact>
</mgrwt>
</event>
<event>
 4    5  0.2295023E-007  0.7057847E+03  0.7818608E-02  0.9974000E-01
          2   -1    0    0  501    0  0.00000000000E+00  0.00000000000E+00  0.16858559895E+04  0.16858559895E+04  0.25500000000E-02 0. -1.
         -2   -1    0    0    0  501 -0.00000000000E+00 -0.00000000000E+00 -0.53403661844E+03  0.53403661844E+03  0.25500000000E-02 0.  1.
    8880023    1    1    2    0    0 -0.48567904148E+02 -0.24892369186E+03 -0.27886213285E+03  0.75887821229E+03  0.65864270000E+03 0.  0.
    8880022    1    1    2    0    0  0.48567904148E+02  0.24892369186E+03  0.14306815039E+04  0.14610143956E+04  0.15294330000E+03 0.  0.
<mgrwt>
<rscale>  0 0.56805121E+03</rscale>
<asrwt>0</asrwt>
<pdfrwt beam="1">  1        2 0.25936246E+00 0.70578471E+03</pdfrwt>
<pdfrwt beam="2">  1       -2 0.82159481E-01 0.70578471E+03</pdfrwt>
<totfact> 0.13445862E+01</totfact>
</mgrwt>
</event>
<event>
 4    5  0.2295023E-007  0.1224651E+04  0.7818608E-02  0.9133525E-01
         -2   -1    0    0    0  501 -0.00000000000E+00  0.00000000000E+00  0.10002469213E+04  0.10002469213E+04  0.25500000000E-02 0.  1.
          2   -1    0    0  501    0  0.00000000000E+00 -0.00000000000E+00 -0.13948732656E+04  0.13948732656E+04  0.25500000000E-02 0. -1.
    8880023    1    1    2    0    0  0.70948706831E+01  0.10324284083E+04  0.12167736330E+03  0.12306804388E+04  0.65864270000E+03 0.  0.
    8880022    1    1    2    0    0 -0.70948706831E+01 -0.10324284083E+04 -0.51630370756E+03  0.11644397481E+04  0.15294330000E+03 0.  0.
<mgrwt>
<rscale>  0 0.11766711E+04</rscale>
<asrwt>0</asrwt>
<pdfrwt beam="1">  1        2 0.21459589E+00 0.12246505E+04</pdfrwt>
<pdfrwt beam="2">  1       -2 0.15388414E+00 0.12246505E+04</pdfrwt>
<totfact> 0.39541838E+00</totfact>
</mgrwt>
</event>
<event>
 4    5  0.2295023E-007  0.6611082E+03  0.7818608E-02  0.1023049E+00
          2   -1    0    0  501    0  0.00000000000E+00  0.00000000000E+00  0.32509072974E+04  0.32509072975E+04  0.25500000000E-02 0. -1.
         -2   -1    0    0    0  501 -0.00000000000E+00 -0.00000000000E+00 -0.10190148767E+03  0.10190148770E+03  0.25500000000E-02 0.  1.
    8880023    1    1    2    0    0  0.27311425148E+02 -0.50079238056E+02  0.10071819083E+04  0.12047736081E+04  0.65864270000E+03 0.  1.
    8880022    1    1    2    0    0 -0.27311425148E+02  0.50079238056E+02  0.21418239015E+04  0.21480351771E+04  0.15294330000E+03 0.  0.
<mgrwt>
<rscale>  0 0.46602304E+03</rscale>
<asrwt>0</asrwt>
<pdfrwt beam="1">  1        2 0.50013957E+00 0.66110820E+03</pdfrwt>
<pdfrwt beam="2">  1       -2 0.15677153E-01 0.66110820E+03</pdfrwt>
<totfact> 0.42185789E+01</totfact>
</mgrwt>
</event>
<event>
 4    5  0.2295023E-007  0.9054903E+03  0.7818608E-02  0.9517275E-01
          2   -1    0    0  501    0  0.00000000000E+00  0.00000000000E+00  0.91721420234E+03  0.91721420235E+03  0.25500000000E-02 0. -1.
         -2   -1    0    0    0  501 -0.00000000000E+00 -0.00000000000E+00 -0.13209252945E+04  0.13209252945E+04  0.25500000000E-02 0.  1.
    8880023    1    1    2    0    0  0.43616004611E+03  0.44256859734E+03 -0.10101027195E+04  0.13565471829E+04  0.65864270000E+03 0.  0.
    8880022    1    1    2    0    0 -0.43616004611E+03 -0.44256859734E+03  0.60639162739E+03  0.88159231392E+03  0.15294330000E+03 0.  0.
<mgrwt>
<rscale>  0 0.83022123E+03</rscale>
<asrwt>0</asrwt>
<pdfrwt beam="1">  1        2 0.14110988E+00 0.90549034E+03</pdfrwt>
<pdfrwt beam="2">  1       -2 0.20321928E+00 0.90549034E+03</pdfrwt>
<totfact> 0.36284181E+00</totfact>
</mgrwt>
</event>
<event>
 4    5  0.2295023E-007  0.1043252E+04  0.7818608E-02  0.9327038E-01
         -2   -1    0    0    0  501 -0.00000000000E+00  0.00000000000E+00  0.84114611580E+03  0.84114611580E+03  0.25500000000E-02 0.  1.
          2   -1    0    0  501    0  0.00000000000E+00 -0.00000000000E+00 -0.14149270766E+04  0.14149270766E+04  0.25500000000E-02 0. -1.
    8880023    1    1    2    0    0 -0.51348853493E+03  0.62521538517E+03  0.26948098603E+03  0.10774947617E+04  0.65864270000E+03 0.  1.
    8880022    1    1    2    0    0  0.51348853493E+03 -0.62521538517E+03 -0.84326194680E+03  0.11785784307E+04  0.15294330000E+03 0.  0.
<mgrwt>
<rscale>  0 0.98331389E+03</rscale>
<asrwt>0</asrwt>
<pdfrwt beam="1">  1        2 0.21768109E+00 0.10432521E+04</pdfrwt>
<pdfrwt beam="2">  1       -2 0.12940710E+00 0.10432521E+04</pdfrwt>
<totfact> 0.61623211E+00</totfact>
</mgrwt>
</event>
<event>
 4    5  0.2295023E-007  0.1076309E+04  0.7818608E-02  0.9287903E-01
          2   -1    0    0  501    0  0.00000000000E+00  0.00000000000E+00  0.48710742706E+04  0.48710742706E+04  0.25500000000E-02 0. -1.
         -2   -1    0    0    0  501 -0.00000000000E+00 -0.00000000000E+00 -0.26829819753E+03  0.26829819754E+03  0.25500000000E-02 0.  1.
    8880023    1    1    2    0    0 -0.34708868695E+03 -0.77727694414E+03  0.11301588014E+04  0.15606726522E+04  0.65864270000E+03 0.  0.
    8880022    1    1    2    0    0  0.34708868695E+03  0.77727694414E+03  0.34726172717E+04  0.35786998160E+04  0.15294330000E+03 0.  0.
<mgrwt>
<rscale>  0 0.10190415E+04</rscale>
<asrwt>0</asrwt>
<pdfrwt beam="1">  1        2 0.74939604E+00 0.10763086E+04</pdfrwt>
<pdfrwt beam="2">  1       -2 0.41276646E-01 0.10763086E+04</pdfrwt>
<totfact> 0.29577117E-01</totfact>
</mgrwt>
</event>
<event>
 4    5  0.2295023E-007  0.9416844E+03  0.7818608E-02  0.9462181E-01
         -2   -1    0    0    0  501 -0.00000000000E+00  0.00000000000E+00  0.17864171319E+04  0.17864171319E+04  0.25500000000E-02 0.  1.
          2   -1    0    0  501    0  0.00000000000E+00 -0.00000000000E+00 -0.57054453195E+03  0.57054453196E+03  0.25500000000E-02 0. -1.
    8880023    1    1    2    0    0  0.61154909382E+03  0.28101078193E+03  0.13577499371E+04  0.16523481630E+04  0.65864270000E+03 0.  0.
    8880022    1    1    2    0    0 -0.61154909382E+03 -0.28101078193E+03 -0.14187733722E+03  0.70461350082E+03  0.15294330000E+03 0.  0.
<mgrwt>
<rscale>  0 0.87130444E+03</rscale>
<asrwt>0</asrwt>
<pdfrwt beam="1">  1        2 0.87776082E-01 0.94168443E+03</pdfrwt>
<pdfrwt beam="2">  1       -2 0.27483340E+00 0.94168443E+03</pdfrwt>
<totfact> 0.24086959E+00</totfact>
</mgrwt>
</event>
<event>
 4    5  0.2295023E-007  0.1046814E+04  0.7818608E-02  0.9322721E-01
         -2   -1    0    0    0  501 -0.00000000000E+00  0.00000000000E+00  0.42684168315E+03  0.42684168316E+03  0.25500000000E-02 0.  1.
          2   -1    0    0  501    0  0.00000000000E+00 -0.00000000000E+00 -0.33249437632E+04  0.33249437632E+04  0.25500000000E-02 0. -1.
    8880023    1    1    2    0    0 -0.97841405889E+02 -0.80773585087E+03 -0.40094936694E+03  0.11209731248E+04  0.65864270000E+03 0.  0.
    8880022    1    1    2    0    0  0.97841405889E+02  0.80773585087E+03 -0.24971527131E+04  0.26308123216E+04  0.15294330000E+03 0. -1.
<mgrwt>
<rscale>  0 0.98717788E+03</rscale>
<asrwt>0</asrwt>
<pdfrwt beam="1">  1        2 0.51152979E+00 0.10468144E+04</pdfrwt>
<pdfrwt beam="2">  1       -2 0.65667953E-01 0.10468144E+04</pdfrwt>
<totfact> 0.23428794E+00</totfact>
</mgrwt>
</event>
<event>
 4    5  0.2295023E-007  0.9295777E+03  0.7818608E-02  0.9480127E-01
          2   -1    0    0  501    0  0.00000000000E+00  0.00000000000E+00  0.17382817792E+04  0.17382817792E+04  0.25500000000E-02 0. -1.
         -2   -1    0    0    0  501 -0.00000000000E+00 -0.00000000000E+00 -0.73820674922E+03  0.73820674923E+03  0.25500000000E-02 0.  1.
    8880023    1    1    2    0    0 -0.63097708272E+03  0.17936658440E+03 -0.32932249009E+03  0.98618860227E+03  0.65864270000E+03 0.  1.
    8880022    1    1    2    0    0  0.63097708272E+03 -0.17936658440E+03  0.13293975200E+04  0.14902999261E+04  0.15294330000E+03 0.  0.
<mgrwt>
<rscale>  0 0.85764961E+03</rscale>
<asrwt>0</asrwt>
<pdfrwt beam="1">  1        2 0.26742797E+00 0.92957768E+03</pdfrwt>
<pdfrwt beam="2">  1       -2 0.11357027E+00 0.92957768E+03</pdfrwt>
<totfact> 0.57040014E+00</totfact>
</mgrwt>
</event>
<event>
 4    5  0.2295023E-007  0.7552046E+03  0.7818608E-02  0.9817684E-01
          2   -1    0    0  501    0  0.00000000000E+00  0.00000000000E+00  0.20388530743E+04  0.20388530743E+04  0.25500000000E-02 0. -1.
         -2   -1    0    0    0  501 -0.00000000000E+00 -0.00000000000E+00 -0.50689568980E+03  0.50689568981E+03  0.25500000000E-02 0.  1.
    8880023    1    1    2    0    0  0.35902659930E+03 -0.87313308014E+02 -0.18936621753E+03  0.77858428148E+03  0.65864270000E+03 0.  1.
    8880022    1    1    2    0    0 -0.35902659930E+03  0.87313308014E+02  0.17213236020E+04  0.17671644826E+04  0.15294330000E+03 0.  0.
<mgrwt>
<rscale>  0 0.64422077E+03</rscale>
<asrwt>0</asrwt>
<pdfrwt beam="1">  1        2 0.31366971E+00 0.75520455E+03</pdfrwt>
<pdfrwt beam="2">  1       -2 0.77983951E-01 0.75520455E+03</pdfrwt>
<totfact> 0.96355560E+00</totfact>
</mgrwt>
</event>
<event>
 4    5  0.2295023E-007  0.1077852E+04  0.7818608E-02  0.9286125E-01
         -2   -1    0    0    0  501 -0.00000000000E+00  0.00000000000E+00  0.16025601221E+04  0.16025601221E+04  0.25500000000E-02 0.  1.
          2   -1    0    0  501    0  0.00000000000E+00 -0.00000000000E+00 -0.10788562623E+04  0.10788562623E+04  0.25500000000E-02 0. -1.
    8880023    1    1    2    0    0 -0.74939363669E+03 -0.40787720881E+03  0.11770239593E+04  0.15959794006E+04  0.65864270000E+03 0.  0.
    8880022    1    1    2    0    0  0.74939363669E+03  0.40787720881E+03 -0.65332009949E+03  0.10854369837E+04  0.15294330000E+03 0.  0.
<mgrwt>
<rscale>  0 0.10207029E+04</rscale>
<asrwt>0</asrwt>
<pdfrwt beam="1">  1        2 0.16597789E+00 0.10778520E+04</pdfrwt>
<pdfrwt beam="2">  1       -2 0.24654771E+00 0.10778520E+04</pdfrwt>
<totfact> 0.14953502E+00</totfact>
</mgrwt>
</event>
<event>
 4    5  0.2295023E-007  0.1075074E+04  0.7818608E-02  0.9289329E-01
         -2   -1    0    0    0  501 -0.00000000000E+00  0.00000000000E+00  0.15786596916E+04  0.15786596916E+04  0.25500000000E-02 0.  1.
          2   -1    0    0  501    0  0.00000000000E+00 -0.00000000000E+00 -0.11885316471E+04  0.11885316472E+04  0.25500000000E-02 0. -1.
    8880023    1    1    2    0    0 -0.84929773067E+03  0.25834564378E+02  0.11805180432E+04  0.15966862925E+04  0.65864270000E+03 0.  1.
    8880022    1    1    2    0    0  0.84929773067E+03 -0.25834564378E+02 -0.79038999879E+03  0.11705050462E+04  0.15294330000E+03 0.  0.
<mgrwt>
<rscale>  0 0.10177122E+04</rscale>
<asrwt>0</asrwt>
<pdfrwt beam="1">  1        2 0.18285102E+00 0.10750741E+04</pdfrwt>
<pdfrwt beam="2">  1       -2 0.24287072E+00 0.10750741E+04</pdfrwt>
<totfact> 0.13498686E+00</totfact>
</mgrwt>
</event>
<event>
 4    5  0.2295023E-007  0.6913713E+03  0.7818608E-02  0.1003508E+00
         -2   -1    0    0    0  501 -0.00000000000E+00  0.00000000000E+00  0.33139120373E+03  0.33139120374E+03  0.25500000000E-02 0.  1.
          2   -1    0    0  501    0  0.00000000000E+00 -0.00000000000E+00 -0.31743911526E+04  0.31743911526E+04  0.25500000000E-02 0. -1.
    8880023    1    1    2    0    0  0.69729637565E+02  0.19829743572E+03 -0.41893482776E+02  0.69263941956E+03  0.65864270000E+03 0.  1.
    8880022    1    1    2    0    0 -0.69729637565E+02 -0.19829743572E+03 -0.28011064660E+04  0.28131429367E+04  0.15294330000E+03 0.  0.
<mgrwt>
<rscale>  0 0.54138644E+03</rscale>
<asrwt>0</asrwt>
<pdfrwt beam="1">  1        2 0.48836785E+00 0.69137132E+03</pdfrwt>
<pdfrwt beam="2">  1       -2 0.50983264E-01 0.69137132E+03</pdfrwt>
<totfact> 0.53160704E+00</totfact>
</mgrwt>
</event>
<event>
 4    5  0.2295023E-007  0.7318577E+03  0.7818608E-02  0.9884333E-01
         -2   -1    0    0    0  501 -0.00000000000E+00  0.00000000000E+00  0.96767027555E+03  0.96767027555E+03  0.25500000000E-02 0.  1.
          2   -1    0    0  501    0  0.00000000000E+00 -0.00000000000E+00 -0.39085975125E+03  0.39085975126E+03  0.25500000000E-02 0. -1.
    8880023    1    1    2    0    0  0.13774130767E+03 -0.28780689045E+03  0.62853536786E+02  0.73455173227E+03  0.65864270000E+03 0. -1.
    8880022    1    1    2    0    0 -0.13774130767E+03  0.28780689045E+03  0.51395698751E+03  0.62397829454E+03  0.15294330000E+03 0.  0.
<mgrwt>
<rscale>  0 0.61026614E+03</rscale>
<asrwt>0</asrwt>
<pdfrwt beam="1">  1        2 0.60132269E-01 0.73185769E+03</pdfrwt>
<pdfrwt beam="2">  1       -2 0.14887235E+00 0.73185769E+03</pdfrwt>
<totfact> 0.25302460E+01</totfact>
</mgrwt>
</event>
<event>
 4    5  0.2295023E-007  0.1159961E+04  0.7818608E-02  0.9197061E-01
         -2   -1    0    0    0  501 -0.00000000000E+00  0.00000000000E+00  0.92210955460E+03  0.92210955461E+03  0.25500000000E-02 0.  1.
          2   -1    0    0  501    0  0.00000000000E+00 -0.00000000000E+00 -0.14566629168E+04  0.14566629168E+04  0.25500000000E-02 0. -1.
    8880023    1    1    2    0    0  0.81936310819E+03  0.49024753789E+03  0.18342134084E+03  0.11743730864E+04  0.65864270000E+03 0.  1.
    8880022    1    1    2    0    0 -0.81936310819E+03 -0.49024753789E+03 -0.71797470308E+03  0.12043993851E+04  0.15294330000E+03 0.  0.
<mgrwt>
<rscale>  0 0.11083812E+04</rscale>
<asrwt>0</asrwt>
<pdfrwt beam="1">  1        2 0.22410199E+00 0.11599607E+04</pdfrwt>
<pdfrwt beam="2">  1       -2 0.14186301E+00 0.11599607E+04</pdfrwt>
<totfact> 0.45512212E+00</totfact>
</mgrwt>
</event>
<event>
 4    5  0.2295023E-007  0.7767484E+03  0.7818608E-02  0.9763531E-01
         -2   -1    0    0    0  501 -0.00000000000E+00  0.00000000000E+00  0.36428667615E+03  0.36428667615E+03  0.25500000000E-02 0.  1.
          2   -1    0    0  501    0  0.00000000000E+00 -0.00000000000E+00 -0.16868801195E+04  0.16868801195E+04  0.25500000000E-02 0. -1.
    8880023    1    1    2    0    0 -0.16806482497E+03  0.37587514317E+03 -0.13950430146E+03  0.78917651069E+03  0.65864270000E+03 0.  0.
    8880022    1    1    2    0    0  0.16806482497E+03 -0.37587514317E+03 -0.11830891419E+04  0.12619902849E+04  0.15294330000E+03 0.  0.
<mgrwt>
<rscale>  0 0.67356935E+03</rscale>
<asrwt>0</asrwt>
<pdfrwt beam="1">  1        2 0.25952001E+00 0.77674842E+03</pdfrwt>
<pdfrwt beam="2">  1       -2 0.56044105E-01 0.77674842E+03</pdfrwt>
<totfact> 0.30507041E+01</totfact>
</mgrwt>
</event>
<event>
 4    5  0.2295023E-007  0.1054192E+04  0.7818608E-02  0.9313859E-01
          2   -1    0    0  501    0  0.00000000000E+00  0.00000000000E+00  0.23657429498E+04  0.23657429498E+04  0.25500000000E-02 0. -1.
         -2   -1    0    0    0  501 -0.00000000000E+00 -0.00000000000E+00 -0.73222695782E+03  0.73222695783E+03  0.25500000000E-02 0.  1.
    8880023    1    1    2    0    0  0.31466440079E+03  0.76058997242E+03 -0.20851063686E+03  0.10746151326E+04  0.65864270000E+03 0.  0.
    8880022    1    1    2    0    0 -0.31466440079E+03 -0.76058997242E+03  0.18420266289E+04  0.20233547751E+04  0.15294330000E+03 0.  0.
<mgrwt>
<rscale>  0 0.99516941E+03</rscale>
<asrwt>0</asrwt>
<pdfrwt beam="1">  1        2 0.36396045E+00 0.10541921E+04</pdfrwt>
<pdfrwt beam="2">  1       -2 0.11265030E+00 0.10541921E+04</pdfrwt>
<totfact> 0.25734083E+00</totfact>
</mgrwt>
</event>
<event>
 4    5  0.2295023E-007  0.9299976E+03  0.7818608E-02  0.9479497E-01
         -2   -1    0    0    0  501 -0.00000000000E+00  0.00000000000E+00  0.39786276311E+03  0.39786276312E+03  0.25500000000E-02 0.  1.
          2   -1    0    0  501    0  0.00000000000E+00 -0.00000000000E+00 -0.16263888871E+04  0.16263888871E+04  0.25500000000E-02 0. -1.
    8880023    1    1    2    0    0  0.65446961214E+03  0.52486947670E+02 -0.78781353662E+03  0.12188296549E+04  0.65864270000E+03 0.  1.
    8880022    1    1    2    0    0 -0.65446961214E+03 -0.52486947670E+02 -0.44071258739E+03  0.80542199535E+03  0.15294330000E+03 0.  0.
<mgrwt>
<rscale>  0 0.85812462E+03</rscale>
<asrwt>0</asrwt>
<pdfrwt beam="1">  1        2 0.25021367E+00 0.92999761E+03</pdfrwt>
<pdfrwt beam="2">  1       -2 0.61209657E-01 0.92999761E+03</pdfrwt>
<totfact> 0.26920873E+01</totfact>
</mgrwt>
</event>
<event>
 4    5  0.2295023E-007  0.1068382E+04  0.7818608E-02  0.9297103E-01
         -2   -1    0    0    0  501 -0.00000000000E+00  0.00000000000E+00  0.52056480213E+03  0.52056480214E+03  0.25500000000E-02 0.  1.
          2   -1    0    0  501    0  0.00000000000E+00 -0.00000000000E+00 -0.20550738789E+04  0.20550738789E+04  0.25500000000E-02 0. -1.
    8880023    1    1    2    0    0 -0.14832693376E+03  0.82802697288E+03 -0.36933006183E+03  0.11304178201E+04  0.65864270000E+03 0.  0.
    8880022    1    1    2    0    0  0.14832693376E+03 -0.82802697288E+03 -0.11651790149E+04  0.14452208609E+04  0.15294330000E+03 0.  0.
<mgrwt>
<rscale>  0 0.10104995E+04</rscale>
<asrwt>0</asrwt>
<pdfrwt beam="1">  1        2 0.31616521E+00 0.10683818E+04</pdfrwt>
<pdfrwt beam="2">  1       -2 0.80086894E-01 0.10683818E+04</pdfrwt>
<totfact> 0.85438120E+00</totfact>
</mgrwt>
</event>
<event>
 4    5  0.2295023E-007  0.8138193E+03  0.7818608E-02  0.9681676E-01
          2   -1    0    0  501    0  0.00000000000E+00  0.00000000000E+00  0.12455049794E+04  0.12455049794E+04  0.25500000000E-02 0. -1.
         -2   -1    0    0    0  501 -0.00000000000E+00 -0.00000000000E+00 -0.42440614317E+03  0.42440614317E+03  0.25500000000E-02 0.  1.
    8880023    1    1    2    0    0 -0.36074692304E+03  0.31361322263E+03  0.14300021489E+03  0.82628739771E+03  0.65864270000E+03 0.  0.
    8880022    1    1    2    0    0  0.36074692304E+03 -0.31361322263E+03  0.67809862137E+03  0.84362372490E+03  0.15294330000E+03 0.  0.
<mgrwt>
<rscale>  0 0.72118367E+03</rscale>
<asrwt>0</asrwt>
<pdfrwt beam="1">  1        2 0.19161615E+00 0.81381927E+03</pdfrwt>
<pdfrwt beam="2">  1       -2 0.65293253E-01 0.81381927E+03</pdfrwt>
<totfact> 0.38962025E+01</totfact>
</mgrwt>
</event>
<event>
 4    5  0.2295023E-007  0.9319227E+03  0.7818608E-02  0.9476615E-01
         -2   -1    0    0    0  501 -0.00000000000E+00  0.00000000000E+00  0.31646606275E+03  0.31646606276E+03  0.25500000000E-02 0.  1.
          2   -1    0    0  501    0  0.00000000000E+00 -0.00000000000E+00 -0.20642762444E+04  0.20642762444E+04  0.25500000000E-02 0. -1.
    8880023    1    1    2    0    0 -0.55280815659E+03  0.35926721272E+03 -0.89596623923E+03  0.12927627378E+04  0.65864270000E+03 0. -1.
    8880022    1    1    2    0    0  0.55280815659E+03 -0.35926721272E+03 -0.85184394247E+03  0.10879795694E+04  0.15294330000E+03 0.  0.
<mgrwt>
<rscale>  0 0.86030094E+03</rscale>
<asrwt>0</asrwt>
<pdfrwt beam="1">  1        2 0.31758095E+00 0.93192274E+03</pdfrwt>
<pdfrwt beam="2">  1       -2 0.48687088E-01 0.93192274E+03</pdfrwt>
<totfact> 0.24876043E+01</totfact>
</mgrwt>
</event>
<event>
 4    5  0.2295023E-007  0.6603224E+03  0.7818608E-02  0.1023829E+00
         -2   -1    0    0    0  501 -0.00000000000E+00  0.00000000000E+00  0.46006684800E+03  0.46006684801E+03  0.25500000000E-02 0.  1.
          2   -1    0    0  501    0  0.00000000000E+00 -0.00000000000E+00 -0.84616167941E+03  0.84616167941E+03  0.25500000000E-02 0. -1.
    8880023    1    1    2    0    0 -0.28151159739E+02 -0.37721943343E+02  0.20693477852E+03  0.69198818027E+03  0.65864270000E+03 0.  1.
    8880022    1    1    2    0    0  0.28151159739E+02  0.37721943343E+02 -0.59302960993E+03  0.61424034715E+03  0.15294330000E+03 0.  0.
<mgrwt>
<rscale>  0 0.46329971E+03</rscale>
<asrwt>0</asrwt>
<pdfrwt beam="1">  1        2 0.13017872E+00 0.66032238E+03</pdfrwt>
<pdfrwt beam="2">  1       -2 0.70779516E-01 0.66032238E+03</pdfrwt>
<totfact> 0.59181908E+01</totfact>
</mgrwt>
</event>
<event>
 4    5  0.2295023E-007  0.6951084E+03  0.7818608E-02  0.1001813E+00
         -2   -1    0    0    0  501 -0.00000000000E+00  0.00000000000E+00  0.12322293266E+04  0.12322293266E+04  0.25500000000E-02 0.  1.
          2   -1    0    0  501    0  0.00000000000E+00 -0.00000000000E+00 -0.14553593764E+04  0.14553593764E+04  0.25500000000E-02 0. -1.
    8880023    1    1    2    0    0 -0.20027934844E+03 -0.96195757868E+02  0.11197104681E+04  0.13179253317E+04  0.65864270000E+03 0.  1.
    8880022    1    1    2    0    0  0.20027934844E+03  0.96195757868E+02 -0.13428405179E+04  0.13696633713E+04  0.15294330000E+03 0.  0.
<mgrwt>
<rscale>  0 0.54862274E+03</rscale>
<asrwt>0</asrwt>
<pdfrwt beam="1">  1        2 0.22390144E+00 0.69510837E+03</pdfrwt>
<pdfrwt beam="2">  1       -2 0.18957374E+00 0.69510837E+03</pdfrwt>
<totfact> 0.21835395E+00</totfact>
</mgrwt>
</event>
<event>
 4    5  0.2295023E-007  0.1118233E+04  0.7818608E-02  0.9241023E-01
         -2   -1    0    0    0  501 -0.00000000000E+00  0.00000000000E+00  0.63759781018E+03  0.63759781019E+03  0.25500000000E-02 0.  1.
          2   -1    0    0  501    0  0.00000000000E+00 -0.00000000000E+00 -0.26161922829E+04  0.26161922829E+04  0.25500000000E-02 0. -1.
    8880023    1    1    2    0    0 -0.89978385384E+03  0.83803297295E+02 -0.51001010349E+02  0.11193950534E+04  0.65864270000E+03 0.  0.
    8880022    1    1    2    0    0  0.89978385384E+03 -0.83803297295E+02 -0.19275934624E+04  0.21343950397E+04  0.15294330000E+03 0.  0.
<mgrwt>
<rscale>  0 0.10639854E+04</rscale>
<asrwt>0</asrwt>
<pdfrwt beam="1">  1        2 0.40249112E+00 0.11182326E+04</pdfrwt>
<pdfrwt beam="2">  1       -2 0.98091972E-01 0.11182326E+04</pdfrwt>
<totfact> 0.25609489E+00</totfact>
</mgrwt>
</event>
<event>
 4    5  0.2295023E-007  0.7410006E+03  0.7818608E-02  0.9857042E-01
         -2   -1    0    0    0  501 -0.00000000000E+00  0.00000000000E+00  0.58737521290E+03  0.58737521290E+03  0.25500000000E-02 0.  1.
          2   -1    0    0  501    0  0.00000000000E+00 -0.00000000000E+00 -0.20420998768E+04  0.20420998768E+04  0.25500000000E-02 0. -1.
    8880023    1    1    2    0    0  0.32989983197E+03  0.80235642894E+02  0.32649987934E+03  0.80974319077E+03  0.65864270000E+03 0.  1.
    8880022    1    1    2    0    0 -0.32989983197E+03 -0.80235642894E+02 -0.17812245432E+04  0.18197318989E+04  0.15294330000E+03 0.  0.
<mgrwt>
<rscale>  0 0.62389156E+03</rscale>
<asrwt>0</asrwt>
<pdfrwt beam="1">  1        2 0.31416921E+00 0.74100058E+03</pdfrwt>
<pdfrwt beam="2">  1       -2 0.90365419E-01 0.74100058E+03</pdfrwt>
<totfact> 0.68812633E+00</totfact>
</mgrwt>
</event>
<event>
 4    5  0.2295023E-007  0.9175603E+03  0.7818608E-02  0.9498410E-01
          2   -1    0    0  501    0  0.00000000000E+00  0.00000000000E+00  0.12881838385E+04  0.12881838385E+04  0.25500000000E-02 0. -1.
         -2   -1    0    0    0  501 -0.00000000000E+00 -0.00000000000E+00 -0.88515810729E+03  0.88515810729E+03  0.25500000000E-02 0.  1.
    8880023    1    1    2    0    0 -0.58621877642E+03  0.25387837772E+03 -0.50907408820E+03  0.10493204077E+04  0.65864270000E+03 0.  0.
    8880022    1    1    2    0    0  0.58621877642E+03 -0.25387837772E+03  0.91209981940E+03  0.11240215381E+04  0.15294330000E+03 0.  0.
<mgrwt>
<rscale>  0 0.84401147E+03</rscale>
<asrwt>0</asrwt>
<pdfrwt beam="1">  1        2 0.19818213E+00 0.91756029E+03</pdfrwt>
<pdfrwt beam="2">  1       -2 0.13617817E+00 0.91756029E+03</pdfrwt>
<totfact> 0.64862107E+00</totfact>
</mgrwt>
</event>
<event>
 4    5  0.2295023E-007  0.1010758E+04  0.7818608E-02  0.9367617E-01
         -2   -1    0    0    0  501 -0.00000000000E+00  0.00000000000E+00  0.35582938178E+03  0.35582938178E+03  0.25500000000E-02 0.  1.
          2   -1    0    0  501    0  0.00000000000E+00 -0.00000000000E+00 -0.26210548547E+04  0.26210548547E+04  0.25500000000E-02 0. -1.
    8880023    1    1    2    0    0  0.68934097484E+03 -0.33560386844E+03 -0.18075836817E+04  0.20709876651E+04  0.65864270000E+03 0. -1.
    8880022    1    1    2    0    0 -0.68934097484E+03  0.33560386844E+03 -0.45764179125E+03  0.90589657148E+03  0.15294330000E+03 0.  0.
<mgrwt>
<rscale>  0 0.94789304E+03</rscale>
<asrwt>0</asrwt>
<pdfrwt beam="1">  1        2 0.40323920E+00 0.10107577E+04</pdfrwt>
<pdfrwt beam="2">  1       -2 0.54742983E-01 0.10107577E+04</pdfrwt>
<totfact> 0.94063832E+00</totfact>
</mgrwt>
</event>
<event>
 4    5  0.2295023E-007  0.9859502E+03  0.7818608E-02  0.9400174E-01
          2   -1    0    0  501    0  0.00000000000E+00  0.00000000000E+00  0.18233712274E+04  0.18233712274E+04  0.25500000000E-02 0. -1.
         -2   -1    0    0    0  501 -0.00000000000E+00 -0.00000000000E+00 -0.10576692737E+04  0.10576692737E+04  0.25500000000E-02 0.  1.
    8880023    1    1    2    0    0  0.40633577678E+03  0.61088364003E+03 -0.71740367627E+03  0.12193300727E+04  0.65864270000E+03 0.  0.
    8880022    1    1    2    0    0 -0.40633577678E+03 -0.61088364003E+03  0.14831056300E+04  0.16617104284E+04  0.15294330000E+03 0.  0.
<mgrwt>
<rscale>  0 0.92061337E+03</rscale>
<asrwt>0</asrwt>
<pdfrwt beam="1">  1        2 0.28051865E+00 0.98595020E+03</pdfrwt>
<pdfrwt beam="2">  1       -2 0.16271835E+00 0.98595020E+03</pdfrwt>
<totfact> 0.20092065E+00</totfact>
</mgrwt>
</event>
<event>
 4    5  0.2295023E-007  0.8212523E+03  0.7818608E-02  0.9666599E-01
          2   -1    0    0  501    0  0.00000000000E+00  0.00000000000E+00  0.66215940238E+03  0.66215940239E+03  0.25500000000E-02 0. -1.
         -2   -1    0    0    0  501 -0.00000000000E+00 -0.00000000000E+00 -0.13816033434E+04  0.13816033434E+04  0.25500000000E-02 0.  1.
    8880023    1    1    2    0    0  0.48156851540E+03 -0.93471101673E+02 -0.11223952425E+04  0.13907646705E+04  0.65864270000E+03 0.  1.
    8880022    1    1    2    0    0 -0.48156851540E+03  0.93471101673E+02  0.40295130157E+03  0.65299807528E+03  0.15294330000E+03 0.  0.
<mgrwt>
<rscale>  0 0.73040793E+03</rscale>
<asrwt>0</asrwt>
<pdfrwt beam="1">  1        2 0.10187068E+00 0.82125227E+03</pdfrwt>
<pdfrwt beam="2">  1       -2 0.21255436E+00 0.82125227E+03</pdfrwt>
<totfact> 0.49113267E+00</totfact>
</mgrwt>
</event>
<event>
 4    5  0.2295023E-007  0.2628570E+04  0.7818608E-02  0.8365311E-01
         -2   -1    0    0    0  501 -0.00000000000E+00  0.00000000000E+00  0.23720573712E+04  0.23720573712E+04  0.25500000000E-02 0.  1.
          2   -1    0    0  501    0  0.00000000000E+00 -0.00000000000E+00 -0.33381061583E+04  0.33381061583E+04  0.25500000000E-02 0. -1.
    8880023    1    1    2    0    0 -0.15414474024E+04 -0.20247250040E+04  0.62926331661E+03  0.27028418311E+04  0.65864270000E+03 0.  0.
    8880022    1    1    2    0    0  0.15414474024E+04  0.20247250040E+04 -0.15953121037E+04  0.30073216984E+04  0.15294330000E+03 0.  0.
<mgrwt>
<rscale>  0 0.26085262E+04</rscale>
<asrwt>0</asrwt>
<pdfrwt beam="1">  1        2 0.51355479E+00 0.26285703E+04</pdfrwt>
<pdfrwt beam="2">  1       -2 0.36493190E+00 0.26285703E+04</pdfrwt>
<totfact> 0.10841013E-02</totfact>
</mgrwt>
</event>
<event>
 4    5  0.2295023E-007  0.6780863E+03  0.7818608E-02  0.1010428E+00
         -2   -1    0    0    0  501 -0.00000000000E+00  0.00000000000E+00  0.10775702667E+04  0.10775702667E+04  0.25500000000E-02 0.  1.
          2   -1    0    0  501    0  0.00000000000E+00 -0.00000000000E+00 -0.21893743535E+04  0.21893743535E+04  0.25500000000E-02 0. -1.
    8880023    1    1    2    0    0 -0.96672118786E+02 -0.12901653476E+03  0.96437525419E+03  0.11789065281E+04  0.65864270000E+03 0.  1.
    8880022    1    1    2    0    0  0.96672118786E+02  0.12901653476E+03 -0.20761793411E+04  0.20880380921E+04  0.15294330000E+03 0.  0.
<mgrwt>
<rscale>  0 0.51305066E+03</rscale>
<asrwt>0</asrwt>
<pdfrwt beam="1">  1        2 0.33682682E+00 0.67808626E+03</pdfrwt>
<pdfrwt beam="2">  1       -2 0.16578004E+00 0.67808626E+03</pdfrwt>
<totfact> 0.12689349E+00</totfact>
</mgrwt>
</event>
<event>
 4    5  0.2295023E-007  0.9738112E+03  0.7818608E-02  0.9416652E-01
          2   -1    0    0  501    0  0.00000000000E+00  0.00000000000E+00  0.16951215737E+04  0.16951215737E+04  0.25500000000E-02 0. -1.
         -2   -1    0    0    0  501 -0.00000000000E+00 -0.00000000000E+00 -0.14719399850E+04  0.14719399850E+04  0.25500000000E-02 0.  1.
    8880023    1    1    2    0    0 -0.37745853745E+03 -0.60993695446E+03 -0.12123543261E+04  0.15550277342E+04  0.65864270000E+03 0.  0.
    8880022    1    1    2    0    0  0.37745853745E+03  0.60993695446E+03  0.14355359147E+04  0.16120338245E+04  0.15294330000E+03 0.  0.
<mgrwt>
<rscale>  0 0.90717845E+03</rscale>
<asrwt>0</asrwt>
<pdfrwt beam="1">  1        2 0.26078793E+00 0.97381119E+03</pdfrwt>
<pdfrwt beam="2">  1       -2 0.22645231E+00 0.97381119E+03</pdfrwt>
<totfact> 0.88915498E-01</totfact>
</mgrwt>
</event>
<event>
 4    5  0.2295023E-007  0.8621162E+03  0.7818608E-02  0.9589810E-01
         -2   -1    0    0    0  501 -0.00000000000E+00  0.00000000000E+00  0.49453463031E+03  0.49453463031E+03  0.25500000000E-02 0.  1.
          2   -1    0    0  501    0  0.00000000000E+00 -0.00000000000E+00 -0.13016524379E+04  0.13016524379E+04  0.25500000000E-02 0. -1.
    8880023    1    1    2    0    0  0.55626186275E+03 -0.26319719010E+01 -0.85891613729E+03  0.12169557611E+04  0.65864270000E+03 0.  0.
    8880022    1    1    2    0    0 -0.55626186275E+03  0.26319719010E+01  0.51798329688E+02  0.57923130716E+03  0.15294330000E+03 0.  0.
<mgrwt>
<rscale>  0 0.77974302E+03</rscale>
<asrwt>0</asrwt>
<pdfrwt beam="1">  1        2 0.20025422E+00 0.86211623E+03</pdfrwt>
<pdfrwt beam="2">  1       -2 0.76082251E-01 0.86211623E+03</pdfrwt>
<totfact> 0.25733702E+01</totfact>
</mgrwt>
</event>
<event>
 4    5  0.2295023E-007  0.1112797E+04  0.7818608E-02  0.9246941E-01
         -2   -1    0    0    0  501 -0.00000000000E+00  0.00000000000E+00  0.98636253725E+03  0.98636253726E+03  0.25500000000E-02 0.  1.
          2   -1    0    0  501    0  0.00000000000E+00 -0.00000000000E+00 -0.14450297561E+04  0.14450297561E+04  0.25500000000E-02 0. -1.
    8880023    1    1    2    0    0 -0.55292328960E+03 -0.70624496694E+03  0.39785570096E+03  0.11817806406E+04  0.65864270000E+03 0.  1.
    8880022    1    1    2    0    0  0.55292328960E+03  0.70624496694E+03 -0.85652291983E+03  0.12496116528E+04  0.15294330000E+03 0.  0.
<mgrwt>
<rscale>  0 0.10581785E+04</rscale>
<asrwt>0</asrwt>
<pdfrwt beam="1">  1        2 0.22231227E+00 0.11127966E+04</pdfrwt>
<pdfrwt beam="2">  1       -2 0.15174808E+00 0.11127966E+04</pdfrwt>
<totfact> 0.38845052E+00</totfact>
</mgrwt>
</event>
<event>
 4    5  0.2295023E-007  0.8268787E+03  0.7818608E-02  0.9655436E-01
          2   -1    0    0  501    0  0.00000000000E+00  0.00000000000E+00  0.17455779679E+04  0.17455779679E+04  0.25500000000E-02 0. -1.
         -2   -1    0    0    0  501 -0.00000000000E+00 -0.00000000000E+00 -0.59423836907E+03  0.59423836908E+03  0.25500000000E-02 0.  1.
    8880023    1    1    2    0    0  0.18049008574E+02  0.49959223093E+03 -0.23380472180E+03  0.85929797982E+03  0.65864270000E+03 0.  0.
    8880022    1    1    2    0    0 -0.18049008574E+02 -0.49959223093E+03  0.13851443206E+04  0.14805183572E+04  0.15294330000E+03 0.  0.
<mgrwt>
<rscale>  0 0.73733229E+03</rscale>
<asrwt>0</asrwt>
<pdfrwt beam="1">  1        2 0.26855045E+00 0.82687869E+03</pdfrwt>
<pdfrwt beam="2">  1       -2 0.91421291E-01 0.82687869E+03</pdfrwt>
<totfact> 0.96056617E+00</totfact>
</mgrwt>
</event>
<event>
 4    5  0.2295023E-007  0.9761085E+03  0.7818608E-02  0.9413505E-01
         -2   -1    0    0    0  501 -0.00000000000E+00  0.00000000000E+00  0.40464743099E+03  0.40464743100E+03  0.25500000000E-02 0.  1.
          2   -1    0    0  501    0  0.00000000000E+00 -0.00000000000E+00 -0.26075538418E+04  0.26075538418E+04  0.25500000000E-02 0. -1.
    8880023    1    1    2    0    0  0.40517188620E+02 -0.71926071326E+03 -0.38233810683E+03  0.10483178194E+04  0.65864270000E+03 0.  0.
    8880022    1    1    2    0    0 -0.40517188620E+02  0.71926071326E+03 -0.18205683040E+04  0.19638834535E+04  0.15294330000E+03 0.  0.
<mgrwt>
<rscale>  0 0.90972569E+03</rscale>
<asrwt>0</asrwt>
<pdfrwt beam="1">  1        2 0.40116212E+00 0.97610851E+03</pdfrwt>
<pdfrwt beam="2">  1       -2 0.62253453E-01 0.97610851E+03</pdfrwt>
<totfact> 0.73358291E+00</totfact>
</mgrwt>
</event>
<event>
 4    5  0.2295023E-007  0.6734202E+03  0.7818608E-02  0.1013321E+00
         -2   -1    0    0    0  501 -0.00000000000E+00  0.00000000000E+00  0.22776330473E+03  0.22776330475E+03  0.25500000000E-02 0.  1.
          2   -1    0    0  501    0  0.00000000000E+00 -0.00000000000E+00 -0.12944331575E+04  0.12944331575E+04  0.25500000000E-02 0. -1.
    8880023    1    1    2    0    0  0.13252502311E+03  0.46061949906E+02 -0.31695169737E+03  0.74428030318E+03  0.65864270000E+03 0.  1.
    8880022    1    1    2    0    0 -0.13252502311E+03 -0.46061949906E+02 -0.74971815539E+03  0.77791615905E+03  0.15294330000E+03 0.  0.
<mgrwt>
<rscale>  0 0.50175803E+03</rscale>
<asrwt>0</asrwt>
<pdfrwt beam="1">  1        2 0.19914356E+00 0.67342022E+03</pdfrwt>
<pdfrwt beam="2">  1       -2 0.35040509E-01 0.67342022E+03</pdfrwt>
<totfact> 0.12998544E+02</totfact>
</mgrwt>
</event>
<event>
 4    5  0.2295023E-007  0.1619306E+04  0.7818608E-02  0.8829683E-01
          2   -1    0    0  501    0  0.00000000000E+00  0.00000000000E+00  0.24540389455E+04  0.24540389455E+04  0.25500000000E-02 0. -1.
         -2   -1    0    0    0  501 -0.00000000000E+00 -0.00000000000E+00 -0.11153773599E+04  0.11153773599E+04  0.25500000000E-02 0.  1.
    8880023    1    1    2    0    0 -0.96135589770E+03 -0.11243382684E+04  0.13085275517E+04  0.20819212914E+04  0.65864270000E+03 0.  1.
    8880022    1    1    2    0    0  0.96135589770E+03  0.11243382684E+04  0.30134033896E+02  0.14874950141E+04  0.15294330000E+03 0.  0.
<mgrwt>
<rscale>  0 0.15852154E+04</rscale>
<asrwt>0</asrwt>
<pdfrwt beam="1">  1        2 0.37754445E+00 0.16193060E+04</pdfrwt>
<pdfrwt beam="2">  1       -2 0.17159652E+00 0.16193060E+04</pdfrwt>
<totfact> 0.71532935E-01</totfact>
</mgrwt>
</event>
<event>
 4    5  0.2295023E-007  0.7691994E+03  0.7818608E-02  0.9781848E-01
         -2   -1    0    0    0  501 -0.00000000000E+00  0.00000000000E+00  0.21967109059E+03  0.21967109060E+03  0.25500000000E-02 0.  1.
          2   -1    0    0  501    0  0.00000000000E+00 -0.00000000000E+00 -0.35130861152E+04  0.35130861152E+04  0.25500000000E-02 0. -1.
    8880023    1    1    2    0    0 -0.39536334415E+03  0.39310389545E+02 -0.52379371452E+03  0.93060600807E+03  0.65864270000E+03 0.  1.
    8880022    1    1    2    0    0  0.39536334415E+03 -0.39310389545E+02 -0.27696213101E+04  0.28021511977E+04  0.15294330000E+03 0.  0.
<mgrwt>
<rscale>  0 0.66345838E+03</rscale>
<asrwt>0</asrwt>
<pdfrwt beam="1">  1        2 0.54047475E+00 0.76919938E+03</pdfrwt>
<pdfrwt beam="2">  1       -2 0.33795555E-01 0.76919938E+03</pdfrwt>
<totfact> 0.70291718E+00</totfact>
</mgrwt>
</event>
<event>
 4    5  0.2295023E-007  0.1483171E+04  0.7818608E-02  0.8921611E-01
         -2   -1    0    0    0  501 -0.00000000000E+00  0.00000000000E+00  0.96074257200E+03  0.96074257200E+03  0.25500000000E-02 0.  1.
          2   -1    0    0  501    0  0.00000000000E+00 -0.00000000000E+00 -0.21078746761E+04  0.21078746761E+04  0.25500000000E-02 0. -1.
    8880023    1    1    2    0    0  0.67180309994E+03 -0.11465897588E+04 -0.39881217470E+03  0.15358544322E+04  0.65864270000E+03 0.  0.
    8880022    1    1    2    0    0 -0.67180309994E+03  0.11465897588E+04 -0.74831992938E+03  0.15327628159E+04  0.15294330000E+03 0.  0.
<mgrwt>
<rscale>  0 0.14453776E+04</rscale>
<asrwt>0</asrwt>
<pdfrwt beam="1">  1        2 0.32428841E+00 0.14831715E+04</pdfrwt>
<pdfrwt beam="2">  1       -2 0.14780655E+00 0.14831715E+04</pdfrwt>
<totfact> 0.17145777E+00</totfact>
</mgrwt>
</event>
<event>
 4    5  0.2295023E-007  0.7566214E+03  0.7818608E-02  0.9813934E-01
         -2   -1    0    0    0  501 -0.00000000000E+00  0.00000000000E+00  0.67985754903E+03  0.67985754903E+03  0.25500000000E-02 0.  1.
          2   -1    0    0  501    0  0.00000000000E+00 -0.00000000000E+00 -0.11693932446E+04  0.11693932447E+04  0.25500000000E-02 0. -1.
    8880023    1    1    2    0    0  0.14383656150E+03 -0.34347750828E+03  0.41228540844E+03  0.86165841225E+03  0.65864270000E+03 0.  0.
    8880022    1    1    2    0    0 -0.14383656150E+03  0.34347750828E+03 -0.90182110406E+03  0.98759238143E+03  0.15294330000E+03 0.  0.
<mgrwt>
<rscale>  0 0.64620093E+03</rscale>
<asrwt>0</asrwt>
<pdfrwt beam="1">  1        2 0.17990665E+00 0.75662141E+03</pdfrwt>
<pdfrwt beam="2">  1       -2 0.10459347E+00 0.75662141E+03</pdfrwt>
<totfact> 0.14928178E+01</totfact>
</mgrwt>
</event>
<event>
 4    5  0.2295023E-007  0.1126951E+04  0.7818608E-02  0.9231626E-01
         -2   -1    0    0    0  501 -0.00000000000E+00  0.00000000000E+00  0.18048230291E+04  0.18048230291E+04  0.25500000000E-02 0.  1.
          2   -1    0    0  501    0  0.00000000000E+00 -0.00000000000E+00 -0.78868288576E+03  0.78868288576E+03  0.25500000000E-02 0. -1.
    8880023    1    1    2    0    0  0.19117348233E+03 -0.89423823748E+03  0.12022606500E+04  0.16478623130E+04  0.65864270000E+03 0.  0.
    8880022    1    1    2    0    0 -0.19117348233E+03  0.89423823748E+03 -0.18612050667E+03  0.94564360186E+03  0.15294330000E+03 0.  0.
<mgrwt>
<rscale>  0 0.10732874E+04</rscale>
<asrwt>0</asrwt>
<pdfrwt beam="1">  1        2 0.12133583E+00 0.11269514E+04</pdfrwt>
<pdfrwt beam="2">  1       -2 0.27766508E+00 0.11269514E+04</pdfrwt>
<totfact> 0.15070000E+00</totfact>
</mgrwt>
</event>
<event>
 4    5  0.2295023E-007  0.8938326E+03  0.7818608E-02  0.9536006E-01
          2   -1    0    0  501    0  0.00000000000E+00  0.00000000000E+00  0.54498080983E+03  0.54498080984E+03  0.25500000000E-02 0. -1.
         -2   -1    0    0    0  501 -0.00000000000E+00 -0.00000000000E+00 -0.12089774078E+04  0.12089774078E+04  0.25500000000E-02 0.  1.
    8880023    1    1    2    0    0 -0.16963525636E+03  0.57995720403E+03 -0.69141927407E+03  0.11300430512E+04  0.65864270000E+03 0.  1.
    8880022    1    1    2    0    0  0.16963525636E+03 -0.57995720403E+03  0.27422676141E+02  0.62391516642E+03  0.15294330000E+03 0.  0.
<mgrwt>
<rscale>  0 0.81680530E+03</rscale>
<asrwt>0</asrwt>
<pdfrwt beam="1">  1        2 0.83843202E-01 0.89383258E+03</pdfrwt>
<pdfrwt beam="2">  1       -2 0.18599652E+00 0.89383258E+03</pdfrwt>
<totfact> 0.92107785E+00</totfact>
</mgrwt>
</event>
<event>
 4    5  0.2295023E-007  0.7008811E+03  0.7818608E-02  0.9993566E-01
         -2   -1    0    0    0  501 -0.00000000000E+00  0.00000000000E+00  0.10024316667E+03  0.10024316671E+03  0.25500000000E-02 0.  1.
          2   -1    0    0  501    0  0.00000000000E+00 -0.00000000000E+00 -0.31779334863E+04  0.31779334863E+04  0.25500000000E-02 0. -1.
    8880023    1    1    2    0    0 -0.18591068858E+03  0.15119959758E+03 -0.12907500062E+04  0.14687647487E+04  0.65864270000E+03 0.  1.
    8880022    1    1    2    0    0  0.18591068858E+03 -0.15119959758E+03 -0.17869403135E+04  0.18094119043E+04  0.15294330000E+03 0.  0.
<mgrwt>
<rscale>  0 0.55933277E+03</rscale>
<asrwt>0</asrwt>
<pdfrwt beam="1">  1        2 0.48891277E+00 0.70088109E+03</pdfrwt>
<pdfrwt beam="2">  1       -2 0.15422028E-01 0.70088109E+03</pdfrwt>
<totfact> 0.47950220E+01</totfact>
</mgrwt>
</event>
<event>
 4    5  0.2295023E-007  0.6957032E+03  0.7818608E-02  0.1001552E+00
         -2   -1    0    0    0  501 -0.00000000000E+00  0.00000000000E+00  0.12744150736E+04  0.12744150736E+04  0.25500000000E-02 0.  1.
          2   -1    0    0  501    0  0.00000000000E+00 -0.00000000000E+00 -0.16331808630E+04  0.16331808630E+04  0.25500000000E-02 0. -1.
    8880023    1    1    2    0    0  0.11613015979E+03  0.19158948120E+03  0.11666027937E+04  0.13582948972E+04  0.65864270000E+03 0.  1.
    8880022    1    1    2    0    0 -0.11613015979E+03 -0.19158948120E+03 -0.15253685831E+04  0.15493010394E+04  0.15294330000E+03 0.  0.
<mgrwt>
<rscale>  0 0.54975124E+03</rscale>
<asrwt>0</asrwt>
<pdfrwt beam="1">  1        2 0.25125859E+00 0.69570321E+03</pdfrwt>
<pdfrwt beam="2">  1       -2 0.19606386E+00 0.69570321E+03</pdfrwt>
<totfact> 0.15772358E+00</totfact>
</mgrwt>
</event>
<event>
 4    5  0.2295023E-007  0.1103517E+04  0.7818608E-02  0.9257151E-01
          2   -1    0    0  501    0  0.00000000000E+00  0.00000000000E+00  0.31574640645E+04  0.31574640645E+04  0.25500000000E-02 0. -1.
         -2   -1    0    0    0  501 -0.00000000000E+00 -0.00000000000E+00 -0.66210717374E+03  0.66210717374E+03  0.25500000000E-02 0.  1.
    8880023    1    1    2    0    0 -0.62337644653E+03 -0.62876112036E+03 -0.65699819696E+02  0.11054706749E+04  0.65864270000E+03 0.  1.
    8880022    1    1    2    0    0  0.62337644653E+03  0.62876112036E+03  0.25610567104E+04  0.27141005633E+04  0.15294330000E+03 0.  0.
<mgrwt>
<rscale>  0 0.10482517E+04</rscale>
<asrwt>0</asrwt>
<pdfrwt beam="1">  1        2 0.48576370E+00 0.11035166E+04</pdfrwt>
<pdfrwt beam="2">  1       -2 0.10186264E+00 0.11035166E+04</pdfrwt>
<totfact> 0.11000160E+00</totfact>
</mgrwt>
</event>
<event>
 4    5  0.2543811E-007  0.1796037E+04  0.7818608E-02  0.8724732E-01
          2   -1    0    0  501    0  0.00000000000E+00  0.00000000000E+00  0.25525809078E+04  0.25525809078E+04  0.25500000000E-02 0. -1.
         -2   -1    0    0    0  501 -0.00000000000E+00 -0.00000000000E+00 -0.23632085368E+04  0.23632085368E+04  0.25500000000E-02 0.  1.
    8880023    1    1    2    0    0  0.74477596993E+03 -0.14957432203E+04 -0.16409324045E+04  0.24327779161E+04  0.65864270000E+03 0.  0.
    8880022    1    1    2    0    0 -0.74477596993E+03  0.14957432203E+04  0.18303047755E+04  0.24830115285E+04  0.15294330000E+03 0.  0.
<mgrwt>
<rscale>  0 0.17657436E+04</rscale>
<asrwt>0</asrwt>
<pdfrwt beam="1">  1        2 0.39270476E+00 0.17960371E+04</pdfrwt>
<pdfrwt beam="2">  1       -2 0.36357054E+00 0.17960371E+04</pdfrwt>
<totfact> 0.37422942E-02</totfact>
</mgrwt>
</event>
<event>
 4    5  0.2295023E-007  0.9832087E+03  0.7818608E-02  0.9403863E-01
          2   -1    0    0  501    0  0.00000000000E+00  0.00000000000E+00  0.24285285067E+04  0.24285285067E+04  0.25500000000E-02 0. -1.
         -2   -1    0    0    0  501 -0.00000000000E+00 -0.00000000000E+00 -0.51248274176E+03  0.51248274176E+03  0.25500000000E-02 0.  1.
    8880023    1    1    2    0    0  0.71341829991E+03 -0.15467237907E+03  0.11286239413E+03  0.98966526754E+03  0.65864270000E+03 0.  0.
    8880022    1    1    2    0    0 -0.71341829991E+03  0.15467237907E+03  0.18031833709E+04  0.19513459810E+04  0.15294330000E+03 0.  0.
<mgrwt>
<rscale>  0 0.91758449E+03</rscale>
<asrwt>0</asrwt>
<pdfrwt beam="1">  1        2 0.37361976E+00 0.98320874E+03</pdfrwt>
<pdfrwt beam="2">  1       -2 0.78843501E-01 0.98320874E+03</pdfrwt>
<totfact> 0.55294267E+00</totfact>
</mgrwt>
</event>
<event>
 4    5  0.2480932E-007  0.1475298E+04  0.7818608E-02  0.8927278E-01
         -2   -1    0    0    0  501 -0.00000000000E+00  0.00000000000E+00  0.19520628746E+04  0.19520628746E+04  0.25500000000E-02 0.  1.
          2   -1    0    0  501    0  0.00000000000E+00 -0.00000000000E+00 -0.20328023134E+04  0.20328023134E+04  0.25500000000E-02 0. -1.
    8880023    1    1    2    0    0 -0.50400511739E+03 -0.12201121276E+04  0.13729189620E+04  0.20152943816E+04  0.65864270000E+03 0.  0.
    8880022    1    1    2    0    0  0.50400511739E+03  0.12201121276E+04 -0.14536584008E+04  0.19695708064E+04  0.15294330000E+03 0.  0.
<mgrwt>
<rscale>  0 0.14372634E+04</rscale>
<asrwt>0</asrwt>
<pdfrwt beam="1">  1        2 0.31273882E+00 0.14752983E+04</pdfrwt>
<pdfrwt beam="2">  1       -2 0.30031736E+00 0.14752983E+04</pdfrwt>
<totfact> 0.19069660E-01</totfact>
</mgrwt>
</event>
<event>
 4    5  0.2295023E-007  0.7019261E+03  0.7818608E-02  0.9989303E-01
          2   -1    0    0  501    0  0.00000000000E+00  0.00000000000E+00  0.15249859903E+04  0.15249859903E+04  0.25500000000E-02 0. -1.
         -2   -1    0    0    0  501 -0.00000000000E+00 -0.00000000000E+00 -0.48987991953E+03  0.48987991954E+03  0.25500000000E-02 0.  1.
    8880023    1    1    2    0    0 -0.21791468091E+03  0.10678565841E+03 -0.21354483226E+03  0.73369038882E+03  0.65864270000E+03 0.  1.
    8880022    1    1    2    0    0  0.21791468091E+03 -0.10678565841E+03  0.12486509031E+04  0.12811755211E+04  0.15294330000E+03 0.  0.
<mgrwt>
<rscale>  0 0.56121774E+03</rscale>
<asrwt>0</asrwt>
<pdfrwt beam="1">  1        2 0.23461323E+00 0.70192606E+03</pdfrwt>
<pdfrwt beam="2">  1       -2 0.75366141E-01 0.70192606E+03</pdfrwt>
<totfact> 0.20007096E+01</totfact>
</mgrwt>
</event>
<event>
 4    5  0.2295023E-007  0.1029528E+04  0.7818608E-02  0.9343906E-01
         -2   -1    0    0    0  501 -0.00000000000E+00  0.00000000000E+00  0.92169688843E+03  0.92169688844E+03  0.25500000000E-02 0.  1.
          2   -1    0    0  501    0  0.00000000000E+00 -0.00000000000E+00 -0.24856830585E+04  0.24856830585E+04  0.25500000000E-02 0. -1.
    8880023    1    1    2    0    0 -0.10584463981E+03 -0.78416474186E+03  0.53410566931E+03  0.11598260656E+04  0.65864270000E+03 0.  0.
    8880022    1    1    2    0    0  0.10584463981E+03  0.78416474186E+03 -0.20980918394E+04  0.22475538814E+04  0.15294330000E+03 0.  0.
<mgrwt>
<rscale>  0 0.96839321E+03</rscale>
<asrwt>0</asrwt>
<pdfrwt beam="1">  1        2 0.38241278E+00 0.10295279E+04</pdfrwt>
<pdfrwt beam="2">  1       -2 0.14179952E+00 0.10295279E+04</pdfrwt>
<totfact> 0.12342458E+00</totfact>
</mgrwt>
</event>
<event>
 4    5  0.2295023E-007  0.1025511E+04  0.7818608E-02  0.9348917E-01
          2   -1    0    0  501    0  0.00000000000E+00  0.00000000000E+00  0.24687147913E+04  0.24687147913E+04  0.25500000000E-02 0. -1.
         -2   -1    0    0    0  501 -0.00000000000E+00 -0.00000000000E+00 -0.40938562807E+03  0.40938562808E+03  0.25500000000E-02 0.  1.
    8880023    1    1    2    0    0 -0.16560566309E+03 -0.76839893956E+03  0.53605091597E+03  0.11571615949E+04  0.65864270000E+03 0.  0.
    8880022    1    1    2    0    0  0.16560566309E+03  0.76839893956E+03  0.15232782473E+04  0.17209388245E+04  0.15294330000E+03 0.  0.
<mgrwt>
<rscale>  0 0.96401529E+03</rscale>
<asrwt>0</asrwt>
<pdfrwt beam="1">  1        2 0.37980227E+00 0.10255108E+04</pdfrwt>
<pdfrwt beam="2">  1       -2 0.62982405E-01 0.10255108E+04</pdfrwt>
<totfact> 0.85442983E+00</totfact>
</mgrwt>
</event>
<event>
 4    5  0.2295023E-007  0.1003761E+04  0.7818608E-02  0.9376654E-01
         -2   -1    0    0    0  501 -0.00000000000E+00  0.00000000000E+00  0.44033660002E+03  0.44033660003E+03  0.25500000000E-02 0.  1.
          2   -1    0    0  501    0  0.00000000000E+00 -0.00000000000E+00 -0.23721831882E+04  0.23721831882E+04  0.25500000000E-02 0. -1.
    8880023    1    1    2    0    0  0.53589895183E+03  0.53529202773E+03 -0.36966116779E+03  0.10696657547E+04  0.65864270000E+03 0.  0.
    8880022    1    1    2    0    0 -0.53589895183E+03 -0.53529202773E+03 -0.15621854204E+04  0.17428540335E+04  0.15294330000E+03 0.  0.
<mgrwt>
<rscale>  0 0.94022121E+03</rscale>
<asrwt>0</asrwt>
<pdfrwt beam="1">  1        2 0.36495125E+00 0.10037607E+04</pdfrwt>
<pdfrwt beam="2">  1       -2 0.67744094E-01 0.10037607E+04</pdfrwt>
<totfact> 0.83028186E+00</totfact>
</mgrwt>
</event>
<event>
 4    5  0.2295023E-007  0.7281478E+03  0.7818608E-02  0.9895923E-01
         -2   -1    0    0    0  501 -0.00000000000E+00  0.00000000000E+00  0.11016053204E+04  0.11016053204E+04  0.25500000000E-02 0.  1.
          2   -1    0    0  501    0  0.00000000000E+00 -0.00000000000E+00 -0.22037549757E+04  0.22037549757E+04  0.25500000000E-02 0. -1.
    8880023    1    1    2    0    0 -0.30969710494E+03 -0.21833162329E+02  0.96530521311E+03  0.12091374382E+04  0.65864270000E+03 0.  0.
    8880022    1    1    2    0    0  0.30969710494E+03  0.21833162329E+02 -0.20674548684E+04  0.20962228579E+04  0.15294330000E+03 0. -1.
<mgrwt>
<rscale>  0 0.60459281E+03</rscale>
<asrwt>0</asrwt>
<pdfrwt beam="1">  1        2 0.33903923E+00 0.72814778E+03</pdfrwt>
<pdfrwt beam="2">  1       -2 0.16947774E+00 0.72814778E+03</pdfrwt>
<totfact> 0.11598509E+00</totfact>
</mgrwt>
</event>
<event>
 4    5  0.2295023E-007  0.8241023E+03  0.7818608E-02  0.9660918E-01
          2   -1    0    0  501    0  0.00000000000E+00  0.00000000000E+00  0.95469284851E+03  0.95469284852E+03  0.25500000000E-02 0. -1.
         -2   -1    0    0    0  501 -0.00000000000E+00 -0.00000000000E+00 -0.13060839486E+04  0.13060839486E+04  0.25500000000E-02 0.  1.
    8880023    1    1    2    0    0 -0.49387591462E+03 -0.37696332833E+02 -0.10850059485E+04  0.13624913017E+04  0.65864270000E+03 0.  1.
    8880022    1    1    2    0    0  0.49387591462E+03  0.37696332833E+02  0.73361484841E+03  0.89828549547E+03  0.15294330000E+03 0.  0.
<mgrwt>
<rscale>  0 0.73392145E+03</rscale>
<asrwt>0</asrwt>
<pdfrwt beam="1">  1        2 0.14687582E+00 0.82410232E+03</pdfrwt>
<pdfrwt beam="2">  1       -2 0.20093599E+00 0.82410232E+03</pdfrwt>
<totfact> 0.35820678E+00</totfact>
</mgrwt>
</event>
<event>
 4    5  0.2295023E-007  0.8312549E+03  0.7818608E-02  0.9646896E-01
          2   -1    0    0  501    0  0.00000000000E+00  0.00000000000E+00  0.59449990613E+03  0.59449990614E+03  0.25500000000E-02 0. -1.
         -2   -1    0    0    0  501 -0.00000000000E+00 -0.00000000000E+00 -0.11634550890E+04  0.11634550890E+04  0.25500000000E-02 0.  1.
    8880023    1    1    2    0    0 -0.19699922239E+03  0.46729620561E+03 -0.82365927229E+03  0.11702133312E+04  0.65864270000E+03 0.  1.
    8880022    1    1    2    0    0  0.19699922239E+03 -0.46729620561E+03  0.25470408940E+03  0.58774166397E+03  0.15294330000E+03 0.  0.
<mgrwt>
<rscale>  0 0.74268567E+03</rscale>
<asrwt>0</asrwt>
<pdfrwt beam="1">  1        2 0.91461524E-01 0.83125486E+03</pdfrwt>
<pdfrwt beam="2">  1       -2 0.17899309E+00 0.83125486E+03</pdfrwt>
<totfact> 0.93211380E+00</totfact>
</mgrwt>
</event>
<event>
 4    5  0.2295023E-007  0.9584382E+03  0.7818608E-02  0.9438076E-01
          2   -1    0    0  501    0  0.00000000000E+00  0.00000000000E+00  0.38001284097E+04  0.38001284097E+04  0.25500000000E-02 0. -1.
         -2   -1    0    0    0  501 -0.00000000000E+00 -0.00000000000E+00 -0.12387502994E+04  0.12387502994E+04  0.25500000000E-02 0.  1.
    8880023    1    1    2    0    0  0.68300009253E+03  0.13529401711E+03 -0.10127395686E+04  0.13943619464E+04  0.65864270000E+03 0.  0.
    8880022    1    1    2    0    0 -0.68300009253E+03 -0.13529401711E+03  0.35741176789E+04  0.36445167627E+04  0.15294330000E+03 0.  0.
<mgrwt>
<rscale>  0 0.89007345E+03</rscale>
<asrwt>0</asrwt>
<pdfrwt beam="1">  1        2 0.58463514E+00 0.95843821E+03</pdfrwt>
<pdfrwt beam="2">  1       -2 0.19057697E+00 0.95843821E+03</pdfrwt>
<totfact> 0.79280658E-02</totfact>
</mgrwt>
</event>
<event>
 4    5  0.2295023E-007  0.1016894E+04  0.7818608E-02  0.9359782E-01
         -2   -1    0    0    0  501 -0.00000000000E+00  0.00000000000E+00  0.11990347594E+04  0.11990347594E+04  0.25500000000E-02 0.  1.
          2   -1    0    0  501    0  0.00000000000E+00 -0.00000000000E+00 -0.12471040650E+04  0.12471040650E+04  0.25500000000E-02 0. -1.
    8880023    1    1    2    0    0 -0.51493044590E+03 -0.57888648451E+03  0.79514371902E+03  0.12908627604E+04  0.65864270000E+03 0.  0.
    8880022    1    1    2    0    0  0.51493044590E+03  0.57888648451E+03 -0.84321302463E+03  0.11552760640E+04  0.15294330000E+03 0.  0.
<mgrwt>
<rscale>  0 0.95460726E+03</rscale>
<asrwt>0</asrwt>
<pdfrwt beam="1">  1        2 0.19186216E+00 0.10168939E+04</pdfrwt>
<pdfrwt beam="2">  1       -2 0.18446689E+00 0.10168939E+04</pdfrwt>
<totfact> 0.29695707E+00</totfact>
</mgrwt>
</event>
<event>
 4    5  0.2295023E-007  0.7495365E+03  0.7818608E-02  0.9832991E-01
         -2   -1    0    0    0  501 -0.00000000000E+00  0.00000000000E+00  0.24876540566E+03  0.24876540567E+03  0.25500000000E-02 0.  1.
          2   -1    0    0  501    0  0.00000000000E+00 -0.00000000000E+00 -0.13481872723E+04  0.13481872723E+04  0.25500000000E-02 0. -1.
    8880023    1    1    2    0    0 -0.35169164436E+03 -0.65633425281E+02 -0.85697665125E+03  0.11385139201E+04  0.65864270000E+03 0. -1.
    8880022    1    1    2    0    0  0.35169164436E+03  0.65633425281E+02 -0.24244521538E+03  0.45843875785E+03  0.15294330000E+03 0.  1.
<mgrwt>
<rscale>  0 0.63621727E+03</rscale>
<asrwt>0</asrwt>
<pdfrwt beam="1">  1        2 0.20741342E+00 0.74953650E+03</pdfrwt>
<pdfrwt beam="2">  1       -2 0.38271602E-01 0.74953650E+03</pdfrwt>
<totfact> 0.10157299E+02</totfact>
</mgrwt>
</event>
<event>
 4    5  0.2295023E-007  0.9141239E+03  0.7818608E-02  0.9503728E-01
          2   -1    0    0  501    0  0.00000000000E+00  0.00000000000E+00  0.12322397081E+04  0.12322397081E+04  0.25500000000E-02 0. -1.
         -2   -1    0    0    0  501 -0.00000000000E+00 -0.00000000000E+00 -0.17502525537E+04  0.17502525537E+04  0.25500000000E-02 0.  1.
    8880023    1    1    2    0    0  0.50838965168E+03 -0.37861891620E+03 -0.15278419267E+04  0.17804278926E+04  0.65864270000E+03 0.  1.
    8880022    1    1    2    0    0 -0.50838965168E+03  0.37861891620E+03  0.10098290811E+04  0.12020643692E+04  0.15294330000E+03 0.  0.
<mgrwt>
<rscale>  0 0.84009513E+03</rscale>
<asrwt>0</asrwt>
<pdfrwt beam="1">  1        2 0.18957534E+00 0.91412391E+03</pdfrwt>
<pdfrwt beam="2">  1       -2 0.26926962E+00 0.91412391E+03</pdfrwt>
<totfact> 0.89847134E-01</totfact>
</mgrwt>
</event>
<event>
 4    5  0.2295023E-007  0.7118434E+03  0.7818608E-02  0.9951218E-01
         -2   -1    0    0    0  501 -0.00000000000E+00  0.00000000000E+00  0.42295471073E+03  0.42295471074E+03  0.25500000000E-02 0.  1.
          2   -1    0    0  501    0  0.00000000000E+00 -0.00000000000E+00 -0.15179511408E+04  0.15179511408E+04  0.25500000000E-02 0. -1.
    8880023    1    1    2    0    0  0.18942856815E+03  0.19242566790E+03  0.88570073348E+02  0.71733233878E+03  0.65864270000E+03 0.  0.
    8880022    1    1    2    0    0 -0.18942856815E+03 -0.19242566790E+03 -0.11835665035E+04  0.12235735128E+04  0.15294330000E+03 0. -1.
<mgrwt>
<rscale>  0 0.57841964E+03</rscale>
<asrwt>0</asrwt>
<pdfrwt beam="1">  1        2 0.23353094E+00 0.71184340E+03</pdfrwt>
<pdfrwt beam="2">  1       -2 0.65069956E-01 0.71184340E+03</pdfrwt>
<totfact> 0.27778277E+01</totfact>
</mgrwt>
</event>
<event>
 4    5  0.2295023E-007  0.8562691E+03  0.7818608E-02  0.9600235E-01
          2   -1    0    0  501    0  0.00000000000E+00  0.00000000000E+00  0.14553710607E+04  0.14553710607E+04  0.25500000000E-02 0. -1.
         -2   -1    0    0    0  501 -0.00000000000E+00 -0.00000000000E+00 -0.23074751752E+04  0.23074751752E+04  0.25500000000E-02 0.  1.
    8880023    1    1    2    0    0 -0.21783564188E+03 -0.50193042531E+03 -0.21672275313E+04  0.23302514666E+04  0.65864270000E+03 0.  1.
    8880022    1    1    2    0    0  0.21783564188E+03  0.50193042531E+03  0.13151234168E+04  0.14325947694E+04  0.15294330000E+03 0.  0.
<mgrwt>
<rscale>  0 0.77280641E+03</rscale>
<asrwt>0</asrwt>
<pdfrwt beam="1">  1        2 0.22390324E+00 0.85626907E+03</pdfrwt>
<pdfrwt beam="2">  1       -2 0.35499618E+00 0.85626907E+03</pdfrwt>
<totfact> 0.20285250E-01</totfact>
</mgrwt>
</event>
<event>
 4    5  0.2295023E-007  0.9448206E+03  0.7818608E-02  0.9457606E-01
         -2   -1    0    0    0  501 -0.00000000000E+00  0.00000000000E+00  0.54117433179E+03  0.54117433180E+03  0.25500000000E-02 0.  1.
          2   -1    0    0  501    0  0.00000000000E+00 -0.00000000000E+00 -0.17500405082E+04  0.17500405082E+04  0.25500000000E-02 0. -1.
    8880023    1    1    2    0    0  0.67583744125E+03  0.46037431848E+02 -0.57424262044E+02  0.94656402016E+03  0.65864270000E+03 0.  1.
    8880022    1    1    2    0    0 -0.67583744125E+03 -0.46037431848E+02 -0.11514419144E+04  0.13446508199E+04  0.15294330000E+03 0.  0.
<mgrwt>
<rscale>  0 0.87482862E+03</rscale>
<asrwt>0</asrwt>
<pdfrwt beam="1">  1        2 0.26923700E+00 0.94482056E+03</pdfrwt>
<pdfrwt beam="2">  1       -2 0.83257590E-01 0.94482056E+03</pdfrwt>
<totfact> 0.11674292E+01</totfact>
</mgrwt>
</event>
<event>
 4    5  0.2295023E-007  0.6832679E+03  0.7818608E-02  0.1007532E+00
          2   -1    0    0  501    0  0.00000000000E+00  0.00000000000E+00  0.14678283887E+04  0.14678283887E+04  0.25500000000E-02 0. -1.
         -2   -1    0    0    0  501 -0.00000000000E+00 -0.00000000000E+00 -0.32924264206E+03  0.32924264207E+03  0.25500000000E-02 0.  1.
    8880023    1    1    2    0    0  0.13672612819E+03 -0.11979463789E+03  0.52471806944E+02  0.68527971383E+03  0.65864270000E+03 0.  1.
    8880022    1    1    2    0    0 -0.13672612819E+03  0.11979463789E+03  0.10861139397E+04  0.11117913169E+04  0.15294330000E+03 0.  0.
<mgrwt>
<rscale>  0 0.52467239E+03</rscale>
<asrwt>0</asrwt>
<pdfrwt beam="1">  1        2 0.22581975E+00 0.68326788E+03</pdfrwt>
<pdfrwt beam="2">  1       -2 0.50652715E-01 0.68326788E+03</pdfrwt>
<totfact> 0.50182620E+01</totfact>
</mgrwt>
</event>
<event>
 4    5  0.2295023E-007  0.1475630E+04  0.7818608E-02  0.8927039E-01
         -2   -1    0    0    0  501 -0.00000000000E+00  0.00000000000E+00  0.72925814209E+03  0.72925814209E+03  0.25500000000E-02 0.  1.
          2   -1    0    0  501    0  0.00000000000E+00 -0.00000000000E+00 -0.31567652180E+04  0.31567652180E+04  0.25500000000E-02 0. -1.
    8880023    1    1    2    0    0 -0.12899270314E+04  0.28242136966E+03 -0.52731880610E+03  0.15670191147E+04  0.65864270000E+03 0.  0.
    8880022    1    1    2    0    0  0.12899270314E+04 -0.28242136966E+03 -0.19001882698E+04  0.23190042454E+04  0.15294330000E+03 0.  0.
<mgrwt>
<rscale>  0 0.14376053E+04</rscale>
<asrwt>0</asrwt>
<pdfrwt beam="1">  1        2 0.48565618E+00 0.14756300E+04</pdfrwt>
<pdfrwt beam="2">  1       -2 0.11219356E+00 0.14756300E+04</pdfrwt>
<totfact> 0.83016286E-01</totfact>
</mgrwt>
</event>
<event>
 4    5  0.2295023E-007  0.1069527E+04  0.7818608E-02  0.9295768E-01
          2   -1    0    0  501    0  0.00000000000E+00  0.00000000000E+00  0.51888604555E+03  0.51888604556E+03  0.25500000000E-02 0. -1.
         -2   -1    0    0    0  501 -0.00000000000E+00 -0.00000000000E+00 -0.24286362979E+04  0.24286362979E+04  0.25500000000E-02 0.  1.
    8880023    1    1    2    0    0 -0.13992196384E+02 -0.84254442238E+03 -0.17866291582E+04  0.20822898070E+04  0.65864270000E+03 0.  0.
    8880022    1    1    2    0    0  0.13992196384E+02  0.84254442238E+03 -0.12312109413E+03  0.86523253642E+03  0.15294330000E+03 0.  0.
<mgrwt>
<rscale>  0 0.10117341E+04</rscale>
<asrwt>0</asrwt>
<pdfrwt beam="1">  1        2 0.79828624E-01 0.10695266E+04</pdfrwt>
<pdfrwt beam="2">  1       -2 0.37363635E+00 0.10695266E+04</pdfrwt>
<totfact> 0.65400387E-01</totfact>
</mgrwt>
</event>
<event>
 4    5  0.2295023E-007  0.7453243E+03  0.7818608E-02  0.9844701E-01
         -2   -1    0    0    0  501 -0.00000000000E+00  0.00000000000E+00  0.45777951599E+03  0.45777951599E+03  0.25500000000E-02 0.  1.
          2   -1    0    0  501    0  0.00000000000E+00 -0.00000000000E+00 -0.23254263757E+04  0.23254263757E+04  0.25500000000E-02 0. -1.
    8880023    1    1    2    0    0  0.18615215822E+03  0.29503474166E+03  0.12390639177E+03  0.75555352225E+03  0.65864270000E+03 0.  1.
    8880022    1    1    2    0    0 -0.18615215822E+03 -0.29503474166E+03 -0.19915532514E+04  0.20276523694E+04  0.15294330000E+03 0.  0.
<mgrwt>
<rscale>  0 0.63017848E+03</rscale>
<asrwt>0</asrwt>
<pdfrwt beam="1">  1        2 0.35775790E+00 0.74532431E+03</pdfrwt>
<pdfrwt beam="2">  1       -2 0.70427619E-01 0.74532431E+03</pdfrwt>
<totfact> 0.84047636E+00</totfact>
</mgrwt>
</event>
<event>
 4    5  0.2295023E-007  0.8881173E+03  0.7818608E-02  0.9545383E-01
         -2   -1    0    0    0  501 -0.00000000000E+00  0.00000000000E+00  0.15653899028E+04  0.15653899028E+04  0.25500000000E-02 0.  1.
          2   -1    0    0  501    0  0.00000000000E+00 -0.00000000000E+00 -0.61749352000E+03  0.61749352000E+03  0.25500000000E-02 0. -1.
    8880023    1    1    2    0    0  0.57942533070E+03  0.13859448792E+03  0.12210480346E+04  0.15098710723E+04  0.65864270000E+03 0.  0.
    8880022    1    1    2    0    0 -0.57942533070E+03 -0.13859448792E+03 -0.27315165184E+03  0.67301235045E+03  0.15294330000E+03 0.  0.
<mgrwt>
<rscale>  0 0.81019049E+03</rscale>
<asrwt>0</asrwt>
<pdfrwt beam="1">  1        2 0.94999002E-01 0.88811731E+03</pdfrwt>
<pdfrwt beam="2">  1       -2 0.24082922E+00 0.88811731E+03</pdfrwt>
<totfact> 0.35412676E+00</totfact>
</mgrwt>
</event>
<event>
 4    5  0.2295023E-007  0.9776878E+03  0.7818608E-02  0.9411349E-01
         -2   -1    0    0    0  501 -0.00000000000E+00  0.00000000000E+00  0.52459410267E+03  0.52459410268E+03  0.25500000000E-02 0.  1.
          2   -1    0    0  501    0  0.00000000000E+00 -0.00000000000E+00 -0.16815615406E+04  0.16815615407E+04  0.25500000000E-02 0. -1.
    8880023    1    1    2    0    0 -0.54262159029E+03 -0.47710061567E+03 -0.20101109657E+03  0.99813769337E+03  0.65864270000E+03 0.  0.
    8880022    1    1    2    0    0  0.54262159029E+03  0.47710061567E+03 -0.95595634141E+03  0.12080179500E+04  0.15294330000E+03 0.  0.
<mgrwt>
<rscale>  0 0.91147548E+03</rscale>
<asrwt>0</asrwt>
<pdfrwt beam="1">  1        2 0.25870177E+00 0.97768778E+03</pdfrwt>
<pdfrwt beam="2">  1       -2 0.80706786E-01 0.97768778E+03</pdfrwt>
<totfact> 0.13618632E+01</totfact>
</mgrwt>
</event>
<event>
 4    5  0.2295023E-007  0.9207874E+03  0.7818608E-02  0.9493453E-01
          2   -1    0    0  501    0  0.00000000000E+00  0.00000000000E+00  0.80705888612E+03  0.80705888613E+03  0.25500000000E-02 0. -1.
         -2   -1    0    0    0  501 -0.00000000000E+00 -0.00000000000E+00 -0.14461402539E+04  0.14461402539E+04  0.25500000000E-02 0.  1.
    8880023    1    1    2    0    0  0.28554996720E+03  0.57662849042E+03 -0.11093239408E+04  0.14416827014E+04  0.65864270000E+03 0.  1.
    8880022    1    1    2    0    0 -0.28554996720E+03 -0.57662849042E+03  0.47024257297E+03  0.81151643864E+03  0.15294330000E+03 0.  0.
<mgrwt>
<rscale>  0 0.84768246E+03</rscale>
<asrwt>0</asrwt>
<pdfrwt beam="1">  1        2 0.12416291E+00 0.92078738E+03</pdfrwt>
<pdfrwt beam="2">  1       -2 0.22248312E+00 0.92078738E+03</pdfrwt>
<totfact> 0.32562493E+00</totfact>
</mgrwt>
</event>
<event>
 4    5  0.2295023E-007  0.9235106E+03  0.7818608E-02  0.9489297E-01
          2   -1    0    0  501    0  0.00000000000E+00  0.00000000000E+00  0.21786774852E+04  0.21786774852E+04  0.25500000000E-02 0. -1.
         -2   -1    0    0    0  501 -0.00000000000E+00 -0.00000000000E+00 -0.54746432644E+03  0.54746432645E+03  0.25500000000E-02 0.  1.
    8880023    1    1    2    0    0  0.64069992843E+03 -0.92548418457E+02 -0.43122336286E+02  0.92451681986E+03  0.65864270000E+03 0.  0.
    8880022    1    1    2    0    0 -0.64069992843E+03  0.92548418457E+02  0.16743354950E+04  0.18016249918E+04  0.15294330000E+03 0.  0.
<mgrwt>
<rscale>  0 0.85077523E+03</rscale>
<asrwt>0</asrwt>
<pdfrwt beam="1">  1        2 0.33518115E+00 0.92351059E+03</pdfrwt>
<pdfrwt beam="2">  1       -2 0.84225282E-01 0.92351059E+03</pdfrwt>
<totfact> 0.66233214E+00</totfact>
</mgrwt>
</event>
<event>
 4    5  0.2295023E-007  0.7964391E+03  0.7818608E-02  0.9718549E-01
          2   -1    0    0  501    0  0.00000000000E+00  0.00000000000E+00  0.34321301094E+03  0.34321301095E+03  0.25500000000E-02 0. -1.
         -2   -1    0    0    0  501 -0.00000000000E+00 -0.00000000000E+00 -0.16257279555E+04  0.16257279555E+04  0.25500000000E-02 0.  1.
    8880023    1    1    2    0    0  0.23250480156E+03  0.38268343158E+03 -0.12657427939E+04  0.14954665219E+04  0.65864270000E+03 0.  1.
    8880022    1    1    2    0    0 -0.23250480156E+03 -0.38268343158E+03 -0.16772150629E+02  0.47347444451E+03  0.15294330000E+03 0. -1.
<mgrwt>
<rscale>  0 0.69923059E+03</rscale>
<asrwt>0</asrwt>
<pdfrwt beam="1">  1        2 0.52802003E-01 0.79643914E+03</pdfrwt>
<pdfrwt beam="2">  1       -2 0.25011199E+00 0.79643914E+03</pdfrwt>
<totfact> 0.61960314E+00</totfact>
</mgrwt>
</event>
<event>
 4    5  0.2295023E-007  0.9309133E+03  0.7818608E-02  0.9478124E-01
          2   -1    0    0  501    0  0.00000000000E+00  0.00000000000E+00  0.18076760063E+04  0.18076760063E+04  0.25500000000E-02 0. -1.
         -2   -1    0    0    0  501 -0.00000000000E+00 -0.00000000000E+00 -0.57983414404E+03  0.57983414404E+03  0.25500000000E-02 0.  1.
    8880023    1    1    2    0    0  0.51742117011E+03  0.40628155571E+03 -0.60482393439E+02  0.93287603462E+03  0.65864270000E+03 0.  1.
    8880022    1    1    2    0    0 -0.51742117011E+03 -0.40628155571E+03  0.12883242557E+04  0.14546341157E+04  0.15294330000E+03 0.  0.
<mgrwt>
<rscale>  0 0.85916006E+03</rscale>
<asrwt>0</asrwt>
<pdfrwt beam="1">  1        2 0.27810400E+00 0.93091330E+03</pdfrwt>
<pdfrwt beam="2">  1       -2 0.89205254E-01 0.93091330E+03</pdfrwt>
<totfact> 0.92801612E+00</totfact>
</mgrwt>
</event>
<event>
 4    5  0.2295023E-007  0.6951845E+03  0.7818608E-02  0.1001780E+00
          2   -1    0    0  501    0  0.00000000000E+00  0.00000000000E+00  0.48555953158E+03  0.48555953159E+03  0.25500000000E-02 0. -1.
         -2   -1    0    0    0  501 -0.00000000000E+00 -0.00000000000E+00 -0.11873546360E+04  0.11873546360E+04  0.25500000000E-02 0.  1.
    8880023    1    1    2    0    0 -0.77934327138E+02  0.20832059306E+03 -0.10333149884E+04  0.12454000563E+04  0.65864270000E+03 0.  1.
    8880022    1    1    2    0    0  0.77934327138E+02 -0.20832059306E+03  0.33151988397E+03  0.42751411125E+03  0.15294330000E+03 0.  0.
<mgrwt>
<rscale>  0 0.54876744E+03</rscale>
<asrwt>0</asrwt>
<pdfrwt beam="1">  1        2 0.74701467E-01 0.69518446E+03</pdfrwt>
<pdfrwt beam="2">  1       -2 0.18266994E+00 0.69518446E+03</pdfrwt>
<totfact> 0.11325368E+01</totfact>
</mgrwt>
</event>
<event>
 4    5  0.2295023E-007  0.7581913E+03  0.7818608E-02  0.9809813E-01
          2   -1    0    0  501    0  0.00000000000E+00  0.00000000000E+00  0.38743597140E+04  0.38743597140E+04  0.25500000000E-02 0. -1.
         -2   -1    0    0    0  501 -0.00000000000E+00 -0.00000000000E+00 -0.21859660146E+03  0.21859660148E+03  0.25500000000E-02 0.  1.
    8880023    1    1    2    0    0  0.99916951862E+02 -0.36202274344E+03  0.49317085398E+03  0.90447308501E+03  0.65864270000E+03 0.  1.
    8880022    1    1    2    0    0 -0.99916951862E+02  0.36202274344E+03  0.31625922586E+04  0.31884832305E+04  0.15294330000E+03 0.  0.
<mgrwt>
<rscale>  0 0.64838589E+03</rscale>
<asrwt>0</asrwt>
<pdfrwt beam="1">  1        2 0.59605538E+00 0.75819132E+03</pdfrwt>
<pdfrwt beam="2">  1       -2 0.33630244E-01 0.75819132E+03</pdfrwt>
<totfact> 0.39081917E+00</totfact>
</mgrwt>
</event>
<event>
 4    5  0.2295023E-007  0.8411891E+03  0.7818608E-02  0.9627942E-01
         -2   -1    0    0    0  501 -0.00000000000E+00  0.00000000000E+00  0.38264470031E+03  0.38264470032E+03  0.25500000000E-02 0.  1.
          2   -1    0    0  501    0  0.00000000000E+00 -0.00000000000E+00 -0.14358742687E+04  0.14358742687E+04  0.25500000000E-02 0. -1.
    8880023    1    1    2    0    0 -0.46511223238E+03  0.23970703058E+03 -0.30933897851E+03  0.89626427973E+03  0.65864270000E+03 0.  1.
    8880022    1    1    2    0    0  0.46511223238E+03 -0.23970703058E+03 -0.74389058990E+03  0.92225468933E+03  0.15294330000E+03 0.  0.
<mgrwt>
<rscale>  0 0.75474067E+03</rscale>
<asrwt>0</asrwt>
<pdfrwt beam="1">  1        2 0.22090373E+00 0.84118907E+03</pdfrwt>
<pdfrwt beam="2">  1       -2 0.58868416E-01 0.84118907E+03</pdfrwt>
<totfact> 0.37673015E+01</totfact>
</mgrwt>
</event>
<event>
 4    5  0.2295023E-007  0.1433492E+04  0.7818608E-02  0.8958086E-01
         -2   -1    0    0    0  501 -0.00000000000E+00  0.00000000000E+00  0.79388926852E+03  0.79388926852E+03  0.25500000000E-02 0.  1.
          2   -1    0    0  501    0  0.00000000000E+00 -0.00000000000E+00 -0.35432849109E+04  0.35432849109E+04  0.25500000000E-02 0. -1.
    8880023    1    1    2    0    0 -0.12653626773E+04 -0.14123588041E+03 -0.15334981007E+03  0.14416714777E+04  0.65864270000E+03 0.  0.
    8880022    1    1    2    0    0  0.12653626773E+04  0.14123588041E+03 -0.25960458323E+04  0.28955027017E+04  0.15294330000E+03 0.  0.
<mgrwt>
<rscale>  0 0.13941201E+04</rscale>
<asrwt>0</asrwt>
<pdfrwt beam="1">  1        2 0.54512075E+00 0.14334924E+04</pdfrwt>
<pdfrwt beam="2">  1       -2 0.12213681E+00 0.14334924E+04</pdfrwt>
<totfact> 0.37211456E-01</totfact>
</mgrwt>
</event>
<event>
 4    5  0.2295023E-007  0.7405778E+03  0.7818608E-02  0.9858267E-01
          2   -1    0    0  501    0  0.00000000000E+00  0.00000000000E+00  0.17415596017E+04  0.17415596017E+04  0.25500000000E-02 0. -1.
         -2   -1    0    0    0  501 -0.00000000000E+00 -0.00000000000E+00 -0.68948553380E+03  0.68948553381E+03  0.25500000000E-02 0.  1.
    8880023    1    1    2    0    0  0.14104053204E+03 -0.30781939477E+03 -0.46145627851E+03  0.87258083563E+03  0.65864270000E+03 0.  1.
    8880022    1    1    2    0    0 -0.14104053204E+03  0.30781939477E+03  0.15135303464E+04  0.15584642998E+04  0.15294330000E+03 0.  0.
<mgrwt>
<rscale>  0 0.62327167E+03</rscale>
<asrwt>0</asrwt>
<pdfrwt beam="1">  1        2 0.26793225E+00 0.74057776E+03</pdfrwt>
<pdfrwt beam="2">  1       -2 0.10607470E+00 0.74057776E+03</pdfrwt>
<totfact> 0.68787545E+00</totfact>
</mgrwt>
</event>
<event>
 4    5  0.2295023E-007  0.8553324E+03  0.7818608E-02  0.9601921E-01
          2   -1    0    0  501    0  0.00000000000E+00  0.00000000000E+00  0.12440622310E+04  0.12440622310E+04  0.25500000000E-02 0. -1.
         -2   -1    0    0    0  501 -0.00000000000E+00 -0.00000000000E+00 -0.72333804497E+03  0.72333804498E+03  0.25500000000E-02 0.  1.
    8880023    1    1    2    0    0  0.30857321615E+03 -0.45007317974E+03 -0.35354209672E+03  0.92551905289E+03  0.65864270000E+03 0.  0.
    8880022    1    1    2    0    0 -0.30857321615E+03  0.45007317974E+03  0.87426628274E+03  0.10418812231E+04  0.15294330000E+03 0.  0.
<mgrwt>
<rscale>  0 0.77169182E+03</rscale>
<asrwt>0</asrwt>
<pdfrwt beam="1">  1        2 0.19139419E+00 0.85533239E+03</pdfrwt>
<pdfrwt beam="2">  1       -2 0.11128278E+00 0.85533239E+03</pdfrwt>
<totfact> 0.11480172E+01</totfact>
</mgrwt>
</event>
<event>
 4    5  0.2295023E-007  0.1032752E+04  0.7818608E-02  0.9339909E-01
          2   -1    0    0  501    0  0.00000000000E+00  0.00000000000E+00  0.11540073646E+04  0.11540073646E+04  0.25500000000E-02 0. -1.
         -2   -1    0    0    0  501 -0.00000000000E+00 -0.00000000000E+00 -0.80019224238E+03  0.80019224238E+03  0.25500000000E-02 0.  1.
    8880023    1    1    2    0    0 -0.70783724622E+03  0.36295039809E+03  0.47215568621E+03  0.11355649505E+04  0.65864270000E+03 0.  0.
    8880022    1    1    2    0    0  0.70783724622E+03 -0.36295039809E+03 -0.11834056400E+03  0.81863465643E+03  0.15294330000E+03 0.  0.
<mgrwt>
<rscale>  0 0.97190343E+03</rscale>
<asrwt>0</asrwt>
<pdfrwt beam="1">  1        2 0.17753959E+00 0.10327520E+04</pdfrwt>
<pdfrwt beam="2">  1       -2 0.12310650E+00 0.10327520E+04</pdfrwt>
<totfact> 0.99519690E+00</totfact>
</mgrwt>
</event>
<event>
 4    5  0.2295023E-007  0.1152289E+04  0.7818608E-02  0.9204956E-01
          2   -1    0    0  501    0  0.00000000000E+00  0.00000000000E+00  0.38194031987E+04  0.38194031987E+04  0.25500000000E-02 0. -1.
         -2   -1    0    0    0  501 -0.00000000000E+00 -0.00000000000E+00 -0.57684991966E+03  0.57684991966E+03  0.25500000000E-02 0.  1.
    8880023    1    1    2    0    0  0.94186016967E+03  0.82824200674E+02  0.15392065053E+03  0.11625240644E+04  0.65864270000E+03 0.  1.
    8880022    1    1    2    0    0 -0.94186016967E+03 -0.82824200674E+02  0.30886326286E+04  0.32337290540E+04  0.15294330000E+03 0.  0.
<mgrwt>
<rscale>  0 0.11002418E+04</rscale>
<asrwt>0</asrwt>
<pdfrwt beam="1">  1        2 0.58760052E+00 0.11522893E+04</pdfrwt>
<pdfrwt beam="2">  1       -2 0.88746137E-01 0.11522893E+04</pdfrwt>
<totfact> 0.52735582E-01</totfact>
</mgrwt>
</event>
<event>
 4    5  0.2295023E-007  0.9017603E+03  0.7818608E-02  0.9523212E-01
          2   -1    0    0  501    0  0.00000000000E+00  0.00000000000E+00  0.98387551239E+03  0.98387551239E+03  0.25500000000E-02 0. -1.
         -2   -1    0    0    0  501 -0.00000000000E+00 -0.00000000000E+00 -0.10667040476E+04  0.10667040476E+04  0.25500000000E-02 0.  1.
    8880023    1    1    2    0    0 -0.44452509448E+03  0.42633186372E+03 -0.71800365040E+03  0.11526928758E+04  0.65864270000E+03 0.  1.
    8880022    1    1    2    0    0  0.44452509448E+03 -0.42633186372E+03  0.63517511520E+03  0.89788668418E+03  0.15294330000E+03 0.  0.
<mgrwt>
<rscale>  0 0.82593941E+03</rscale>
<asrwt>0</asrwt>
<pdfrwt beam="1">  1        2 0.15136546E+00 0.90176029E+03</pdfrwt>
<pdfrwt beam="2">  1       -2 0.16410831E+00 0.90176029E+03</pdfrwt>
<totfact> 0.60702404E+00</totfact>
</mgrwt>
</event>
<event>
 4    5  0.2295023E-007  0.8719013E+03  0.7818608E-02  0.9572734E-01
         -2   -1    0    0    0  501 -0.00000000000E+00  0.00000000000E+00  0.19029812711E+04  0.19029812711E+04  0.25500000000E-02 0.  1.
          2   -1    0    0  501    0  0.00000000000E+00 -0.00000000000E+00 -0.29270037791E+03  0.29270037792E+03  0.25500000000E-02 0. -1.
    8880023    1    1    2    0    0 -0.56458652688E+03  0.87427926875E+02  0.11661202795E+04  0.14560385644E+04  0.65864270000E+03 0. -1.
    8880022    1    1    2    0    0  0.56458652688E+03 -0.87427926875E+02  0.44416061370E+03  0.73964308454E+03  0.15294330000E+03 0.  1.
<mgrwt>
<rscale>  0 0.79127401E+03</rscale>
<asrwt>0</asrwt>
<pdfrwt beam="1">  1        2 0.45030827E-01 0.87190125E+03</pdfrwt>
<pdfrwt beam="2">  1       -2 0.29276635E+00 0.87190125E+03</pdfrwt>
<totfact> 0.40598077E+00</totfact>
</mgrwt>
</event>
<event>
 4    5  0.2295023E-007  0.1385610E+04  0.7818608E-02  0.8994945E-01
          2   -1    0    0  501    0  0.00000000000E+00  0.00000000000E+00  0.26501137751E+04  0.26501137751E+04  0.25500000000E-02 0. -1.
         -2   -1    0    0    0  501 -0.00000000000E+00 -0.00000000000E+00 -0.12582699182E+04  0.12582699182E+04  0.25500000000E-02 0.  1.
    8880023    1    1    2    0    0  0.55310923230E+02 -0.12178038744E+04 -0.64601808799E+03  0.15288084088E+04  0.65864270000E+03 0.  0.
    8880022    1    1    2    0    0 -0.55310923230E+02  0.12178038744E+04  0.20378619449E+04  0.23795752844E+04  0.15294330000E+03 0.  0.
<mgrwt>
<rscale>  0 0.13445745E+04</rscale>
<asrwt>0</asrwt>
<pdfrwt beam="1">  1        2 0.40770981E+00 0.13856103E+04</pdfrwt>
<pdfrwt beam="2">  1       -2 0.19357999E+00 0.13856103E+04</pdfrwt>
<totfact> 0.39770753E-01</totfact>
</mgrwt>
</event>
<event>
 4    5  0.2295023E-007  0.9073299E+03  0.7818608E-02  0.9514366E-01
         -2   -1    0    0    0  501 -0.00000000000E+00  0.00000000000E+00  0.12291469178E+04  0.12291469178E+04  0.25500000000E-02 0.  1.
          2   -1    0    0  501    0  0.00000000000E+00 -0.00000000000E+00 -0.11253432204E+04  0.11253432204E+04  0.25500000000E-02 0. -1.
    8880023    1    1    2    0    0 -0.36783477067E+03  0.50411795002E+03 -0.82418561946E+03  0.12257770872E+04  0.65864270000E+03 0.  0.
    8880022    1    1    2    0    0  0.36783477067E+03 -0.50411795002E+03  0.92798931692E+03  0.11287130509E+04  0.15294330000E+03 0.  0.
<mgrwt>
<rscale>  0 0.83232931E+03</rscale>
<asrwt>0</asrwt>
<pdfrwt beam="1">  1        2 0.17312973E+00 0.90732989E+03</pdfrwt>
<pdfrwt beam="2">  1       -2 0.18909953E+00 0.90732989E+03</pdfrwt>
<totfact> 0.33118036E+00</totfact>
</mgrwt>
</event>
<event>
 4    5  0.2295023E-007  0.1415753E+04  0.7818608E-02  0.8971538E-01
         -2   -1    0    0    0  501 -0.00000000000E+00  0.00000000000E+00  0.17627857858E+04  0.17627857858E+04  0.25500000000E-02 0.  1.
          2   -1    0    0  501    0  0.00000000000E+00 -0.00000000000E+00 -0.11932452342E+04  0.11932452342E+04  0.25500000000E-02 0. -1.
    8880023    1    1    2    0    0  0.96259250721E+03 -0.80247242666E+03  0.86542197353E+03  0.16593106186E+04  0.65864270000E+03 0.  0.
    8880022    1    1    2    0    0 -0.96259250721E+03  0.80247242666E+03 -0.29588142194E+03  0.12967204014E+04  0.15294330000E+03 0.  0.
<mgrwt>
<rscale>  0 0.13757817E+04</rscale>
<asrwt>0</asrwt>
<pdfrwt beam="1">  1        2 0.18357619E+00 0.14157530E+04</pdfrwt>
<pdfrwt beam="2">  1       -2 0.27119781E+00 0.14157530E+04</pdfrwt>
<totfact> 0.86727485E-01</totfact>
</mgrwt>
</event>
<event>
 4    5  0.2295023E-007  0.7504098E+03  0.7818608E-02  0.9830600E-01
         -2   -1    0    0    0  501 -0.00000000000E+00  0.00000000000E+00  0.25654106345E+03  0.25654106346E+03  0.25500000000E-02 0.  1.
          2   -1    0    0  501    0  0.00000000000E+00 -0.00000000000E+00 -0.13357514804E+04  0.13357514804E+04  0.25500000000E-02 0. -1.
    8880023    1    1    2    0    0 -0.11407069441E+03  0.34101696916E+03 -0.53189736866E+03  0.91979873539E+03  0.65864270000E+03 0.  0.
    8880022    1    1    2    0    0  0.11407069441E+03 -0.34101696916E+03 -0.54731304826E+03  0.67249380843E+03  0.15294330000E+03 0.  0.
<mgrwt>
<rscale>  0 0.63745930E+03</rscale>
<asrwt>0</asrwt>
<pdfrwt beam="1">  1        2 0.20550022E+00 0.75040982E+03</pdfrwt>
<pdfrwt beam="2">  1       -2 0.39467857E-01 0.75040982E+03</pdfrwt>
<totfact> 0.97257360E+01</totfact>
</mgrwt>
</event>
<event>
 4    5  0.2295023E-007  0.7854049E+03  0.7818608E-02  0.9743291E-01
          2   -1    0    0  501    0  0.00000000000E+00  0.00000000000E+00  0.18869197183E+04  0.18869197183E+04  0.25500000000E-02 0. -1.
         -2   -1    0    0    0  501 -0.00000000000E+00 -0.00000000000E+00 -0.29768430479E+03  0.29768430480E+03  0.25500000000E-02 0.  1.
    8880023    1    1    2    0    0  0.41950346824E+03 -0.84068530280E+02  0.34098273149E+03  0.85623017179E+03  0.65864270000E+03 0.  1.
    8880022    1    1    2    0    0 -0.41950346824E+03  0.84068530280E+02  0.12482526820E+04  0.13283738513E+04  0.15294330000E+03 0.  0.
<mgrwt>
<rscale>  0 0.68496764E+03</rscale>
<asrwt>0</asrwt>
<pdfrwt beam="1">  1        2 0.29029534E+00 0.78540492E+03</pdfrwt>
<pdfrwt beam="2">  1       -2 0.45797585E-01 0.78540492E+03</pdfrwt>
<totfact> 0.35787614E+01</totfact>
</mgrwt>
</event>
<event>
 4    5  0.2295023E-007  0.8853251E+03  0.7818608E-02  0.9550012E-01
         -2   -1    0    0    0  501 -0.00000000000E+00  0.00000000000E+00  0.10632920588E+04  0.10632920588E+04  0.25500000000E-02 0.  1.
          2   -1    0    0  501    0  0.00000000000E+00 -0.00000000000E+00 -0.10337211001E+04  0.10337211001E+04  0.25500000000E-02 0. -1.
    8880023    1    1    2    0    0 -0.46913015576E+03 -0.36042632398E+03  0.74434134429E+03  0.11566522732E+04  0.65864270000E+03 0.  1.
    8880022    1    1    2    0    0  0.46913015576E+03  0.36042632398E+03 -0.71477038565E+03  0.94036088565E+03  0.15294330000E+03 0.  0.
<mgrwt>
<rscale>  0 0.80694925E+03</rscale>
<asrwt>0</asrwt>
<pdfrwt beam="1">  1        2 0.15903402E+00 0.88532505E+03</pdfrwt>
<pdfrwt beam="2">  1       -2 0.16358339E+00 0.88532505E+03</pdfrwt>
<totfact> 0.57008413E+00</totfact>
</mgrwt>
</event>
<event>
 4    5  0.2295023E-007  0.2198543E+04  0.7818608E-02  0.8529205E-01
          2   -1    0    0  501    0  0.00000000000E+00  0.00000000000E+00  0.20205619243E+04  0.20205619243E+04  0.25500000000E-02 0. -1.
         -2   -1    0    0    0  501 -0.00000000000E+00 -0.00000000000E+00 -0.28989096966E+04  0.28989096966E+04  0.25500000000E-02 0.  1.
    8880023    1    1    2    0    0 -0.18709155593E+04  0.94839714727E+03  0.68068352843E+03  0.23015043887E+04  0.65864270000E+03 0.  0.
    8880022    1    1    2    0    0  0.18709155593E+04 -0.94839714727E+03 -0.15590313007E+04  0.26179672322E+04  0.15294330000E+03 0.  0.
<mgrwt>
<rscale>  0 0.21742927E+04</rscale>
<asrwt>0</asrwt>
<pdfrwt beam="1">  1        2 0.31085568E+00 0.21985432E+04</pdfrwt>
<pdfrwt beam="2">  1       -2 0.44598611E+00 0.21985432E+04</pdfrwt>
<totfact> 0.20779386E-02</totfact>
</mgrwt>
</event>
<event>
 4    5  0.2295023E-007  0.6822778E+03  0.7818608E-02  0.1008063E+00
         -2   -1    0    0    0  501 -0.00000000000E+00  0.00000000000E+00  0.36843668187E+03  0.36843668188E+03  0.25500000000E-02 0.  1.
          2   -1    0    0  501    0  0.00000000000E+00 -0.00000000000E+00 -0.11182179838E+04  0.11182179838E+04  0.25500000000E-02 0. -1.
    8880023    1    1    2    0    0  0.81777872358E+02 -0.15813023132E+03  0.19307995061E+02  0.68255094711E+03  0.65864270000E+03 0.  0.
    8880022    1    1    2    0    0 -0.81777872358E+02  0.15813023132E+03 -0.76908929700E+03  0.80410371858E+03  0.15294330000E+03 0. -1.
<mgrwt>
<rscale>  0 0.52251595E+03</rscale>
<asrwt>0</asrwt>
<pdfrwt beam="1">  1        2 0.17203353E+00 0.68227780E+03</pdfrwt>
<pdfrwt beam="2">  1       -2 0.56682567E-01 0.68227780E+03</pdfrwt>
<totfact> 0.63370430E+01</totfact>
</mgrwt>
</event>
<event>
 4    5  0.2295023E-007  0.8709597E+03  0.7818608E-02  0.9574358E-01
          2   -1    0    0  501    0  0.00000000000E+00  0.00000000000E+00  0.14351034156E+04  0.14351034156E+04  0.25500000000E-02 0. -1.
         -2   -1    0    0    0  501 -0.00000000000E+00 -0.00000000000E+00 -0.11154077013E+04  0.11154077013E+04  0.25500000000E-02 0.  1.
    8880023    1    1    2    0    0 -0.52986931737E+03  0.20975975474E+03 -0.86468336649E+03  0.12272930289E+04  0.65864270000E+03 0.  0.
    8880022    1    1    2    0    0  0.52986931737E+03 -0.20975975474E+03  0.11843790808E+04  0.13232180880E+04  0.15294330000E+03 0.  0.
<mgrwt>
<rscale>  0 0.79016851E+03</rscale>
<asrwt>0</asrwt>
<pdfrwt beam="1">  1        2 0.22078514E+00 0.87095973E+03</pdfrwt>
<pdfrwt beam="2">  1       -2 0.17160119E+00 0.87095973E+03</pdfrwt>
<totfact> 0.28941372E+00</totfact>
</mgrwt>
</event>
<event>
 4    5  0.2295023E-007  0.1342734E+04  0.7818608E-02  0.9029508E-01
         -2   -1    0    0    0  501 -0.00000000000E+00  0.00000000000E+00  0.75303539858E+03  0.75303539858E+03  0.25500000000E-02 0.  1.
          2   -1    0    0  501    0  0.00000000000E+00 -0.00000000000E+00 -0.27295481017E+04  0.27295481017E+04  0.25500000000E-02 0. -1.
    8880023    1    1    2    0    0  0.16229254980E+03  0.11587864674E+04 -0.21129377900E+03  0.13592572296E+04  0.65864270000E+03 0.  0.
    8880022    1    1    2    0    0 -0.16229254980E+03 -0.11587864674E+04 -0.17652189241E+04  0.21233262707E+04  0.15294330000E+03 0.  0.
<mgrwt>
<rscale>  0 0.13000725E+04</rscale>
<asrwt>0</asrwt>
<pdfrwt beam="1">  1        2 0.41993047E+00 0.13427342E+04</pdfrwt>
<pdfrwt beam="2">  1       -2 0.11585160E+00 0.13427342E+04</pdfrwt>
<totfact> 0.14287101E+00</totfact>
</mgrwt>
</event>
<event>
 4    5  0.2295023E-007  0.7576430E+03  0.7818608E-02  0.9811248E-01
         -2   -1    0    0    0  501 -0.00000000000E+00  0.00000000000E+00  0.25492337999E+03  0.25492338000E+03  0.25500000000E-02 0.  1.
          2   -1    0    0  501    0  0.00000000000E+00 -0.00000000000E+00 -0.18362577792E+04  0.18362577792E+04  0.25500000000E-02 0. -1.
    8880023    1    1    2    0    0 -0.31014001173E+03  0.20982361331E+03 -0.43066379215E+03  0.87148969226E+03  0.65864270000E+03 0.  0.
    8880022    1    1    2    0    0  0.31014001173E+03 -0.20982361331E+03 -0.11506706070E+04  0.12196914669E+04  0.15294330000E+03 0.  0.
<mgrwt>
<rscale>  0 0.64762389E+03</rscale>
<asrwt>0</asrwt>
<pdfrwt beam="1">  1        2 0.28250119E+00 0.75764304E+03</pdfrwt>
<pdfrwt beam="2">  1       -2 0.39218983E-01 0.75764304E+03</pdfrwt>
<totfact> 0.51950490E+01</totfact>
</mgrwt>
</event>
<event>
 4    5  0.3516871E-007  0.7982739E+03  0.7818608E-02  0.9714541E-01
          2   -1    0    0  501    0  0.00000000000E+00  0.00000000000E+00  0.26323026214E+04  0.26323026214E+04  0.25500000000E-02 0. -1.
         -2   -1    0    0    0  501 -0.00000000000E+00 -0.00000000000E+00 -0.13433708036E+04  0.13433708036E+04  0.25500000000E-02 0.  1.
    8880023    1    1    2    0    0  0.34567590259E+03  0.28972263105E+03 -0.12001769940E+04  0.14414111335E+04  0.65864270000E+03 0.  1.
    8880022    1    1    2    0    0 -0.34567590259E+03 -0.28972263105E+03  0.24891088117E+04  0.25342622915E+04  0.15294330000E+03 0.  0.
<mgrwt>
<rscale>  0 0.70157606E+03</rscale>
<asrwt>0</asrwt>
<pdfrwt beam="1">  1        2 0.40496963E+00 0.79827391E+03</pdfrwt>
<pdfrwt beam="2">  1       -2 0.20667243E+00 0.79827391E+03</pdfrwt>
<totfact> 0.36860624E-01</totfact>
</mgrwt>
</event>
<event>
 4    5  0.2295023E-007  0.1484131E+04  0.7818608E-02  0.8920923E-01
          2   -1    0    0  501    0  0.00000000000E+00  0.00000000000E+00  0.15715890370E+04  0.15715890370E+04  0.25500000000E-02 0. -1.
         -2   -1    0    0    0  501 -0.00000000000E+00 -0.00000000000E+00 -0.16247242651E+04  0.16247242651E+04  0.25500000000E-02 0.  1.
    8880023    1    1    2    0    0  0.52514319136E+03 -0.12219085491E+04 -0.77612693422E+03  0.16748191240E+04  0.65864270000E+03 0.  0.
    8880022    1    1    2    0    0 -0.52514319136E+03  0.12219085491E+04  0.72299170610E+03  0.15214941781E+04  0.15294330000E+03 0.  0.
<mgrwt>
<rscale>  0 0.14463667E+04</rscale>
<asrwt>0</asrwt>
<pdfrwt beam="1">  1        2 0.24178293E+00 0.14841314E+04</pdfrwt>
<pdfrwt beam="2">  1       -2 0.24995758E+00 0.14841314E+04</pdfrwt>
<totfact> 0.70020719E-01</totfact>
</mgrwt>
</event>
<event>
 4    5  0.2295023E-007  0.8620742E+03  0.7818608E-02  0.9589884E-01
          2   -1    0    0  501    0  0.00000000000E+00  0.00000000000E+00  0.10129444415E+04  0.10129444415E+04  0.25500000000E-02 0. -1.
         -2   -1    0    0    0  501 -0.00000000000E+00 -0.00000000000E+00 -0.85281998990E+03  0.85281998990E+03  0.25500000000E-02 0.  1.
    8880023    1    1    2    0    0 -0.82310847955E+02 -0.55007873695E+03 -0.49403110570E+03  0.99359882860E+03  0.65864270000E+03 0.  0.
    8880022    1    1    2    0    0  0.82310847955E+02  0.55007873695E+03  0.65415555725E+03  0.87216560276E+03  0.15294330000E+03 0.  0.
<mgrwt>
<rscale>  0 0.77969327E+03</rscale>
<asrwt>0</asrwt>
<pdfrwt beam="1">  1        2 0.15583761E+00 0.86207418E+03</pdfrwt>
<pdfrwt beam="2">  1       -2 0.13120308E+00 0.86207418E+03</pdfrwt>
<totfact> 0.10536956E+01</totfact>
</mgrwt>
</event>
<event>
 4    5  0.2295023E-007  0.6631716E+03  0.7818608E-02  0.1021119E+00
          2   -1    0    0  501    0  0.00000000000E+00  0.00000000000E+00  0.56320141957E+03  0.56320141957E+03  0.25500000000E-02 0. -1.
         -2   -1    0    0    0  501 -0.00000000000E+00 -0.00000000000E+00 -0.32733519623E+03  0.32733519624E+03  0.25500000000E-02 0.  1.
    8880023    1    1    2    0    0  0.37864874799E+02  0.67472872980E+02  0.97590646024E+02  0.67031371595E+03  0.65864270000E+03 0.  0.
    8880022    1    1    2    0    0 -0.37864874799E+02 -0.67472872980E+02  0.13827557731E+03  0.22022289987E+03  0.15294330000E+03 0.  0.
<mgrwt>
<rscale>  0 0.47284869E+03</rscale>
<asrwt>0</asrwt>
<pdfrwt beam="1">  1        2 0.86646373E-01 0.66317158E+03</pdfrwt>
<pdfrwt beam="2">  1       -2 0.50359261E-01 0.66317158E+03</pdfrwt>
<totfact> 0.20225308E+02</totfact>
</mgrwt>
</event>
<event>
 4    5  0.2295023E-007  0.9264725E+03  0.7818608E-02  0.9484805E-01
         -2   -1    0    0    0  501 -0.00000000000E+00  0.00000000000E+00  0.97377939469E+03  0.97377939469E+03  0.25500000000E-02 0.  1.
          2   -1    0    0  501    0  0.00000000000E+00 -0.00000000000E+00 -0.10111979897E+04  0.10111979897E+04  0.25500000000E-02 0. -1.
    8880023    1    1    2    0    0 -0.10044557755E+02  0.65149080948E+03  0.56445210476E+03  0.10848767454E+04  0.65864270000E+03 0.  1.
    8880022    1    1    2    0    0  0.10044557755E+02 -0.65149080948E+03 -0.60187069976E+03  0.90010063894E+03  0.15294330000E+03 0.  0.
<mgrwt>
<rscale>  0 0.85413403E+03</rscale>
<asrwt>0</asrwt>
<pdfrwt beam="1">  1        2 0.15556892E+00 0.92647254E+03</pdfrwt>
<pdfrwt beam="2">  1       -2 0.14981221E+00 0.92647254E+03</pdfrwt>
<totfact> 0.74361394E+00</totfact>
</mgrwt>
</event>
<event>
 4    5  0.2295023E-007  0.8638641E+03  0.7818608E-02  0.9586727E-01
         -2   -1    0    0    0  501 -0.00000000000E+00  0.00000000000E+00  0.24846342582E+03  0.24846342583E+03  0.25500000000E-02 0.  1.
          2   -1    0    0  501    0  0.00000000000E+00 -0.00000000000E+00 -0.33071224384E+04  0.33071224384E+04  0.25500000000E-02 0. -1.
    8880023    1    1    2    0    0  0.51967835842E+03  0.20587712192E+03 -0.65786926879E+03  0.10858421463E+04  0.65864270000E+03 0.  1.
    8880022    1    1    2    0    0 -0.51967835842E+03 -0.20587712192E+03 -0.24007897438E+04  0.24697437180E+04  0.15294330000E+03 0.  0.
<mgrwt>
<rscale>  0 0.78180969E+03</rscale>
<asrwt>0</asrwt>
<pdfrwt beam="1">  1        2 0.50878804E+00 0.86386410E+03</pdfrwt>
<pdfrwt beam="2">  1       -2 0.38225145E-01 0.86386410E+03</pdfrwt>
<totfact> 0.74958723E+00</totfact>
</mgrwt>
</event>
<event>
 4    5  0.2295023E-007  0.9685666E+03  0.7818608E-02  0.9423889E-01
          2   -1    0    0  501    0  0.00000000000E+00  0.00000000000E+00  0.23466562449E+04  0.23466562449E+04  0.25500000000E-02 0. -1.
         -2   -1    0    0    0  501 -0.00000000000E+00 -0.00000000000E+00 -0.40672739522E+03  0.40672739522E+03  0.25500000000E-02 0.  1.
    8880023    1    1    2    0    0 -0.42199520665E+03  0.57116640004E+03  0.39466589940E+03  0.10458883255E+04  0.65864270000E+03 0.  1.
    8880022    1    1    2    0    0  0.42199520665E+03 -0.57116640004E+03  0.15452629503E+04  0.17074953147E+04  0.15294330000E+03 0.  0.
<mgrwt>
<rscale>  0 0.90135479E+03</rscale>
<asrwt>0</asrwt>
<pdfrwt beam="1">  1        2 0.36102403E+00 0.96856658E+03</pdfrwt>
<pdfrwt beam="2">  1       -2 0.62573447E-01 0.96856658E+03</pdfrwt>
<totfact> 0.10229861E+01</totfact>
</mgrwt>
</event>
<event>
 4    5  0.2295023E-007  0.9489987E+03  0.7818608E-02  0.9451556E-01
          2   -1    0    0  501    0  0.00000000000E+00  0.00000000000E+00  0.37911288223E+04  0.37911288223E+04  0.25500000000E-02 0. -1.
         -2   -1    0    0    0  501 -0.00000000000E+00 -0.00000000000E+00 -0.61948284946E+03  0.61948284946E+03  0.25500000000E-02 0.  1.
    8880023    1    1    2    0    0 -0.68003438001E+03  0.65889911086E+02 -0.19763274530E+03  0.96935914225E+03  0.65864270000E+03 0.  1.
    8880022    1    1    2    0    0  0.68003438001E+03 -0.65889911086E+02  0.33692787182E+04  0.34412525296E+04  0.15294330000E+03 0.  0.
<mgrwt>
<rscale>  0 0.87951578E+03</rscale>
<asrwt>0</asrwt>
<pdfrwt beam="1">  1        2 0.58325059E+00 0.94899865E+03</pdfrwt>
<pdfrwt beam="2">  1       -2 0.95305054E-01 0.94899865E+03</pdfrwt>
<totfact> 0.48640765E-01</totfact>
</mgrwt>
</event>
<event>
 4    5  0.2295023E-007  0.6915569E+03  0.7818608E-02  0.1003421E+00
          2   -1    0    0  501    0  0.00000000000E+00  0.00000000000E+00  0.17408978348E+04  0.17408978349E+04  0.25500000000E-02 0. -1.
         -2   -1    0    0    0  501 -0.00000000000E+00 -0.00000000000E+00 -0.65841009177E+03  0.65841009178E+03  0.25500000000E-02 0.  1.
    8880023    1    1    2    0    0  0.19347172397E+03  0.83722643575E+02 -0.46286420539E+03  0.83216240477E+03  0.65864270000E+03 0.  1.
    8880022    1    1    2    0    0 -0.19347172397E+03 -0.83722643575E+02  0.15453519485E+04  0.15671455219E+04  0.15294330000E+03 0.  0.
<mgrwt>
<rscale>  0 0.54175214E+03</rscale>
<asrwt>0</asrwt>
<pdfrwt beam="1">  1        2 0.26783044E+00 0.69155694E+03</pdfrwt>
<pdfrwt beam="2">  1       -2 0.10129386E+00 0.69155694E+03</pdfrwt>
<totfact> 0.77470436E+00</totfact>
</mgrwt>
</event>
<event>
 4    5  0.2295023E-007  0.1255000E+04  0.7818608E-02  0.9105429E-01
          2   -1    0    0  501    0  0.00000000000E+00  0.00000000000E+00  0.15766089257E+04  0.15766089257E+04  0.25500000000E-02 0. -1.
         -2   -1    0    0    0  501 -0.00000000000E+00 -0.00000000000E+00 -0.16252818538E+04  0.16252818538E+04  0.25500000000E-02 0.  1.
    8880023    1    1    2    0    0 -0.50372049224E+03 -0.94206125988E+03 -0.11193878497E+04  0.16816816334E+04  0.65864270000E+03 0.  0.
    8880022    1    1    2    0    0  0.50372049224E+03  0.94206125988E+03  0.10707149216E+04  0.15202091461E+04  0.15294330000E+03 0.  0.
<mgrwt>
<rscale>  0 0.12085233E+04</rscale>
<asrwt>0</asrwt>
<pdfrwt beam="1">  1        2 0.24255522E+00 0.12549996E+04</pdfrwt>
<pdfrwt beam="2">  1       -2 0.25004336E+00 0.12549996E+04</pdfrwt>
<totfact> 0.71238272E-01</totfact>
</mgrwt>
</event>
<event>
 4    5  0.2295023E-007  0.1685072E+04  0.7818608E-02  0.8788925E-01
          2   -1    0    0  501    0  0.00000000000E+00  0.00000000000E+00  0.20075698776E+04  0.20075698776E+04  0.25500000000E-02 0. -1.
         -2   -1    0    0    0  501 -0.00000000000E+00 -0.00000000000E+00 -0.20502124140E+04  0.20502124140E+04  0.25500000000E-02 0.  1.
    8880023    1    1    2    0    0 -0.14567005959E+04 -0.53261628820E+03 -0.12402159157E+04  0.20922720809E+04  0.65864270000E+03 0.  0.
    8880022    1    1    2    0    0  0.14567005959E+04  0.53261628820E+03  0.11975733793E+04  0.19655102107E+04  0.15294330000E+03 0.  0.
<mgrwt>
<rscale>  0 0.16525071E+04</rscale>
<asrwt>0</asrwt>
<pdfrwt beam="1">  1        2 0.30885690E+00 0.16850718E+04</pdfrwt>
<pdfrwt beam="2">  1       -2 0.31541730E+00 0.16850718E+04</pdfrwt>
<totfact> 0.15530738E-01</totfact>
</mgrwt>
</event>
<event>
 4    5  0.2295023E-007  0.8202454E+03  0.7818608E-02  0.9668619E-01
         -2   -1    0    0    0  501 -0.00000000000E+00  0.00000000000E+00  0.32646113196E+03  0.32646113197E+03  0.25500000000E-02 0.  1.
          2   -1    0    0  501    0  0.00000000000E+00 -0.00000000000E+00 -0.14563805084E+04  0.14563805084E+04  0.25500000000E-02 0. -1.
    8880023    1    1    2    0    0 -0.47446008922E+03  0.11781302249E+03 -0.46295833965E+03  0.94187733545E+03  0.65864270000E+03 0.  0.
    8880022    1    1    2    0    0  0.47446008922E+03 -0.11781302249E+03 -0.66696103678E+03  0.84096430491E+03  0.15294330000E+03 0.  0.
<mgrwt>
<rscale>  0 0.72916364E+03</rscale>
<asrwt>0</asrwt>
<pdfrwt beam="1">  1        2 0.22405854E+00 0.82024538E+03</pdfrwt>
<pdfrwt beam="2">  1       -2 0.50224790E-01 0.82024538E+03</pdfrwt>
<totfact> 0.51090898E+01</totfact>
</mgrwt>
</event>
<event>
 4    5  0.2295023E-007  0.7424578E+03  0.7818608E-02  0.9852845E-01
         -2   -1    0    0    0  501 -0.00000000000E+00  0.00000000000E+00  0.17393540148E+04  0.17393540148E+04  0.25500000000E-02 0.  1.
          2   -1    0    0  501    0  0.00000000000E+00 -0.00000000000E+00 -0.19447509327E+03  0.19447509328E+03  0.25500000000E-02 0. -1.
    8880023    1    1    2    0    0  0.31795493257E+03 -0.12782012447E+03  0.12607843841E+04  0.14631543981E+04  0.65864270000E+03 0.  1.
    8880022    1    1    2    0    0 -0.31795493257E+03  0.12782012447E+03  0.28409453745E+03  0.47067470995E+03  0.15294330000E+03 0.  0.
<mgrwt>
<rscale>  0 0.62602082E+03</rscale>
<asrwt>0</asrwt>
<pdfrwt beam="1">  1        2 0.29919245E-01 0.74245776E+03</pdfrwt>
<pdfrwt beam="2">  1       -2 0.26759293E+00 0.74245776E+03</pdfrwt>
<totfact> 0.92293511E+00</totfact>
</mgrwt>
</event>
<event>
 4    5  0.2295023E-007  0.1148645E+04  0.7818608E-02  0.9208735E-01
         -2   -1    0    0    0  501 -0.00000000000E+00  0.00000000000E+00  0.13837690655E+04  0.13837690655E+04  0.25500000000E-02 0.  1.
          2   -1    0    0  501    0  0.00000000000E+00 -0.00000000000E+00 -0.88476664512E+03  0.88476664513E+03  0.25500000000E-02 0. -1.
    8880023    1    1    2    0    0  0.63923801125E+03 -0.69061603639E+03  0.62364176800E+03  0.13070252506E+04  0.65864270000E+03 0.  1.
    8880022    1    1    2    0    0 -0.63923801125E+03  0.69061603639E+03 -0.12463934759E+03  0.96151046002E+03  0.15294330000E+03 0.  0.
<mgrwt>
<rscale>  0 0.10963721E+04</rscale>
<asrwt>0</asrwt>
<pdfrwt beam="1">  1        2 0.13611795E+00 0.11486453E+04</pdfrwt>
<pdfrwt beam="2">  1       -2 0.21288755E+00 0.11486453E+04</pdfrwt>
<totfact> 0.32243016E+00</totfact>
</mgrwt>
</event>
<event>
 4    5  0.2295023E-007  0.1006301E+04  0.7818608E-02  0.9373360E-01
         -2   -1    0    0    0  501 -0.00000000000E+00  0.00000000000E+00  0.75167073189E+03  0.75167073190E+03  0.25500000000E-02 0.  1.
          2   -1    0    0  501    0  0.00000000000E+00 -0.00000000000E+00 -0.30366554862E+04  0.30366554862E+04  0.25500000000E-02 0. -1.
    8880023    1    1    2    0    0  0.62438187108E+02 -0.75824344505E+03  0.33125396706E+03  0.10594201462E+04  0.65864270000E+03 0.  1.
    8880022    1    1    2    0    0 -0.62438187108E+02  0.75824344505E+03 -0.26162387214E+04  0.27289060720E+04  0.15294330000E+03 0.  0.
<mgrwt>
<rscale>  0 0.94300859E+03</rscale>
<asrwt>0</asrwt>
<pdfrwt beam="1">  1        2 0.46717776E+00 0.10063011E+04</pdfrwt>
<pdfrwt beam="2">  1       -2 0.11564165E+00 0.10063011E+04</pdfrwt>
<totfact> 0.97786723E-01</totfact>
</mgrwt>
</event>
<event>
 4    5  0.2295023E-007  0.1290969E+04  0.7818608E-02  0.9073398E-01
         -2   -1    0    0    0  501 -0.00000000000E+00  0.00000000000E+00  0.14267064564E+04  0.14267064565E+04  0.25500000000E-02 0.  1.
          2   -1    0    0  501    0  0.00000000000E+00 -0.00000000000E+00 -0.15697035431E+04  0.15697035431E+04  0.25500000000E-02 0. -1.
    8880023    1    1    2    0    0 -0.78927262452E+03 -0.78092215438E+03  0.81100353450E+03  0.15245745722E+04  0.65864270000E+03 0.  1.
    8880022    1    1    2    0    0  0.78927262452E+03  0.78092215438E+03 -0.95400062118E+03  0.14718354274E+04  0.15294330000E+03 0.  0.
<mgrwt>
<rscale>  0 0.12461446E+04</rscale>
<asrwt>0</asrwt>
<pdfrwt beam="1">  1        2 0.24149285E+00 0.12909690E+04</pdfrwt>
<pdfrwt beam="2">  1       -2 0.21949330E+00 0.12909690E+04</pdfrwt>
<totfact> 0.11089722E+00</totfact>
</mgrwt>
</event>
<event>
 4    5  0.2295023E-007  0.9272146E+03  0.7818608E-02  0.9483684E-01
         -2   -1    0    0    0  501 -0.00000000000E+00  0.00000000000E+00  0.21425124547E+03  0.21425124549E+03  0.25500000000E-02 0.  1.
          2   -1    0    0  501    0  0.00000000000E+00 -0.00000000000E+00 -0.35154276053E+04  0.35154276053E+04  0.25500000000E-02 0. -1.
    8880023    1    1    2    0    0 -0.35414273854E+03  0.54817839698E+03 -0.11542598282E+04  0.14805548256E+04  0.65864270000E+03 0. -1.
    8880022    1    1    2    0    0  0.35414273854E+03 -0.54817839698E+03 -0.21469165316E+04  0.22491240252E+04  0.15294330000E+03 0.  0.
<mgrwt>
<rscale>  0 0.85497465E+03</rscale>
<asrwt>0</asrwt>
<pdfrwt beam="1">  1        2 0.54083498E+00 0.92721456E+03</pdfrwt>
<pdfrwt beam="2">  1       -2 0.32961732E-01 0.92721456E+03</pdfrwt>
<totfact> 0.71418097E+00</totfact>
</mgrwt>
</event>
<event>
 4    5  0.2295023E-007  0.9439979E+03  0.7818608E-02  0.9458803E-01
         -2   -1    0    0    0  501 -0.00000000000E+00  0.00000000000E+00  0.71981770199E+03  0.71981770200E+03  0.25500000000E-02 0.  1.
          2   -1    0    0  501    0  0.00000000000E+00 -0.00000000000E+00 -0.18158013482E+04  0.18158013482E+04  0.25500000000E-02 0. -1.
    8880023    1    1    2    0    0 -0.33111945269E+03  0.58964541394E+03  0.28861054650E+03  0.98713122732E+03  0.65864270000E+03 0.  1.
    8880022    1    1    2    0    0  0.33111945269E+03 -0.58964541394E+03 -0.13845941928E+04  0.15484878229E+04  0.15294330000E+03 0.  0.
<mgrwt>
<rscale>  0 0.87390465E+03</rscale>
<asrwt>0</asrwt>
<pdfrwt beam="1">  1        2 0.27935405E+00 0.94399789E+03</pdfrwt>
<pdfrwt beam="2">  1       -2 0.11074119E+00 0.94399789E+03</pdfrwt>
<totfact> 0.54891623E+00</totfact>
</mgrwt>
</event>
<event>
 4    5  0.2295023E-007  0.1786894E+04  0.7818608E-02  0.8729821E-01
          2   -1    0    0  501    0  0.00000000000E+00  0.00000000000E+00  0.32050763770E+04  0.32050763770E+04  0.25500000000E-02 0. -1.
         -2   -1    0    0    0  501 -0.00000000000E+00 -0.00000000000E+00 -0.11568572640E+04  0.11568572640E+04  0.25500000000E-02 0.  1.
    8880023    1    1    2    0    0 -0.81927400469E+03  0.14449808123E+04  0.20154387181E+04  0.26935075413E+04  0.65864270000E+03 0.  0.
    8880022    1    1    2    0    0  0.81927400469E+03 -0.14449808123E+04  0.32780394883E+02  0.16684260996E+04  0.15294330000E+03 0.  0.
<mgrwt>
<rscale>  0 0.17564260E+04</rscale>
<asrwt>0</asrwt>
<pdfrwt beam="1">  1        2 0.49308868E+00 0.17868939E+04</pdfrwt>
<pdfrwt beam="2">  1       -2 0.17797804E+00 0.17868939E+04</pdfrwt>
<totfact> 0.22076566E-01</totfact>
</mgrwt>
</event>
<event>
 4    5  0.2559578E-007  0.6864659E+03  0.7818608E-02  0.1005880E+00
         -2   -1    0    0    0  501 -0.00000000000E+00  0.00000000000E+00  0.82751818165E+03  0.82751818166E+03  0.25500000000E-02 0.  1.
          2   -1    0    0  501    0  0.00000000000E+00 -0.00000000000E+00 -0.36912520466E+04  0.36912520466E+04  0.25500000000E-02 0. -1.
    8880023    1    1    2    0    0 -0.18944028175E+03 -0.39212085350E+02  0.68012796353E+03  0.96633817115E+03  0.65864270000E+03 0.  0.
    8880022    1    1    2    0    0  0.18944028175E+03  0.39212085350E+02 -0.35438618285E+04  0.35524320571E+04  0.15294330000E+03 0. -1.
<mgrwt>
<rscale>  0 0.53145588E+03</rscale>
<asrwt>0</asrwt>
<pdfrwt beam="1">  1        2 0.56788492E+00 0.68646589E+03</pdfrwt>
<pdfrwt beam="2">  1       -2 0.12731049E+00 0.68646589E+03</pdfrwt>
<totfact> 0.30341077E-01</totfact>
</mgrwt>
</event>
<event>
 4    5  0.2295023E-007  0.1956671E+04  0.7818608E-02  0.8640489E-01
         -2   -1    0    0    0  501 -0.00000000000E+00  0.00000000000E+00  0.20225598204E+04  0.20225598204E+04  0.25500000000E-02 0.  1.
          2   -1    0    0  501    0  0.00000000000E+00 -0.00000000000E+00 -0.19861360311E+04  0.19861360311E+04  0.25500000000E-02 0. -1.
    8880023    1    1    2    0    0 -0.66160516180E+03 -0.17196021890E+04  0.64826295153E+03  0.20612637238E+04  0.65864270000E+03 0.  0.
    8880022    1    1    2    0    0  0.66160516180E+03  0.17196021890E+04 -0.61183916227E+03  0.19474321277E+04  0.15294330000E+03 0.  0.
<mgrwt>
<rscale>  0 0.19291333E+04</rscale>
<asrwt>0</asrwt>
<pdfrwt beam="1">  1        2 0.30555939E+00 0.19566715E+04</pdfrwt>
<pdfrwt beam="2">  1       -2 0.31116305E+00 0.19566715E+04</pdfrwt>
<totfact> 0.16506196E-01</totfact>
</mgrwt>
</event>
<event>
 4    5  0.2295023E-007  0.9409825E+03  0.7818608E-02  0.9463209E-01
          2   -1    0    0  501    0  0.00000000000E+00  0.00000000000E+00  0.26568278797E+04  0.26568278797E+04  0.25500000000E-02 0. -1.
         -2   -1    0    0    0  501 -0.00000000000E+00 -0.00000000000E+00 -0.79239571135E+03  0.79239571135E+03  0.25500000000E-02 0.  1.
    8880023    1    1    2    0    0  0.67177357076E+03  0.18922853542E+02 -0.44372886244E+03  0.10403573013E+04  0.65864270000E+03 0.  1.
    8880022    1    1    2    0    0 -0.67177357076E+03 -0.18922853542E+02  0.23081610308E+04  0.24088662898E+04  0.15294330000E+03 0.  0.
<mgrwt>
<rscale>  0 0.87051492E+03</rscale>
<asrwt>0</asrwt>
<pdfrwt beam="1">  1        2 0.40874276E+00 0.94098247E+03</pdfrwt>
<pdfrwt beam="2">  1       -2 0.12190703E+00 0.94098247E+03</pdfrwt>
<totfact> 0.14664770E+00</totfact>
</mgrwt>
</event>
<event>
 4    5  0.2295023E-007  0.9152123E+03  0.7818608E-02  0.9502039E-01
         -2   -1    0    0    0  501 -0.00000000000E+00  0.00000000000E+00  0.99298042488E+03  0.99298042488E+03  0.25500000000E-02 0.  1.
          2   -1    0    0  501    0  0.00000000000E+00 -0.00000000000E+00 -0.18608262879E+04  0.18608262879E+04  0.25500000000E-02 0. -1.
    8880023    1    1    2    0    0 -0.36069395422E+03  0.52316648118E+03  0.70193191246E+03  0.11533958174E+04  0.65864270000E+03 0.  1.
    8880022    1    1    2    0    0  0.36069395422E+03 -0.52316648118E+03 -0.15697777755E+04  0.17004108954E+04  0.15294330000E+03 0.  0.
<mgrwt>
<rscale>  0 0.84133632E+03</rscale>
<asrwt>0</asrwt>
<pdfrwt beam="1">  1        2 0.28628097E+00 0.91521227E+03</pdfrwt>
<pdfrwt beam="2">  1       -2 0.15276622E+00 0.91521227E+03</pdfrwt>
<totfact> 0.22958999E+00</totfact>
</mgrwt>
</event>
<event>
 4    5  0.2295023E-007  0.8083306E+03  0.7818608E-02  0.9693065E-01
         -2   -1    0    0    0  501 -0.00000000000E+00  0.00000000000E+00  0.36757510635E+03  0.36757510635E+03  0.25500000000E-02 0.  1.
          2   -1    0    0  501    0  0.00000000000E+00 -0.00000000000E+00 -0.22031150708E+04  0.22031150708E+04  0.25500000000E-02 0. -1.
    8880023    1    1    2    0    0 -0.46821818118E+03  0.18972642138E+02 -0.15982606774E+03  0.82397985687E+03  0.65864270000E+03 0.  0.
    8880022    1    1    2    0    0  0.46821818118E+03 -0.18972642138E+02 -0.16757138967E+04  0.17467103203E+04  0.15294330000E+03 0.  0.
<mgrwt>
<rscale>  0 0.71431221E+03</rscale>
<asrwt>0</asrwt>
<pdfrwt beam="1">  1        2 0.33894077E+00 0.80833065E+03</pdfrwt>
<pdfrwt beam="2">  1       -2 0.56550018E-01 0.80833065E+03</pdfrwt>
<totfact> 0.15553073E+01</totfact>
</mgrwt>
</event>
<event>
 4    5  0.2295023E-007  0.8837828E+03  0.7818608E-02  0.9552584E-01
          2   -1    0    0  501    0  0.00000000000E+00  0.00000000000E+00  0.21319887544E+04  0.21319887544E+04  0.25500000000E-02 0. -1.
         -2   -1    0    0    0  501 -0.00000000000E+00 -0.00000000000E+00 -0.96782524514E+03  0.96782524514E+03  0.25500000000E-02 0.  1.
    8880023    1    1    2    0    0  0.31279398343E+03  0.49942137891E+03 -0.70720320205E+03  0.11319047509E+04  0.65864270000E+03 0.  1.
    8880022    1    1    2    0    0 -0.31279398343E+03 -0.49942137891E+03  0.18713667113E+04  0.19679092486E+04  0.15294330000E+03 0.  0.
<mgrwt>
<rscale>  0 0.80515623E+03</rscale>
<asrwt>0</asrwt>
<pdfrwt beam="1">  1        2 0.32799827E+00 0.88378278E+03</pdfrwt>
<pdfrwt beam="2">  1       -2 0.14889619E+00 0.88378278E+03</pdfrwt>
<totfact> 0.17524874E+00</totfact>
</mgrwt>
</event>
<event>
 4    5  0.2295023E-007  0.1209302E+04  0.7818608E-02  0.9148133E-01
         -2   -1    0    0    0  501 -0.00000000000E+00  0.00000000000E+00  0.86178260064E+03  0.86178260065E+03  0.25500000000E-02 0.  1.
          2   -1    0    0  501    0  0.00000000000E+00 -0.00000000000E+00 -0.25124999857E+04  0.25124999857E+04  0.25500000000E-02 0. -1.
    8880023    1    1    2    0    0 -0.83249121603E+03  0.57927435621E+03  0.23102036819E+03  0.12311705899E+04  0.65864270000E+03 0.  0.
    8880022    1    1    2    0    0  0.83249121603E+03 -0.57927435621E+03 -0.18817377532E+04  0.21431119965E+04  0.15294330000E+03 0.  0.
<mgrwt>
<rscale>  0 0.11605198E+04</rscale>
<asrwt>0</asrwt>
<pdfrwt beam="1">  1        2 0.38653846E+00 0.12093017E+04</pdfrwt>
<pdfrwt beam="2">  1       -2 0.13258194E+00 0.12093017E+04</pdfrwt>
<totfact> 0.13837375E+00</totfact>
</mgrwt>
</event>
<event>
 4    5  0.2295023E-007  0.8852192E+03  0.7818608E-02  0.9550189E-01
          2   -1    0    0  501    0  0.00000000000E+00  0.00000000000E+00  0.12479191758E+04  0.12479191758E+04  0.25500000000E-02 0. -1.
         -2   -1    0    0    0  501 -0.00000000000E+00 -0.00000000000E+00 -0.11348963022E+04  0.11348963023E+04  0.25500000000E-02 0.  1.
    8880023    1    1    2    0    0 -0.28751131391E+03  0.51685598297E+03 -0.85982618021E+03  0.12340640701E+04  0.65864270000E+03 0.  0.
    8880022    1    1    2    0    0  0.28751131391E+03 -0.51685598297E+03  0.97284905374E+03  0.11487514079E+04  0.15294330000E+03 0.  0.
<mgrwt>
<rscale>  0 0.80682628E+03</rscale>
<asrwt>0</asrwt>
<pdfrwt beam="1">  1        2 0.19198756E+00 0.88521922E+03</pdfrwt>
<pdfrwt beam="2">  1       -2 0.17459943E+00 0.88521922E+03</pdfrwt>
<totfact> 0.35259864E+00</totfact>
</mgrwt>
</event>
<event>
 4    5  0.2295023E-007  0.1330125E+04  0.7818608E-02  0.9039972E-01
         -2   -1    0    0    0  501 -0.00000000000E+00  0.00000000000E+00  0.17958838811E+04  0.17958838811E+04  0.25500000000E-02 0.  1.
          2   -1    0    0  501    0  0.00000000000E+00 -0.00000000000E+00 -0.13173310620E+04  0.13173310620E+04  0.25500000000E-02 0. -1.
    8880023    1    1    2    0    0 -0.10368396151E+04  0.51027930896E+03 -0.65903298550E+03  0.14844379552E+04  0.65864270000E+03 0. -1.
    8880022    1    1    2    0    0  0.10368396151E+04 -0.51027930896E+03  0.11375858047E+04  0.16287769880E+04  0.15294330000E+03 0.  0.
<mgrwt>
<rscale>  0 0.12869575E+04</rscale>
<asrwt>0</asrwt>
<pdfrwt beam="1">  1        2 0.20266632E+00 0.13301246E+04</pdfrwt>
<pdfrwt beam="2">  1       -2 0.27628983E+00 0.13301246E+04</pdfrwt>
<totfact> 0.68740622E-01</totfact>
</mgrwt>
</event>
<event>
 4    5  0.2295023E-007  0.7824339E+03  0.7818608E-02  0.9750150E-01
         -2   -1    0    0    0  501 -0.00000000000E+00  0.00000000000E+00  0.87277502413E+03  0.87277502413E+03  0.25500000000E-02 0.  1.
          2   -1    0    0  501    0  0.00000000000E+00 -0.00000000000E+00 -0.19805670161E+04  0.19805670161E+04  0.25500000000E-02 0. -1.
    8880023    1    1    2    0    0  0.35042007000E+03 -0.23579303623E+03  0.66355901556E+03  0.10259207351E+04  0.65864270000E+03 0.  0.
    8880022    1    1    2    0    0 -0.35042007000E+03  0.23579303623E+03 -0.17713510076E+04  0.18274213051E+04  0.15294330000E+03 0.  0.
<mgrwt>
<rscale>  0 0.68107767E+03</rscale>
<asrwt>0</asrwt>
<pdfrwt beam="1">  1        2 0.30470262E+00 0.78243389E+03</pdfrwt>
<pdfrwt beam="2">  1       -2 0.13427308E+00 0.78243389E+03</pdfrwt>
<totfact> 0.28240669E+00</totfact>
</mgrwt>
</event>
<event>
 4    5  0.2295023E-007  0.7892148E+03  0.7818608E-02  0.9734620E-01
          2   -1    0    0  501    0  0.00000000000E+00  0.00000000000E+00  0.17268652897E+04  0.17268652897E+04  0.25500000000E-02 0. -1.
         -2   -1    0    0    0  501 -0.00000000000E+00 -0.00000000000E+00 -0.73323451015E+03  0.73323451015E+03  0.25500000000E-02 0.  1.
    8880023    1    1    2    0    0  0.28772066798E+03 -0.32598557289E+03  0.15489500174E+04  0.17384205876E+04  0.65864270000E+03 0.  0.
    8880022    1    1    2    0    0 -0.28772066798E+03  0.32598557289E+03 -0.55531923787E+03  0.72167921230E+03  0.15294330000E+03 0.  0.
<mgrwt>
<rscale>  0 0.68992410E+03</rscale>
<asrwt>0</asrwt>
<pdfrwt beam="1">  1        2 0.26567158E+00 0.78921479E+03</pdfrwt>
<pdfrwt beam="2">  1       -2 0.11280531E+00 0.78921479E+03</pdfrwt>
<totfact> 0.59945817E+00</totfact>
</mgrwt>
</event>
<event>
 4    5  0.3489787E-007  0.1276946E+04  0.7818608E-02  0.9085729E-01
         -2   -1    0    0    0  501 -0.00000000000E+00  0.00000000000E+00  0.22574965880E+04  0.22574965880E+04  0.25500000000E-02 0.  1.
          2   -1    0    0  501    0  0.00000000000E+00 -0.00000000000E+00 -0.15810141625E+04  0.15810141625E+04  0.25500000000E-02 0. -1.
    8880023    1    1    2    0    0  0.81065507735E+03  0.73458750926E+03  0.18364251694E+04  0.22367494433E+04  0.65864270000E+03 0.  1.
    8880022    1    1    2    0    0 -0.81065507735E+03 -0.73458750926E+03 -0.11599427439E+04  0.16017613072E+04  0.15294330000E+03 0.  0.
<mgrwt>
<rscale>  0 0.12314931E+04</rscale>
<asrwt>0</asrwt>
<pdfrwt beam="1">  1        2 0.24323295E+00 0.12769458E+04</pdfrwt>
<pdfrwt beam="2">  1       -2 0.34730717E+00 0.12769458E+04</pdfrwt>
<totfact> 0.17914680E-01</totfact>
</mgrwt>
</event>
<event>
 4    5  0.2295023E-007  0.9109130E+03  0.7818608E-02  0.9508735E-01
          2   -1    0    0  501    0  0.00000000000E+00  0.00000000000E+00  0.32345148588E+04  0.32345148588E+04  0.25500000000E-02 0. -1.
         -2   -1    0    0    0  501 -0.00000000000E+00 -0.00000000000E+00 -0.23028989174E+03  0.23028989176E+03  0.25500000000E-02 0.  1.
    8880023    1    1    2    0    0  0.62740988248E+03  0.48053253135E+02  0.97299106221E+03  0.13328443604E+04  0.65864270000E+03 0. -1.
    8880022    1    1    2    0    0 -0.62740988248E+03 -0.48053253135E+02  0.20312339048E+04  0.21319603901E+04  0.15294330000E+03 0.  1.
<mgrwt>
<rscale>  0 0.83642878E+03</rscale>
<asrwt>0</asrwt>
<pdfrwt beam="1">  1        2 0.49761764E+00 0.91091299E+03</pdfrwt>
<pdfrwt beam="2">  1       -2 0.35429217E-01 0.91091299E+03</pdfrwt>
<totfact> 0.96008285E+00</totfact>
</mgrwt>
</event>
<event>
 4    5  0.2295023E-007  0.8641691E+03  0.7818608E-02  0.9586190E-01
          2   -1    0    0  501    0  0.00000000000E+00  0.00000000000E+00  0.87279131237E+03  0.87279131238E+03  0.25500000000E-02 0. -1.
         -2   -1    0    0    0  501 -0.00000000000E+00 -0.00000000000E+00 -0.11391670698E+04  0.11391670698E+04  0.25500000000E-02 0.  1.
    8880023    1    1    2    0    0  0.13716802718E+03  0.54236784633E+03 -0.83361304803E+03  0.12007076532E+04  0.65864270000E+03 0.  0.
    8880022    1    1    2    0    0 -0.13716802718E+03 -0.54236784633E+03  0.56723729058E+03  0.81125072897E+03  0.15294330000E+03 0.  0.
<mgrwt>
<rscale>  0 0.78216995E+03</rscale>
<asrwt>0</asrwt>
<pdfrwt beam="1">  1        2 0.13427559E+00 0.86416905E+03</pdfrwt>
<pdfrwt beam="2">  1       -2 0.17525647E+00 0.86416905E+03</pdfrwt>
<totfact> 0.60210147E+00</totfact>
</mgrwt>
</event>
<event>
 4    5  0.2295023E-007  0.2232160E+04  0.7818608E-02  0.8514980E-01
          2   -1    0    0  501    0  0.00000000000E+00  0.00000000000E+00  0.35090129266E+04  0.35090129266E+04  0.25500000000E-02 0. -1.
         -2   -1    0    0    0  501 -0.00000000000E+00 -0.00000000000E+00 -0.19758602798E+04  0.19758602798E+04  0.25500000000E-02 0.  1.
    8880023    1    1    2    0    0  0.13601328224E+04 -0.16427920202E+04 -0.75190652614E+03  0.23553981716E+04  0.65864270000E+03 0.  0.
    8880022    1    1    2    0    0 -0.13601328224E+04  0.16427920202E+04  0.22850591729E+04  0.31294750348E+04  0.15294330000E+03 0.  0.
<mgrwt>
<rscale>  0 0.22083029E+04</rscale>
<asrwt>0</asrwt>
<pdfrwt beam="1">  1        2 0.53984814E+00 0.22321597E+04</pdfrwt>
<pdfrwt beam="2">  1       -2 0.30397850E+00 0.22321597E+04</pdfrwt>
<totfact> 0.20756751E-02</totfact>
</mgrwt>
</event>
<event>
 4    5  0.2295023E-007  0.8337573E+03  0.7818608E-02  0.9642066E-01
          2   -1    0    0  501    0  0.00000000000E+00  0.00000000000E+00  0.11935020187E+04  0.11935020187E+04  0.25500000000E-02 0. -1.
         -2   -1    0    0    0  501 -0.00000000000E+00 -0.00000000000E+00 -0.73592541185E+03  0.73592541186E+03  0.25500000000E-02 0.  1.
    8880023    1    1    2    0    0  0.59433546085E+02  0.50774866471E+03 -0.39581665306E+03  0.92294207945E+03  0.65864270000E+03 0.  1.
    8880022    1    1    2    0    0 -0.59433546085E+02 -0.50774866471E+03  0.85339325991E+03  0.10064853511E+04  0.15294330000E+03 0.  0.
<mgrwt>
<rscale>  0 0.74573480E+03</rscale>
<asrwt>0</asrwt>
<pdfrwt beam="1">  1        2 0.18361570E+00 0.83375731E+03</pdfrwt>
<pdfrwt beam="2">  1       -2 0.11321929E+00 0.83375731E+03</pdfrwt>
<totfact> 0.11820085E+01</totfact>
</mgrwt>
</event>
<event>
 4    5  0.2295023E-007  0.8313011E+03  0.7818608E-02  0.9646806E-01
         -2   -1    0    0    0  501 -0.00000000000E+00  0.00000000000E+00  0.21601836264E+03  0.21601836266E+03  0.25500000000E-02 0.  1.
          2   -1    0    0  501    0  0.00000000000E+00 -0.00000000000E+00 -0.33083084609E+04  0.33083084609E+04  0.25500000000E-02 0. -1.
    8880023    1    1    2    0    0  0.45445062579E+03  0.22522403403E+03 -0.73945394514E+03  0.11125886841E+04  0.65864270000E+03 0.  1.
    8880022    1    1    2    0    0 -0.45445062579E+03 -0.22522403403E+03 -0.23528361531E+04  0.24117381394E+04  0.15294330000E+03 0.  0.
<mgrwt>
<rscale>  0 0.74274204E+03</rscale>
<asrwt>0</asrwt>
<pdfrwt beam="1">  1        2 0.50897049E+00 0.83130105E+03</pdfrwt>
<pdfrwt beam="2">  1       -2 0.33233597E-01 0.83130105E+03</pdfrwt>
<totfact> 0.98349339E+00</totfact>
</mgrwt>
</event>
<event>
 4    5  0.2295023E-007  0.8758679E+03  0.7818608E-02  0.9565938E-01
         -2   -1    0    0    0  501 -0.00000000000E+00  0.00000000000E+00  0.13493999656E+04  0.13493999656E+04  0.25500000000E-02 0.  1.
          2   -1    0    0  501    0  0.00000000000E+00 -0.00000000000E+00 -0.10319060636E+04  0.10319060636E+04  0.25500000000E-02 0. -1.
    8880023    1    1    2    0    0 -0.40507446980E+03  0.41139887141E+03  0.10941580022E+04  0.14015442546E+04  0.65864270000E+03 0.  1.
    8880022    1    1    2    0    0  0.40507446980E+03 -0.41139887141E+03 -0.77666410015E+03  0.97976177460E+03  0.15294330000E+03 0.  0.
<mgrwt>
<rscale>  0 0.79592254E+03</rscale>
<asrwt>0</asrwt>
<pdfrwt beam="1">  1        2 0.15875478E+00 0.87586789E+03</pdfrwt>
<pdfrwt beam="2">  1       -2 0.20759999E+00 0.87586789E+03</pdfrwt>
<totfact> 0.28739212E+00</totfact>
</mgrwt>
</event>
<event>
 4    5  0.2295023E-007  0.7091611E+03  0.7818608E-02  0.9961129E-01
         -2   -1    0    0    0  501 -0.00000000000E+00  0.00000000000E+00  0.28847053049E+03  0.28847053050E+03  0.25500000000E-02 0.  1.
          2   -1    0    0  501    0  0.00000000000E+00 -0.00000000000E+00 -0.13167074107E+04  0.13167074107E+04  0.25500000000E-02 0. -1.
    8880023    1    1    2    0    0  0.28906057905E+02  0.26127314439E+03 -0.22138606846E+03  0.74291400157E+03  0.65864270000E+03 0.  1.
    8880022    1    1    2    0    0 -0.28906057905E+02 -0.26127314439E+03 -0.80685081175E+03  0.86226393964E+03  0.15294330000E+03 0.  0.
<mgrwt>
<rscale>  0 0.57387991E+03</rscale>
<asrwt>0</asrwt>
<pdfrwt beam="1">  1        2 0.20257037E+00 0.70916107E+03</pdfrwt>
<pdfrwt beam="2">  1       -2 0.44380082E-01 0.70916107E+03</pdfrwt>
<totfact> 0.79483903E+01</totfact>
</mgrwt>
</event>
<event>
 4    5  0.2295023E-007  0.1227460E+04  0.7818608E-02  0.9130880E-01
         -2   -1    0    0    0  501 -0.00000000000E+00  0.00000000000E+00  0.61643928899E+03  0.61643928899E+03  0.25500000000E-02 0.  1.
          2   -1    0    0  501    0  0.00000000000E+00 -0.00000000000E+00 -0.23593830796E+04  0.23593830796E+04  0.25500000000E-02 0. -1.
    8880023    1    1    2    0    0 -0.55595005980E+03 -0.87393828770E+03 -0.14267743570E+04  0.18821115460E+04  0.65864270000E+03 0.  0.
    8880022    1    1    2    0    0  0.55595005980E+03  0.87393828770E+03 -0.31616943369E+03  0.10937108226E+04  0.15294330000E+03 0.  0.
<mgrwt>
<rscale>  0 0.11796246E+04</rscale>
<asrwt>0</asrwt>
<pdfrwt beam="1">  1        2 0.36298201E+00 0.12274603E+04</pdfrwt>
<pdfrwt beam="2">  1       -2 0.94836815E-01 0.12274603E+04</pdfrwt>
<totfact> 0.38446908E+00</totfact>
</mgrwt>
</event>
<event>
 4    5  0.2295023E-007  0.8695199E+03  0.7818608E-02  0.9576849E-01
          2   -1    0    0  501    0  0.00000000000E+00  0.00000000000E+00  0.20113841060E+04  0.20113841060E+04  0.25500000000E-02 0. -1.
         -2   -1    0    0    0  501 -0.00000000000E+00 -0.00000000000E+00 -0.10899262894E+04  0.10899262894E+04  0.25500000000E-02 0.  1.
    8880023    1    1    2    0    0  0.12618001407E+03 -0.55347385059E+03 -0.86143561288E+03  0.12239837502E+04  0.65864270000E+03 0.  0.
    8880022    1    1    2    0    0 -0.12618001407E+03  0.55347385059E+03  0.17828934295E+04  0.18773266453E+04  0.15294330000E+03 0.  0.
<mgrwt>
<rscale>  0 0.78847632E+03</rscale>
<asrwt>0</asrwt>
<pdfrwt beam="1">  1        2 0.30944371E+00 0.86951993E+03</pdfrwt>
<pdfrwt beam="2">  1       -2 0.16768097E+00 0.86951993E+03</pdfrwt>
<totfact> 0.14839885E+00</totfact>
</mgrwt>
</event>
<event>
 4    5  0.2295023E-007  0.7278411E+03  0.7818608E-02  0.9896896E-01
          2   -1    0    0  501    0  0.00000000000E+00  0.00000000000E+00  0.31373589261E+04  0.31373589261E+04  0.25500000000E-02 0. -1.
         -2   -1    0    0    0  501 -0.00000000000E+00 -0.00000000000E+00 -0.14298089158E+03  0.14298089160E+03  0.25500000000E-02 0.  1.
    8880023    1    1    2    0    0 -0.27961714017E+03  0.13325409192E+03  0.89910647797E+03  0.11567822021E+04  0.65864270000E+03 0.  1.
    8880022    1    1    2    0    0  0.27961714017E+03 -0.13325409192E+03  0.20952715566E+04  0.21235576156E+04  0.15294330000E+03 0.  0.
<mgrwt>
<rscale>  0 0.60411965E+03</rscale>
<asrwt>0</asrwt>
<pdfrwt beam="1">  1        2 0.48267057E+00 0.72784106E+03</pdfrwt>
<pdfrwt beam="2">  1       -2 0.21997062E-01 0.72784106E+03</pdfrwt>
<totfact> 0.27378975E+01</totfact>
</mgrwt>
</event>
<event>
 4    5  0.2295023E-007  0.7475329E+03  0.7818608E-02  0.9838524E-01
         -2   -1    0    0    0  501 -0.00000000000E+00  0.00000000000E+00  0.44218665988E+03  0.44218665988E+03  0.25500000000E-02 0.  1.
          2   -1    0    0  501    0  0.00000000000E+00 -0.00000000000E+00 -0.10127231569E+04  0.10127231569E+04  0.25500000000E-02 0. -1.
    8880023    1    1    2    0    0 -0.10374846868E+03 -0.33798137865E+03  0.22356914443E+02  0.74786709712E+03  0.65864270000E+03 0.  1.
    8880022    1    1    2    0    0  0.10374846868E+03  0.33798137865E+03 -0.59289341148E+03  0.70704271968E+03  0.15294330000E+03 0.  0.
<mgrwt>
<rscale>  0 0.63335488E+03</rscale>
<asrwt>0</asrwt>
<pdfrwt beam="1">  1        2 0.15580356E+00 0.74753285E+03</pdfrwt>
<pdfrwt beam="2">  1       -2 0.68028717E-01 0.74753285E+03</pdfrwt>
<totfact> 0.49677890E+01</totfact>
</mgrwt>
</event>
<event>
 4    5  0.2295023E-007  0.1122638E+04  0.7818608E-02  0.9236260E-01
         -2   -1    0    0    0  501 -0.00000000000E+00  0.00000000000E+00  0.60819362384E+03  0.60819362385E+03  0.25500000000E-02 0.  1.
          2   -1    0    0  501    0  0.00000000000E+00 -0.00000000000E+00 -0.21009319955E+04  0.21009319955E+04  0.25500000000E-02 0. -1.
    8880023    1    1    2    0    0 -0.88565312702E+03 -0.20524489038E+03 -0.23047983976E+03  0.11460532663E+04  0.65864270000E+03 0.  0.
    8880022    1    1    2    0    0  0.88565312702E+03  0.20524489038E+03 -0.12622585319E+04  0.15630723530E+04  0.15294330000E+03 0.  0.
<mgrwt>
<rscale>  0 0.10686877E+04</rscale>
<asrwt>0</asrwt>
<pdfrwt beam="1">  1        2 0.32322030E+00 0.11226385E+04</pdfrwt>
<pdfrwt beam="2">  1       -2 0.93568251E-01 0.11226385E+04</pdfrwt>
<totfact> 0.56017025E+00</totfact>
</mgrwt>
</event>
<event>
 4    5  0.2295023E-007  0.1153040E+04  0.7818608E-02  0.9204180E-01
         -2   -1    0    0    0  501 -0.00000000000E+00  0.00000000000E+00  0.11579141113E+04  0.11579141113E+04  0.25500000000E-02 0.  1.
          2   -1    0    0  501    0  0.00000000000E+00 -0.00000000000E+00 -0.18747837077E+04  0.18747837077E+04  0.25500000000E-02 0. -1.
    8880023    1    1    2    0    0  0.39034792517E+03  0.86216024392E+03  0.67990552133E+03  0.13385714449E+04  0.65864270000E+03 0.  0.
    8880022    1    1    2    0    0 -0.39034792517E+03 -0.86216024392E+03 -0.13967751177E+04  0.16941263741E+04  0.15294330000E+03 0.  0.
<mgrwt>
<rscale>  0 0.11010391E+04</rscale>
<asrwt>0</asrwt>
<pdfrwt beam="1">  1        2 0.28842826E+00 0.11530403E+04</pdfrwt>
<pdfrwt beam="2">  1       -2 0.17814063E+00 0.11530403E+04</pdfrwt>
<totfact> 0.14305310E+00</totfact>
</mgrwt>
</event>
<event>
 4    5  0.2295023E-007  0.9877755E+03  0.7818608E-02  0.9397729E-01
          2   -1    0    0  501    0  0.00000000000E+00  0.00000000000E+00  0.71087550300E+03  0.71087550300E+03  0.25500000000E-02 0. -1.
         -2   -1    0    0    0  501 -0.00000000000E+00 -0.00000000000E+00 -0.20038878634E+04  0.20038878634E+04  0.25500000000E-02 0.  1.
    8880023    1    1    2    0    0  0.72436154382E+03 -0.13111264556E+03 -0.16179948184E+04  0.18956813051E+04  0.65864270000E+03 0.  0.
    8880022    1    1    2    0    0 -0.72436154382E+03  0.13111264556E+03  0.32498245804E+03  0.81908206123E+03  0.15294330000E+03 0.  0.
<mgrwt>
<rscale>  0 0.92262837E+03</rscale>
<asrwt>0</asrwt>
<pdfrwt beam="1">  1        2 0.10936546E+00 0.98777547E+03</pdfrwt>
<pdfrwt beam="2">  1       -2 0.30829044E+00 0.98777547E+03</pdfrwt>
<totfact> 0.11449843E+00</totfact>
</mgrwt>
</event>
<event>
 4    5  0.2295023E-007  0.7142058E+03  0.7818608E-02  0.9942703E-01
         -2   -1    0    0    0  501 -0.00000000000E+00  0.00000000000E+00  0.41960486208E+03  0.41960486209E+03  0.25500000000E-02 0.  1.
          2   -1    0    0  501    0  0.00000000000E+00 -0.00000000000E+00 -0.25815183405E+04  0.25815183405E+04  0.25500000000E-02 0. -1.
    8880023    1    1    2    0    0  0.16803810983E+03 -0.21918685639E+03  0.96548227456E+02  0.72070205415E+03  0.65864270000E+03 0.  1.
    8880022    1    1    2    0    0 -0.16803810983E+03  0.21918685639E+03 -0.22584617059E+04  0.22804211485E+04  0.15294330000E+03 0.  0.
<mgrwt>
<rscale>  0 0.58235634E+03</rscale>
<asrwt>0</asrwt>
<pdfrwt beam="1">  1        2 0.39715666E+00 0.71420578E+03</pdfrwt>
<pdfrwt beam="2">  1       -2 0.64554596E-01 0.71420578E+03</pdfrwt>
<totfact> 0.73172747E+00</totfact>
</mgrwt>
</event>
<event>
 4    5  0.2295023E-007  0.6878278E+03  0.7818608E-02  0.1005203E+00
          2   -1    0    0  501    0  0.00000000000E+00  0.00000000000E+00  0.26355337198E+04  0.26355337198E+04  0.25500000000E-02 0. -1.
         -2   -1    0    0    0  501 -0.00000000000E+00 -0.00000000000E+00 -0.34382169574E+03  0.34382169575E+03  0.25500000000E-02 0.  1.
    8880023    1    1    2    0    0 -0.41371325042E+02 -0.19386925703E+03  0.14048111567E+02  0.68797124290E+03  0.65864270000E+03 0.  1.
    8880022    1    1    2    0    0  0.41371325042E+02  0.19386925703E+03  0.22776639125E+04  0.22913841727E+04  0.15294330000E+03 0.  0.
<mgrwt>
<rscale>  0 0.53426694E+03</rscale>
<asrwt>0</asrwt>
<pdfrwt beam="1">  1        2 0.40546673E+00 0.68782780E+03</pdfrwt>
<pdfrwt beam="2">  1       -2 0.52895646E-01 0.68782780E+03</pdfrwt>
<totfact> 0.10401187E+01</totfact>
</mgrwt>
</event>
<event>
 4    5  0.2295023E-007  0.7193560E+03  0.7818608E-02  0.9924771E-01
          2   -1    0    0  501    0  0.00000000000E+00  0.00000000000E+00  0.10083428394E+04  0.10083428394E+04  0.25500000000E-02 0. -1.
         -2   -1    0    0    0  501 -0.00000000000E+00 -0.00000000000E+00 -0.13609678560E+04  0.13609678560E+04  0.25500000000E-02 0.  1.
    8880023    1    1    2    0    0  0.28918415250E+03 -0.59449049637E+01 -0.12344428948E+04  0.14287485023E+04  0.65864270000E+03 0.  1.
    8880022    1    1    2    0    0 -0.28918415250E+03  0.59449049637E+01  0.88181787820E+03  0.94056219320E+03  0.15294330000E+03 0.  0.
<mgrwt>
<rscale>  0 0.59075648E+03</rscale>
<asrwt>0</asrwt>
<pdfrwt beam="1">  1        2 0.15512967E+00 0.71935598E+03</pdfrwt>
<pdfrwt beam="2">  1       -2 0.20937967E+00 0.71935598E+03</pdfrwt>
<totfact> 0.29636354E+00</totfact>
</mgrwt>
</event>
<event>
 4    5  0.2295023E-007  0.2107099E+04  0.7818608E-02  0.8569345E-01
          2   -1    0    0  501    0  0.00000000000E+00  0.00000000000E+00  0.24583471101E+04  0.24583471101E+04  0.25500000000E-02 0. -1.
         -2   -1    0    0    0  501 -0.00000000000E+00 -0.00000000000E+00 -0.26449945493E+04  0.26449945493E+04  0.25500000000E-02 0.  1.
    8880023    1    1    2    0    0 -0.68172114868E+03  0.18818373280E+04 -0.16022169541E+04  0.26470672126E+04  0.65864270000E+03 0.  1.
    8880022    1    1    2    0    0  0.68172114868E+03 -0.18818373280E+04  0.14155695150E+04  0.24562744468E+04  0.15294330000E+03 0.  0.
<mgrwt>
<rscale>  0 0.20817059E+04</rscale>
<asrwt>0</asrwt>
<pdfrwt beam="1">  1        2 0.37820725E+00 0.21070989E+04</pdfrwt>
<pdfrwt beam="2">  1       -2 0.40692224E+00 0.21070989E+04</pdfrwt>
<totfact> 0.21443559E-02</totfact>
</mgrwt>
</event>
<event>
 4    5  0.2295023E-007  0.9814288E+03  0.7818608E-02  0.9406268E-01
         -2   -1    0    0    0  501 -0.00000000000E+00  0.00000000000E+00  0.70906864536E+03  0.70906864536E+03  0.25500000000E-02 0.  1.
          2   -1    0    0  501    0  0.00000000000E+00 -0.00000000000E+00 -0.24856568730E+04  0.24856568730E+04  0.25500000000E-02 0. -1.
    8880023    1    1    2    0    0  0.72729487834E+03 -0.20842577193E+02  0.26948545668E+03  0.10177548186E+04  0.65864270000E+03 0.  1.
    8880022    1    1    2    0    0 -0.72729487834E+03  0.20842577193E+02 -0.20460736843E+04  0.21769706998E+04  0.15294330000E+03 0.  0.
<mgrwt>
<rscale>  0 0.91561630E+03</rscale>
<asrwt>0</asrwt>
<pdfrwt beam="1">  1        2 0.38240874E+00 0.98142878E+03</pdfrwt>
<pdfrwt beam="2">  1       -2 0.10908749E+00 0.98142878E+03</pdfrwt>
<totfact> 0.24035072E+00</totfact>
</mgrwt>
</event>
<event>
 4    5  0.2295023E-007  0.7174482E+03  0.7818608E-02  0.9931317E-01
         -2   -1    0    0    0  501 -0.00000000000E+00  0.00000000000E+00  0.17839670959E+03  0.17839670961E+03  0.25500000000E-02 0.  1.
          2   -1    0    0  501    0  0.00000000000E+00 -0.00000000000E+00 -0.15211405742E+04  0.15211405742E+04  0.25500000000E-02 0. -1.
    8880023    1    1    2    0    0 -0.28279449378E+03 -0.30806765291E+02 -0.96645391475E+03  0.12036466085E+04  0.65864270000E+03 0.  1.
    8880022    1    1    2    0    0  0.28279449378E+03  0.30806765291E+02 -0.37628994986E+03  0.49589067533E+03  0.15294330000E+03 0. -1.
<mgrwt>
<rscale>  0 0.58767263E+03</rscale>
<asrwt>0</asrwt>
<pdfrwt beam="1">  1        2 0.23402162E+00 0.71744825E+03</pdfrwt>
<pdfrwt beam="2">  1       -2 0.27445649E-01 0.71744825E+03</pdfrwt>
<totfact> 0.15213884E+02</totfact>
</mgrwt>
</event>
<event>
 4    5  0.3563801E-007  0.6973793E+03  0.7818608E-02  0.1000825E+00
         -2   -1    0    0    0  501 -0.00000000000E+00  0.00000000000E+00  0.12677054770E+04  0.12677054771E+04  0.25500000000E-02 0.  1.
          2   -1    0    0  501    0  0.00000000000E+00 -0.00000000000E+00 -0.43155371126E+04  0.43155371126E+04  0.25500000000E-02 0. -1.
    8880023    1    1    2    0    0 -0.18898444845E+03 -0.12966321529E+03  0.11669565060E+04  0.13594577464E+04  0.65864270000E+03 0.  1.
    8880022    1    1    2    0    0  0.18898444845E+03  0.12966321529E+03 -0.42147881415E+04  0.42237848432E+04  0.15294330000E+03 0.  0.
<mgrwt>
<rscale>  0 0.55289903E+03</rscale>
<asrwt>0</asrwt>
<pdfrwt beam="1">  1        2 0.66392878E+00 0.69737929E+03</pdfrwt>
<pdfrwt beam="2">  1       -2 0.19503161E+00 0.69737929E+03</pdfrwt>
<totfact> 0.30608006E-02</totfact>
</mgrwt>
</event>
<event>
 4    5  0.2295023E-007  0.8424576E+03  0.7818608E-02  0.9625563E-01
          2   -1    0    0  501    0  0.00000000000E+00  0.00000000000E+00  0.14303522355E+04  0.14303522355E+04  0.25500000000E-02 0. -1.
         -2   -1    0    0    0  501 -0.00000000000E+00 -0.00000000000E+00 -0.60503494266E+03  0.60503494267E+03  0.25500000000E-02 0.  1.
    8880023    1    1    2    0    0 -0.25197588972E+03 -0.46090436821E+03 -0.20659097427E+03  0.86741842414E+03  0.65864270000E+03 0.  1.
    8880022    1    1    2    0    0  0.25197588972E+03  0.46090436821E+03  0.10319082671E+04  0.11679687540E+04  0.15294330000E+03 0. -1.
<mgrwt>
<rscale>  0 0.75627085E+03</rscale>
<asrwt>0</asrwt>
<pdfrwt beam="1">  1        2 0.22005419E+00 0.84245765E+03</pdfrwt>
<pdfrwt beam="2">  1       -2 0.93082300E-01 0.84245765E+03</pdfrwt>
<totfact> 0.13751376E+01</totfact>
</mgrwt>
</event>
<event>
 4    5  0.2295023E-007  0.1480729E+04  0.7818608E-02  0.8923365E-01
          2   -1    0    0  501    0  0.00000000000E+00  0.00000000000E+00  0.17569134049E+04  0.17569134049E+04  0.25500000000E-02 0. -1.
         -2   -1    0    0    0  501 -0.00000000000E+00 -0.00000000000E+00 -0.18456162286E+04  0.18456162286E+04  0.25500000000E-02 0.  1.
    8880023    1    1    2    0    0 -0.11671850311E+04  0.62962422675E+03 -0.11679176977E+04  0.18858922341E+04  0.65864270000E+03 0.  0.
    8880022    1    1    2    0    0  0.11671850311E+04 -0.62962422675E+03  0.10792148740E+04  0.17166373994E+04  0.15294330000E+03 0.  0.
<mgrwt>
<rscale>  0 0.14428605E+04</rscale>
<asrwt>0</asrwt>
<pdfrwt beam="1">  1        2 0.27029437E+00 0.14807288E+04</pdfrwt>
<pdfrwt beam="2">  1       -2 0.28394096E+00 0.14807288E+04</pdfrwt>
<totfact> 0.34174504E-01</totfact>
</mgrwt>
</event>
<event>
 4    5  0.2295023E-007  0.6739086E+03  0.7818608E-02  0.1013003E+00
          2   -1    0    0  501    0  0.00000000000E+00  0.00000000000E+00  0.13958295592E+04  0.13958295592E+04  0.25500000000E-02 0. -1.
         -2   -1    0    0    0  501 -0.00000000000E+00 -0.00000000000E+00 -0.28576455511E+03  0.28576455512E+03  0.25500000000E-02 0.  1.
    8880023    1    1    2    0    0  0.14240542800E+03  0.79513020490E+01  0.13877907649E+03  0.68804968386E+03  0.65864270000E+03 0.  1.
    8880022    1    1    2    0    0 -0.14240542800E+03 -0.79513020490E+01  0.97128592760E+03  0.99354443046E+03  0.15294330000E+03 0.  0.
<mgrwt>
<rscale>  0 0.50298305E+03</rscale>
<asrwt>0</asrwt>
<pdfrwt beam="1">  1        2 0.21474301E+00 0.67390855E+03</pdfrwt>
<pdfrwt beam="2">  1       -2 0.43963778E-01 0.67390855E+03</pdfrwt>
<totfact> 0.73274558E+01</totfact>
</mgrwt>
</event>
<event>
 4    5  0.2295023E-007  0.9869478E+03  0.7818608E-02  0.9398837E-01
          2   -1    0    0  501    0  0.00000000000E+00  0.00000000000E+00  0.19206007942E+04  0.19206007942E+04  0.25500000000E-02 0. -1.
         -2   -1    0    0    0  501 -0.00000000000E+00 -0.00000000000E+00 -0.74749440416E+03  0.74749440416E+03  0.25500000000E-02 0.  1.
    8880023    1    1    2    0    0  0.71018949999E+03  0.18943783667E+03 -0.28567232527E+03  0.10274603173E+04  0.65864270000E+03 0.  0.
    8880022    1    1    2    0    0 -0.71018949999E+03 -0.18943783667E+03  0.14587787153E+04  0.16406348811E+04  0.15294330000E+03 0.  0.
<mgrwt>
<rscale>  0 0.92171487E+03</rscale>
<asrwt>0</asrwt>
<pdfrwt beam="1">  1        2 0.29547704E+00 0.98694783E+03</pdfrwt>
<pdfrwt beam="2">  1       -2 0.11499914E+00 0.98694783E+03</pdfrwt>
<totfact> 0.43610654E+00</totfact>
</mgrwt>
</event>
<event>
 4    5  0.2295023E-007  0.1634289E+04  0.7818608E-02  0.8820205E-01
         -2   -1    0    0    0  501 -0.00000000000E+00  0.00000000000E+00  0.21748475457E+04  0.21748475457E+04  0.25500000000E-02 0.  1.
          2   -1    0    0  501    0  0.00000000000E+00 -0.00000000000E+00 -0.23843867912E+04  0.23843867912E+04  0.25500000000E-02 0. -1.
    8880023    1    1    2    0    0 -0.22041995557E+03  0.14793596034E+04  0.15447562998E+04  0.22488156939E+04  0.65864270000E+03 0.  1.
    8880022    1    1    2    0    0  0.22041995557E+03 -0.14793596034E+04 -0.17542955452E+04  0.23104186430E+04  0.15294330000E+03 0.  0.
<mgrwt>
<rscale>  0 0.16005592E+04</rscale>
<asrwt>0</asrwt>
<pdfrwt beam="1">  1        2 0.36682873E+00 0.16342888E+04</pdfrwt>
<pdfrwt beam="2">  1       -2 0.33459193E+00 0.16342888E+04</pdfrwt>
<totfact> 0.72769985E-02</totfact>
</mgrwt>
</event>
<event>
 4    5  0.2295023E-007  0.7375098E+03  0.7818608E-02  0.9867261E-01
          2   -1    0    0  501    0  0.00000000000E+00  0.00000000000E+00  0.86940288993E+03  0.86940288993E+03  0.25500000000E-02 0. -1.
         -2   -1    0    0    0  501 -0.00000000000E+00 -0.00000000000E+00 -0.68861310345E+03  0.68861310345E+03  0.25500000000E-02 0.  1.
    8880023    1    1    2    0    0  0.54494340404E+02  0.32732389526E+03 -0.42453137743E+03  0.85096866113E+03  0.65864270000E+03 0.  1.
    8880022    1    1    2    0    0 -0.54494340404E+02 -0.32732389526E+03  0.60532116391E+03  0.70704733225E+03  0.15294330000E+03 0.  0.
<mgrwt>
<rscale>  0 0.61874532E+03</rscale>
<asrwt>0</asrwt>
<pdfrwt beam="1">  1        2 0.13375429E+00 0.73750985E+03</pdfrwt>
<pdfrwt beam="2">  1       -2 0.10594048E+00 0.73750985E+03</pdfrwt>
<totfact> 0.22498980E+01</totfact>
</mgrwt>
</event>
<event>
 4    5  0.2295023E-007  0.1240283E+04  0.7818608E-02  0.9118925E-01
          2   -1    0    0  501    0  0.00000000000E+00  0.00000000000E+00  0.41800231812E+04  0.41800231812E+04  0.25500000000E-02 0. -1.
         -2   -1    0    0    0  501 -0.00000000000E+00 -0.00000000000E+00 -0.47143404846E+03  0.47143404846E+03  0.25500000000E-02 0.  1.
    8880023    1    1    2    0    0  0.10108416205E+04  0.28756238832E+03  0.62248461985E+03  0.13877284378E+04  0.65864270000E+03 0.  0.
    8880022    1    1    2    0    0 -0.10108416205E+04 -0.28756238832E+03  0.30861045129E+04  0.32637287918E+04  0.15294330000E+03 0.  0.
<mgrwt>
<rscale>  0 0.11930916E+04</rscale>
<asrwt>0</asrwt>
<pdfrwt beam="1">  1        2 0.64308047E+00 0.12402835E+04</pdfrwt>
<pdfrwt beam="2">  1       -2 0.72528317E-01 0.12402835E+04</pdfrwt>
<totfact> 0.42300660E-01</totfact>
</mgrwt>
</event>
<event>
 4    5  0.2295023E-007  0.9577784E+03  0.7818608E-02  0.9439010E-01
          2   -1    0    0  501    0  0.00000000000E+00  0.00000000000E+00  0.59628682380E+03  0.59628682381E+03  0.25500000000E-02 0. -1.
         -2   -1    0    0    0  501 -0.00000000000E+00 -0.00000000000E+00 -0.29437896822E+04  0.29437896822E+04  0.25500000000E-02 0.  1.
    8880023    1    1    2    0    0 -0.43282143458E+03  0.54423786480E+03 -0.26108230554E+04  0.27809596330E+04  0.65864270000E+03 0.  1.
    8880022    1    1    2    0    0  0.43282143458E+03 -0.54423786480E+03  0.26332019698E+03  0.75911687299E+03  0.15294330000E+03 0.  0.
<mgrwt>
<rscale>  0 0.88933688E+03</rscale>
<asrwt>0</asrwt>
<pdfrwt beam="1">  1        2 0.91736436E-01 0.95777840E+03</pdfrwt>
<pdfrwt beam="2">  1       -2 0.45289071E+00 0.95777840E+03</pdfrwt>
<totfact> 0.17038841E-01</totfact>
</mgrwt>
</event>
<event>
 4    5  0.2295023E-007  0.8243295E+03  0.7818608E-02  0.9660468E-01
          2   -1    0    0  501    0  0.00000000000E+00  0.00000000000E+00  0.14939708720E+04  0.14939708720E+04  0.25500000000E-02 0. -1.
         -2   -1    0    0    0  501 -0.00000000000E+00 -0.00000000000E+00 -0.19543436795E+04  0.19543436795E+04  0.25500000000E-02 0.  1.
    8880023    1    1    2    0    0  0.25770427539E+03 -0.42343523641E+03 -0.18173487468E+04  0.19955639721E+04  0.65864270000E+03 0.  1.
    8880022    1    1    2    0    0 -0.25770427539E+03  0.42343523641E+03  0.13569759394E+04  0.14527505794E+04  0.15294330000E+03 0.  0.
<mgrwt>
<rscale>  0 0.73420096E+03</rscale>
<asrwt>0</asrwt>
<pdfrwt beam="1">  1        2 0.22984167E+00 0.82432948E+03</pdfrwt>
<pdfrwt beam="2">  1       -2 0.30066826E+00 0.82432948E+03</pdfrwt>
<totfact> 0.41822573E-01</totfact>
</mgrwt>
</event>
<event>
 4    5  0.2295023E-007  0.9939247E+03  0.7818608E-02  0.9389549E-01
         -2   -1    0    0    0  501 -0.00000000000E+00  0.00000000000E+00  0.96973632196E+03  0.96973632196E+03  0.25500000000E-02 0.  1.
          2   -1    0    0  501    0  0.00000000000E+00 -0.00000000000E+00 -0.91457412985E+03  0.91457412985E+03  0.25500000000E-02 0. -1.
    8880023    1    1    2    0    0 -0.24838308236E+03 -0.70169934403E+03  0.37163637834E+03  0.10611314381E+04  0.65864270000E+03 0.  0.
    8880022    1    1    2    0    0  0.24838308236E+03  0.70169934403E+03 -0.31647418623E+03  0.82317901369E+03  0.15294330000E+03 0.  0.
<mgrwt>
<rscale>  0 0.92940731E+03</rscale>
<asrwt>0</asrwt>
<pdfrwt beam="1">  1        2 0.14070371E+00 0.99392471E+03</pdfrwt>
<pdfrwt beam="2">  1       -2 0.14919020E+00 0.99392471E+03</pdfrwt>
<totfact> 0.86434089E+00</totfact>
</mgrwt>
</event>
<event>
 4    5  0.2295023E-007  0.9406770E+03  0.7818608E-02  0.9463657E-01
          2   -1    0    0  501    0  0.00000000000E+00  0.00000000000E+00  0.74169078133E+03  0.74169078134E+03  0.25500000000E-02 0. -1.
         -2   -1    0    0    0  501 -0.00000000000E+00 -0.00000000000E+00 -0.12981499765E+04  0.12981499765E+04  0.25500000000E-02 0.  1.
    8880023    1    1    2    0    0 -0.57693519414E+03  0.34381508609E+03 -0.87156515424E+03  0.12823802307E+04  0.65864270000E+03 0.  1.
    8880022    1    1    2    0    0  0.57693519414E+03 -0.34381508609E+03  0.31510595911E+03  0.75746052712E+03  0.15294330000E+03 0.  0.
<mgrwt>
<rscale>  0 0.87017127E+03</rscale>
<asrwt>0</asrwt>
<pdfrwt beam="1">  1        2 0.11410627E+00 0.94067701E+03</pdfrwt>
<pdfrwt beam="2">  1       -2 0.19971538E+00 0.94067701E+03</pdfrwt>
<totfact> 0.50773292E+00</totfact>
</mgrwt>
</event>
<event>
 4    5  0.2295023E-007  0.7713055E+03  0.7818608E-02  0.9776672E-01
          2   -1    0    0  501    0  0.00000000000E+00  0.00000000000E+00  0.10893338279E+04  0.10893338279E+04  0.25500000000E-02 0. -1.
         -2   -1    0    0    0  501 -0.00000000000E+00 -0.00000000000E+00 -0.45511396328E+03  0.45511396329E+03  0.25500000000E-02 0.  1.
    8880023    1    1    2    0    0 -0.12912157850E+03 -0.38003892061E+03 -0.85722764980E+01  0.77135313145E+03  0.65864270000E+03 0.  0.
    8880022    1    1    2    0    0  0.12912157850E+03  0.38003892061E+03  0.64279214107E+03  0.77309465969E+03  0.15294330000E+03 0.  0.
<mgrwt>
<rscale>  0 0.66629643E+03</rscale>
<asrwt>0</asrwt>
<pdfrwt beam="1">  1        2 0.16758982E+00 0.77130550E+03</pdfrwt>
<pdfrwt beam="2">  1       -2 0.70017534E-01 0.77130550E+03</pdfrwt>
<totfact> 0.41703697E+01</totfact>
</mgrwt>
</event>
<event>
 4    5  0.2295023E-007  0.8190126E+03  0.7818608E-02  0.9671101E-01
         -2   -1    0    0    0  501 -0.00000000000E+00  0.00000000000E+00  0.37273954196E+03  0.37273954197E+03  0.25500000000E-02 0.  1.
          2   -1    0    0  501    0  0.00000000000E+00 -0.00000000000E+00 -0.15543295789E+04  0.15543295789E+04  0.25500000000E-02 0. -1.
    8880023    1    1    2    0    0 -0.23652157040E+03  0.42547498896E+03 -0.23557863548E+03  0.85221999463E+03  0.65864270000E+03 0.  1.
    8880022    1    1    2    0    0  0.23652157040E+03 -0.42547498896E+03 -0.94601140148E+03  0.10748491263E+04  0.15294330000E+03 0.  0.
<mgrwt>
<rscale>  0 0.72763798E+03</rscale>
<asrwt>0</asrwt>
<pdfrwt beam="1">  1        2 0.23912762E+00 0.81901259E+03</pdfrwt>
<pdfrwt beam="2">  1       -2 0.57344546E-01 0.81901259E+03</pdfrwt>
<totfact> 0.34250089E+01</totfact>
</mgrwt>
</event>
<event>
 4    5  0.2295023E-007  0.7672637E+03  0.7818608E-02  0.9786653E-01
          2   -1    0    0  501    0  0.00000000000E+00  0.00000000000E+00  0.60797828306E+03  0.60797828306E+03  0.25500000000E-02 0. -1.
         -2   -1    0    0    0  501 -0.00000000000E+00 -0.00000000000E+00 -0.22036862346E+04  0.22036862346E+04  0.25500000000E-02 0.  1.
    8880023    1    1    2    0    0  0.28197967269E+02 -0.39254085420E+03 -0.20515441874E+04  0.21903258221E+04  0.65864270000E+03 0.  1.
    8880022    1    1    2    0    0 -0.28197967269E+02  0.39254085420E+03  0.45583623593E+03  0.62133869555E+03  0.15294330000E+03 0.  0.
<mgrwt>
<rscale>  0 0.66083775E+03</rscale>
<asrwt>0</asrwt>
<pdfrwt beam="1">  1        2 0.93535122E-01 0.76726374E+03</pdfrwt>
<pdfrwt beam="2">  1       -2 0.33902865E+00 0.76726374E+03</pdfrwt>
<totfact> 0.93360030E-01</totfact>
</mgrwt>
</event>
<event>
 4    5  0.2295023E-007  0.1454659E+04  0.7818608E-02  0.8942334E-01
         -2   -1    0    0    0  501 -0.00000000000E+00  0.00000000000E+00  0.21803808774E+04  0.21803808774E+04  0.25500000000E-02 0.  1.
          2   -1    0    0  501    0  0.00000000000E+00 -0.00000000000E+00 -0.15563705701E+04  0.15563705701E+04  0.25500000000E-02 0. -1.
    8880023    1    1    2    0    0  0.11737131562E+04  0.55192500940E+03  0.15577153513E+04  0.21313167552E+04  0.65864270000E+03 0.  0.
    8880022    1    1    2    0    0 -0.11737131562E+04 -0.55192500940E+03 -0.93370504404E+03  0.16054346923E+04  0.15294330000E+03 0.  0.
<mgrwt>
<rscale>  0 0.14159768E+04</rscale>
<asrwt>0</asrwt>
<pdfrwt beam="1">  1        2 0.23944163E+00 0.14546594E+04</pdfrwt>
<pdfrwt beam="2">  1       -2 0.33544321E+00 0.14546594E+04</pdfrwt>
<totfact> 0.21438345E-01</totfact>
</mgrwt>
</event>
<event>
 4    5  0.2295023E-007  0.8362404E+03  0.7818608E-02  0.9637310E-01
         -2   -1    0    0    0  501 -0.00000000000E+00  0.00000000000E+00  0.14136971019E+04  0.14136971019E+04  0.25500000000E-02 0.  1.
          2   -1    0    0  501    0  0.00000000000E+00 -0.00000000000E+00 -0.51985897417E+03  0.51985897418E+03  0.25500000000E-02 0. -1.
    8880023    1    1    2    0    0  0.28159900388E+03  0.43149725031E+03  0.10789690754E+04  0.13650906006E+04  0.65864270000E+03 0.  1.
    8880022    1    1    2    0    0 -0.28159900388E+03 -0.43149725031E+03 -0.18513094764E+03  0.56846547547E+03  0.15294330000E+03 0.  0.
<mgrwt>
<rscale>  0 0.74875196E+03</rscale>
<asrwt>0</asrwt>
<pdfrwt beam="1">  1        2 0.79978304E-01 0.83624045E+03</pdfrwt>
<pdfrwt beam="2">  1       -2 0.21749186E+00 0.83624045E+03</pdfrwt>
<totfact> 0.61083233E+00</totfact>
</mgrwt>
</event>
<event>
 4    5  0.2295023E-007  0.1546325E+04  0.7818608E-02  0.8877598E-01
          2   -1    0    0  501    0  0.00000000000E+00  0.00000000000E+00  0.34795117523E+04  0.34795117523E+04  0.25500000000E-02 0. -1.
         -2   -1    0    0    0  501 -0.00000000000E+00 -0.00000000000E+00 -0.10216013325E+04  0.10216013325E+04  0.25500000000E-02 0.  1.
    8880023    1    1    2    0    0 -0.72731174604E+03 -0.11951272776E+04 -0.13362313075E+03  0.15520879269E+04  0.65864270000E+03 0.  0.
    8880022    1    1    2    0    0  0.72731174604E+03  0.11951272776E+04  0.25915335505E+04  0.29490251579E+04  0.15294330000E+03 0.  0.
<mgrwt>
<rscale>  0 0.15103516E+04</rscale>
<asrwt>0</asrwt>
<pdfrwt beam="1">  1        2 0.53530949E+00 0.15463253E+04</pdfrwt>
<pdfrwt beam="2">  1       -2 0.15716944E+00 0.15463253E+04</pdfrwt>
<totfact> 0.21024032E-01</totfact>
</mgrwt>
</event>
<event>
 4    5  0.2295023E-007  0.6931737E+03  0.7818608E-02  0.1002679E+00
         -2   -1    0    0    0  501 -0.00000000000E+00  0.00000000000E+00  0.79404447574E+03  0.79404447574E+03  0.25500000000E-02 0.  1.
          2   -1    0    0  501    0  0.00000000000E+00 -0.00000000000E+00 -0.15721745917E+04  0.15721745917E+04  0.25500000000E-02 0. -1.
    8880023    1    1    2    0    0 -0.45726496222E+02  0.21116026777E+03  0.62802579436E+03  0.93536419420E+03  0.65864270000E+03 0.  1.
    8880022    1    1    2    0    0  0.45726496222E+02 -0.21116026777E+03 -0.14061559104E+04  0.14308548733E+04  0.15294330000E+03 0.  0.
<mgrwt>
<rscale>  0 0.54490905E+03</rscale>
<asrwt>0</asrwt>
<pdfrwt beam="1">  1        2 0.24187301E+00 0.69317370E+03</pdfrwt>
<pdfrwt beam="2">  1       -2 0.12216069E+00 0.69317370E+03</pdfrwt>
<totfact> 0.60805694E+00</totfact>
</mgrwt>
</event>
<event>
 4    5  0.2295023E-007  0.9895675E+03  0.7818608E-02  0.9395336E-01
          2   -1    0    0  501    0  0.00000000000E+00  0.00000000000E+00  0.11628037391E+04  0.11628037392E+04  0.25500000000E-02 0. -1.
         -2   -1    0    0    0  501 -0.00000000000E+00 -0.00000000000E+00 -0.68186969271E+03  0.68186969272E+03  0.25500000000E-02 0.  1.
    8880023    1    1    2    0    0  0.72068633040E+03 -0.16138412732E+03  0.85933266949E+02  0.99329167720E+03  0.65864270000E+03 0.  0.
    8880022    1    1    2    0    0 -0.72068633040E+03  0.16138412732E+03  0.39500077949E+03  0.85138175467E+03  0.15294330000E+03 0.  0.
<mgrwt>
<rscale>  0 0.92460540E+03</rscale>
<asrwt>0</asrwt>
<pdfrwt beam="1">  1        2 0.17889288E+00 0.98956750E+03</pdfrwt>
<pdfrwt beam="2">  1       -2 0.10490303E+00 0.98956750E+03</pdfrwt>
<totfact> 0.14612943E+01</totfact>
</mgrwt>
</event>
<event>
 4    5  0.2295023E-007  0.8028066E+03  0.7818608E-02  0.9704760E-01
          2   -1    0    0  501    0  0.00000000000E+00  0.00000000000E+00  0.21978727527E+04  0.21978727527E+04  0.25500000000E-02 0. -1.
         -2   -1    0    0    0  501 -0.00000000000E+00 -0.00000000000E+00 -0.47594545637E+03  0.47594545638E+03  0.25500000000E-02 0.  1.
    8880023    1    1    2    0    0  0.85179591141E+02  0.45103516587E+03 -0.81206434233E+02  0.80690332433E+03  0.65864270000E+03 0.  1.
    8880022    1    1    2    0    0 -0.85179591141E+02 -0.45103516587E+03  0.18031337306E+04  0.18669148848E+04  0.15294330000E+03 0.  0.
<mgrwt>
<rscale>  0 0.70734085E+03</rscale>
<asrwt>0</asrwt>
<pdfrwt beam="1">  1        2 0.33813426E+00 0.80280663E+03</pdfrwt>
<pdfrwt beam="2">  1       -2 0.73222379E-01 0.80280663E+03</pdfrwt>
<totfact> 0.89993323E+00</totfact>
</mgrwt>
</event>
<event>
 4    5  0.2295023E-007  0.2152738E+04  0.7818608E-02  0.8549039E-01
         -2   -1    0    0    0  501 -0.00000000000E+00  0.00000000000E+00  0.16751393601E+04  0.16751393601E+04  0.25500000000E-02 0.  1.
          2   -1    0    0  501    0  0.00000000000E+00 -0.00000000000E+00 -0.36918177341E+04  0.36918177341E+04  0.25500000000E-02 0. -1.
    8880023    1    1    2    0    0 -0.20494125528E+04  0.19512271492E+02 -0.24553805768E+04  0.32654519631E+04  0.65864270000E+03 0.  0.
    8880022    1    1    2    0    0  0.20494125528E+04 -0.19512271492E+02  0.43870220276E+03  0.21015051311E+04  0.15294330000E+03 0.  0.
<mgrwt>
<rscale>  0 0.21279293E+04</rscale>
<asrwt>0</asrwt>
<pdfrwt beam="1">  1        2 0.56797196E+00 0.21527384E+04</pdfrwt>
<pdfrwt beam="2">  1       -2 0.25771375E+00 0.21527384E+04</pdfrwt>
<totfact> 0.29792134E-02</totfact>
</mgrwt>
</event>
<event>
 4    5  0.2295023E-007  0.1275271E+04  0.7818608E-02  0.9087214E-01
          2   -1    0    0  501    0  0.00000000000E+00  0.00000000000E+00  0.15941484072E+04  0.15941484072E+04  0.25500000000E-02 0. -1.
         -2   -1    0    0    0  501 -0.00000000000E+00 -0.00000000000E+00 -0.11404217308E+04  0.11404217308E+04  0.25500000000E-02 0.  1.
    8880023    1    1    2    0    0  0.32416167331E+02 -0.10915380899E+04 -0.40382730946E+03  0.13376819172E+04  0.65864270000E+03 0.  0.
    8880022    1    1    2    0    0 -0.32416167331E+02  0.10915380899E+04  0.85755398591E+03  0.13968882208E+04  0.15294330000E+03 0.  0.
<mgrwt>
<rscale>  0 0.12297421E+04</rscale>
<asrwt>0</asrwt>
<pdfrwt beam="1">  1        2 0.24525360E+00 0.12752711E+04</pdfrwt>
<pdfrwt beam="2">  1       -2 0.17544950E+00 0.12752711E+04</pdfrwt>
<totfact> 0.21107640E+00</totfact>
</mgrwt>
</event>
<event>
 4    5  0.2295023E-007  0.1376914E+04  0.7818608E-02  0.9001832E-01
          2   -1    0    0  501    0  0.00000000000E+00  0.00000000000E+00  0.22611234921E+04  0.22611234921E+04  0.25500000000E-02 0. -1.
         -2   -1    0    0    0  501 -0.00000000000E+00 -0.00000000000E+00 -0.81408026766E+03  0.81408026766E+03  0.25500000000E-02 0.  1.
    8880023    1    1    2    0    0  0.11689942854E+04  0.30908549347E+03  0.12111465567E+04  0.18337850664E+04  0.65864270000E+03 0.  0.
    8880022    1    1    2    0    0 -0.11689942854E+04 -0.30908549347E+03  0.23589666771E+03  0.12414186934E+04  0.15294330000E+03 0.  0.
<mgrwt>
<rscale>  0 0.13355593E+04</rscale>
<asrwt>0</asrwt>
<pdfrwt beam="1">  1        2 0.34786515E+00 0.13769138E+04</pdfrwt>
<pdfrwt beam="2">  1       -2 0.12524312E+00 0.13769138E+04</pdfrwt>
<totfact> 0.21834975E+00</totfact>
</mgrwt>
</event>
<event>
 4    5  0.2295023E-007  0.1022972E+04  0.7818608E-02  0.9352102E-01
          2   -1    0    0  501    0  0.00000000000E+00  0.00000000000E+00  0.29000711547E+04  0.29000711547E+04  0.25500000000E-02 0. -1.
         -2   -1    0    0    0  501 -0.00000000000E+00 -0.00000000000E+00 -0.39689473121E+03  0.39689473122E+03  0.25500000000E-02 0.  1.
    8880023    1    1    2    0    0 -0.34248412242E+03  0.70382240052E+03  0.49544756328E+03  0.11366353152E+04  0.65864270000E+03 0.  1.
    8880022    1    1    2    0    0  0.34248412242E+03 -0.70382240052E+03  0.20077288602E+04  0.21603305707E+04  0.15294330000E+03 0.  0.
<mgrwt>
<rscale>  0 0.96124578E+03</rscale>
<asrwt>0</asrwt>
<pdfrwt beam="1">  1        2 0.44616477E+00 0.10229719E+04</pdfrwt>
<pdfrwt beam="2">  1       -2 0.61060730E-01 0.10229719E+04</pdfrwt>
<totfact> 0.50981909E+00</totfact>
</mgrwt>
</event>
<event>
 4    5  0.2295023E-007  0.2076062E+04  0.7818608E-02  0.8583479E-01
          2   -1    0    0  501    0  0.00000000000E+00  0.00000000000E+00  0.33184946558E+04  0.33184946558E+04  0.25500000000E-02 0. -1.
         -2   -1    0    0    0  501 -0.00000000000E+00 -0.00000000000E+00 -0.13538467346E+04  0.13538467346E+04  0.25500000000E-02 0.  1.
    8880023    1    1    2    0    0 -0.48928697191E+02  0.19682044838E+04  0.31622931310E+03  0.21000081172E+04  0.65864270000E+03 0.  0.
    8880022    1    1    2    0    0  0.48928697191E+02 -0.19682044838E+04  0.16484186081E+04  0.25723332731E+04  0.15294330000E+03 0.  0.
<mgrwt>
<rscale>  0 0.20502553E+04</rscale>
<asrwt>0</asrwt>
<pdfrwt beam="1">  1        2 0.51053764E+00 0.20760619E+04</pdfrwt>
<pdfrwt beam="2">  1       -2 0.20828411E+00 0.20760619E+04</pdfrwt>
<totfact> 0.11267757E-01</totfact>
</mgrwt>
</event>
<event>
 4    5  0.2295023E-007  0.1006863E+04  0.7818608E-02  0.9372633E-01
          2   -1    0    0  501    0  0.00000000000E+00  0.00000000000E+00  0.13531480220E+04  0.13531480220E+04  0.25500000000E-02 0. -1.
         -2   -1    0    0    0  501 -0.00000000000E+00 -0.00000000000E+00 -0.12543260126E+04  0.12543260127E+04  0.25500000000E-02 0.  1.
    8880023    1    1    2    0    0 -0.62879803364E+03 -0.42962276178E+03  0.99908438812E+03  0.14184295913E+04  0.65864270000E+03 0. -1.
    8880022    1    1    2    0    0  0.62879803364E+03  0.42962276178E+03 -0.90026237881E+03  0.11890444433E+04  0.15294330000E+03 0.  0.
<mgrwt>
<rscale>  0 0.94362472E+03</rscale>
<asrwt>0</asrwt>
<pdfrwt beam="1">  1        2 0.20817662E+00 0.10068629E+04</pdfrwt>
<pdfrwt beam="2">  1       -2 0.19297323E+00 0.10068629E+04</pdfrwt>
<totfact> 0.22604167E+00</totfact>
</mgrwt>
</event>
<event>
 4    5  0.2295023E-007  0.7283017E+03  0.7818608E-02  0.9895436E-01
          2   -1    0    0  501    0  0.00000000000E+00  0.00000000000E+00  0.17076684787E+04  0.17076684787E+04  0.25500000000E-02 0. -1.
         -2   -1    0    0    0  501 -0.00000000000E+00 -0.00000000000E+00 -0.84462857755E+03  0.84462857755E+03  0.25500000000E-02 0.  1.
    8880023    1    1    2    0    0  0.30649939510E+03  0.51684414499E+02 -0.66454662961E+03  0.98592372276E+03  0.65864270000E+03 0.  1.
    8880022    1    1    2    0    0 -0.30649939510E+03 -0.51684414499E+02  0.15275865308E+04  0.15663733335E+04  0.15294330000E+03 0.  0.
<mgrwt>
<rscale>  0 0.60483000E+03</rscale>
<asrwt>0</asrwt>
<pdfrwt beam="1">  1        2 0.26271822E+00 0.72830170E+03</pdfrwt>
<pdfrwt beam="2">  1       -2 0.12994286E+00 0.72830170E+03</pdfrwt>
<totfact> 0.43632850E+00</totfact>
</mgrwt>
</event>
<event>
 4    5  0.2295023E-007  0.7058498E+03  0.7818608E-02  0.9973748E-01
         -2   -1    0    0    0  501 -0.00000000000E+00  0.00000000000E+00  0.17516704236E+03  0.17516704238E+03  0.25500000000E-02 0.  1.
          2   -1    0    0  501    0  0.00000000000E+00 -0.00000000000E+00 -0.14532874880E+04  0.14532874880E+04  0.25500000000E-02 0. -1.
    8880023    1    1    2    0    0 -0.13968305111E+03 -0.21190176730E+03 -0.80960224038E+03  0.10740948318E+04  0.65864270000E+03 0.  0.
    8880022    1    1    2    0    0  0.13968305111E+03  0.21190176730E+03 -0.46851820521E+03  0.55435969855E+03  0.15294330000E+03 0.  1.
<mgrwt>
<rscale>  0 0.56816483E+03</rscale>
<asrwt>0</asrwt>
<pdfrwt beam="1">  1        2 0.22358268E+00 0.70584979E+03</pdfrwt>
<pdfrwt beam="2">  1       -2 0.26948777E-01 0.70584979E+03</pdfrwt>
<totfact> 0.17176811E+02</totfact>
</mgrwt>
</event>
<event>
 4    5  0.2295023E-007  0.7059623E+03  0.7818608E-02  0.9973312E-01
         -2   -1    0    0    0  501 -0.00000000000E+00  0.00000000000E+00  0.31410126882E+03  0.31410126884E+03  0.25500000000E-02 0.  1.
          2   -1    0    0  501    0  0.00000000000E+00 -0.00000000000E+00 -0.94179390299E+03  0.94179390299E+03  0.25500000000E-02 0. -1.
    8880023    1    1    2    0    0  0.16790772627E+03 -0.19073414949E+03 -0.19695099215E+03  0.73292047311E+03  0.65864270000E+03 0.  1.
    8880022    1    1    2    0    0 -0.16790772627E+03  0.19073414949E+03 -0.43074164201E+03  0.52297469872E+03  0.15294330000E+03 0.  0.
<mgrwt>
<rscale>  0 0.56836110E+03</rscale>
<asrwt>0</asrwt>
<pdfrwt beam="1">  1        2 0.14489137E+00 0.70596227E+03</pdfrwt>
<pdfrwt beam="2">  1       -2 0.48323272E-01 0.70596227E+03</pdfrwt>
<totfact> 0.11328311E+02</totfact>
</mgrwt>
</event>
<event>
 4    5  0.2295023E-007  0.1519471E+04  0.7818608E-02  0.8896007E-01
         -2   -1    0    0    0  501 -0.00000000000E+00  0.00000000000E+00  0.10570534244E+04  0.10570534244E+04  0.25500000000E-02 0.  1.
          2   -1    0    0  501    0  0.00000000000E+00 -0.00000000000E+00 -0.20681342639E+04  0.20681342639E+04  0.25500000000E-02 0. -1.
    8880023    1    1    2    0    0  0.40088527899E+03 -0.13093029676E+04 -0.21690124687E+03  0.15348744656E+04  0.65864270000E+03 0.  0.
    8880022    1    1    2    0    0 -0.40088527899E+03  0.13093029676E+04 -0.79417959256E+03  0.15903132227E+04  0.15294330000E+03 0.  0.
<mgrwt>
<rscale>  0 0.14827473E+04</rscale>
<asrwt>0</asrwt>
<pdfrwt beam="1">  1        2 0.31817450E+00 0.15194714E+04</pdfrwt>
<pdfrwt beam="2">  1       -2 0.16262360E+00 0.15194714E+04</pdfrwt>
<totfact> 0.13880764E+00</totfact>
</mgrwt>
</event>
<event>
 4    5  0.2295023E-007  0.9819830E+03  0.7818608E-02  0.9405518E-01
         -2   -1    0    0    0  501 -0.00000000000E+00  0.00000000000E+00  0.14794604563E+04  0.14794604563E+04  0.25500000000E-02 0.  1.
          2   -1    0    0  501    0  0.00000000000E+00 -0.00000000000E+00 -0.15819500052E+04  0.15819500052E+04  0.25500000000E-02 0. -1.
    8880023    1    1    2    0    0 -0.72288155570E+03  0.89009202758E+02  0.12065200500E+04  0.15556288822E+04  0.65864270000E+03 0.  0.
    8880022    1    1    2    0    0  0.72288155570E+03 -0.89009202758E+02 -0.13090095988E+04  0.15057815793E+04  0.15294330000E+03 0.  0.
<mgrwt>
<rscale>  0 0.91622925E+03</rscale>
<asrwt>0</asrwt>
<pdfrwt beam="1">  1        2 0.24337692E+00 0.98198299E+03</pdfrwt>
<pdfrwt beam="2">  1       -2 0.22760930E+00 0.98198299E+03</pdfrwt>
<totfact> 0.10092025E+00</totfact>
</mgrwt>
</event>
<event>
 4    5  0.2295023E-007  0.1362521E+04  0.7818608E-02  0.9013366E-01
         -2   -1    0    0    0  501 -0.00000000000E+00  0.00000000000E+00  0.68364678778E+03  0.68364678778E+03  0.25500000000E-02 0.  1.
          2   -1    0    0  501    0  0.00000000000E+00 -0.00000000000E+00 -0.32032106589E+04  0.32032106589E+04  0.25500000000E-02 0. -1.
    8880023    1    1    2    0    0 -0.90993389993E+03  0.77115005357E+03 -0.22869242485E+04  0.26620452348E+04  0.65864270000E+03 0.  0.
    8880022    1    1    2    0    0  0.90993389993E+03 -0.77115005357E+03 -0.23263962260E+03  0.12248122119E+04  0.15294330000E+03 0.  0.
<mgrwt>
<rscale>  0 0.13206264E+04</rscale>
<asrwt>0</asrwt>
<pdfrwt beam="1">  1        2 0.49280163E+00 0.13625206E+04</pdfrwt>
<pdfrwt beam="2">  1       -2 0.10517643E+00 0.13625206E+04</pdfrwt>
<totfact> 0.91910936E-01</totfact>
</mgrwt>
</event>
<event>
 4    5  0.2295023E-007  0.7593797E+03  0.7818608E-02  0.9806716E-01
         -2   -1    0    0    0  501 -0.00000000000E+00  0.00000000000E+00  0.11868817768E+04  0.11868817768E+04  0.25500000000E-02 0.  1.
          2   -1    0    0  501    0  0.00000000000E+00 -0.00000000000E+00 -0.13290657508E+04  0.13290657508E+04  0.25500000000E-02 0. -1.
    8880023    1    1    2    0    0 -0.17085381852E+03 -0.33712946971E+03  0.10272593361E+04  0.12774659512E+04  0.65864270000E+03 0.  1.
    8880022    1    1    2    0    0  0.17085381852E+03  0.33712946971E+03 -0.11694433101E+04  0.12384815764E+04  0.15294330000E+03 0.  0.
<mgrwt>
<rscale>  0 0.65003364E+03</rscale>
<asrwt>0</asrwt>
<pdfrwt beam="1">  1        2 0.20447166E+00 0.75937969E+03</pdfrwt>
<pdfrwt beam="2">  1       -2 0.18259720E+00 0.75937969E+03</pdfrwt>
<totfact> 0.28363672E+00</totfact>
</mgrwt>
</event>
<event>
 4    5  0.2295023E-007  0.7300453E+03  0.7818608E-02  0.9889955E-01
          2   -1    0    0  501    0  0.00000000000E+00  0.00000000000E+00  0.62148854439E+03  0.62148854439E+03  0.25500000000E-02 0. -1.
         -2   -1    0    0    0  501 -0.00000000000E+00 -0.00000000000E+00 -0.78768026218E+03  0.78768026218E+03  0.25500000000E-02 0.  1.
    8880023    1    1    2    0    0 -0.26874827819E+03  0.16410457893E+03 -0.53163676250E+03  0.90310785810E+03  0.65864270000E+03 0.  1.
    8880022    1    1    2    0    0  0.26874827819E+03 -0.16410457893E+03  0.36544504470E+03  0.50606094848E+03  0.15294330000E+03 0.  0.
<mgrwt>
<rscale>  0 0.60750585E+03</rscale>
<asrwt>0</asrwt>
<pdfrwt beam="1">  1        2 0.95613622E-01 0.73004531E+03</pdfrwt>
<pdfrwt beam="2">  1       -2 0.12118158E+00 0.73004531E+03</pdfrwt>
<totfact> 0.24989452E+01</totfact>
</mgrwt>
</event>
<event>
 4    5  0.2295023E-007  0.9766054E+03  0.7818608E-02  0.9412826E-01
          2   -1    0    0  501    0  0.00000000000E+00  0.00000000000E+00  0.24183451236E+04  0.24183451236E+04  0.25500000000E-02 0. -1.
         -2   -1    0    0    0  501 -0.00000000000E+00 -0.00000000000E+00 -0.66238860857E+03  0.66238860857E+03  0.25500000000E-02 0.  1.
    8880023    1    1    2    0    0  0.34629538873E+03 -0.63247720117E+03 -0.19437058149E+03  0.99576002906E+03  0.65864270000E+03 0.  0.
    8880022    1    1    2    0    0 -0.34629538873E+03  0.63247720117E+03  0.19503270966E+04  0.20849737032E+04  0.15294330000E+03 0.  0.
<mgrwt>
<rscale>  0 0.91027635E+03</rscale>
<asrwt>0</asrwt>
<pdfrwt beam="1">  1        2 0.37205309E+00 0.97660540E+03</pdfrwt>
<pdfrwt beam="2">  1       -2 0.10190594E+00 0.97660540E+03</pdfrwt>
<totfact> 0.30955222E+00</totfact>
</mgrwt>
</event>
<event>
 4    5  0.2295023E-007  0.9509742E+03  0.7818608E-02  0.9448714E-01
         -2   -1    0    0    0  501 -0.00000000000E+00  0.00000000000E+00  0.10820488822E+04  0.10820488822E+04  0.25500000000E-02 0.  1.
          2   -1    0    0  501    0  0.00000000000E+00 -0.00000000000E+00 -0.63508630122E+03  0.63508630123E+03  0.25500000000E-02 0. -1.
    8880023    1    1    2    0    0  0.47700499913E+03  0.49295830528E+03  0.19670995909E+03  0.97110590267E+03  0.65864270000E+03 0.  0.
    8880022    1    1    2    0    0 -0.47700499913E+03 -0.49295830528E+03  0.25025262186E+03  0.74602928073E+03  0.15294330000E+03 0. -1.
<mgrwt>
<rscale>  0 0.88172891E+03</rscale>
<asrwt>0</asrwt>
<pdfrwt beam="1">  1        2 0.97705586E-01 0.95097417E+03</pdfrwt>
<pdfrwt beam="2">  1       -2 0.16646906E+00 0.95097417E+03</pdfrwt>
<totfact> 0.10422010E+01</totfact>
</mgrwt>
</event>
<event>
 4    5  0.2295023E-007  0.7436808E+03  0.7818608E-02  0.9849352E-01
         -2   -1    0    0    0  501 -0.00000000000E+00  0.00000000000E+00  0.65280612366E+03  0.65280612367E+03  0.25500000000E-02 0.  1.
          2   -1    0    0  501    0  0.00000000000E+00 -0.00000000000E+00 -0.73486749388E+03  0.73486749388E+03  0.25500000000E-02 0. -1.
    8880023    1    1    2    0    0 -0.28326343948E+03  0.19751658450E+03  0.34307927818E+03  0.81900218234E+03  0.65864270000E+03 0.  1.
    8880022    1    1    2    0    0  0.28326343948E+03 -0.19751658450E+03 -0.42514064839E+03  0.56867143521E+03  0.15294330000E+03 0.  0.
<mgrwt>
<rscale>  0 0.62779971E+03</rscale>
<asrwt>0</asrwt>
<pdfrwt beam="1">  1        2 0.11305654E+00 0.74368083E+03</pdfrwt>
<pdfrwt beam="2">  1       -2 0.10043171E+00 0.74368083E+03</pdfrwt>
<totfact> 0.31924872E+01</totfact>
</mgrwt>
</event>
<event>
 4    5  0.2295023E-007  0.8449392E+03  0.7818608E-02  0.9620936E-01
         -2   -1    0    0    0  501 -0.00000000000E+00  0.00000000000E+00  0.87120324132E+03  0.87120324133E+03  0.25500000000E-02 0.  1.
          2   -1    0    0  501    0  0.00000000000E+00 -0.00000000000E+00 -0.25321530184E+04  0.25321530184E+04  0.25500000000E-02 0. -1.
    8880023    1    1    2    0    0  0.45496845898E+03  0.27039913160E+03  0.62562818210E+03  0.10513480953E+04  0.65864270000E+03 0.  1.
    8880022    1    1    2    0    0 -0.45496845898E+03 -0.27039913160E+03 -0.22865779592E+04  0.23520081644E+04  0.15294330000E+03 0.  0.
<mgrwt>
<rscale>  0 0.75925834E+03</rscale>
<asrwt>0</asrwt>
<pdfrwt beam="1">  1        2 0.38956200E+00 0.84493917E+03</pdfrwt>
<pdfrwt beam="2">  1       -2 0.13403127E+00 0.84493917E+03</pdfrwt>
<totfact> 0.13844663E+00</totfact>
</mgrwt>
</event>
<event>
 4    5  0.2295023E-007  0.9236028E+03  0.7818608E-02  0.9489157E-01
         -2   -1    0    0    0  501 -0.00000000000E+00  0.00000000000E+00  0.85800669203E+03  0.85800669204E+03  0.25500000000E-02 0.  1.
          2   -1    0    0  501    0  0.00000000000E+00 -0.00000000000E+00 -0.11800445399E+04  0.11800445399E+04  0.25500000000E-02 0. -1.
    8880023    1    1    2    0    0  0.16870587618E+03 -0.62511616044E+03  0.44286934139E+03  0.10242926079E+04  0.65864270000E+03 0.  1.
    8880022    1    1    2    0    0 -0.16870587618E+03  0.62511616044E+03 -0.76490718921E+03  0.10137586240E+04  0.15294330000E+03 0.  1.
<mgrwt>
<rscale>  0 0.85087984E+03</rscale>
<asrwt>0</asrwt>
<pdfrwt beam="1">  1        2 0.18154531E+00 0.92360278E+03</pdfrwt>
<pdfrwt beam="2">  1       -2 0.13200103E+00 0.92360278E+03</pdfrwt>
<totfact> 0.81311966E+00</totfact>
</mgrwt>
</event>
<event>
 4    5  0.2295023E-007  0.1146125E+04  0.7818608E-02  0.9211359E-01
          2   -1    0    0  501    0  0.00000000000E+00  0.00000000000E+00  0.17386008595E+04  0.17386008595E+04  0.25500000000E-02 0. -1.
         -2   -1    0    0    0  501 -0.00000000000E+00 -0.00000000000E+00 -0.84265594242E+03  0.84265594243E+03  0.25500000000E-02 0.  1.
    8880023    1    1    2    0    0  0.14844615541E+03  0.92615138333E+03  0.11225199100E+04  0.16042611385E+04  0.65864270000E+03 0. -1.
    8880022    1    1    2    0    0 -0.14844615541E+03 -0.92615138333E+03 -0.22657499295E+03  0.97699566342E+03  0.15294330000E+03 0.  0.
<mgrwt>
<rscale>  0 0.10936946E+04</rscale>
<asrwt>0</asrwt>
<pdfrwt beam="1">  1        2 0.26747705E+00 0.11461251E+04</pdfrwt>
<pdfrwt beam="2">  1       -2 0.12963938E+00 0.11461251E+04</pdfrwt>
<totfact> 0.39984321E+00</totfact>
</mgrwt>
</event>
<event>
 4    5  0.2295023E-007  0.1060843E+04  0.7818608E-02  0.9305959E-01
          2   -1    0    0  501    0  0.00000000000E+00  0.00000000000E+00  0.19714313785E+04  0.19714313785E+04  0.25500000000E-02 0. -1.
         -2   -1    0    0    0  501 -0.00000000000E+00 -0.00000000000E+00 -0.64658962265E+03  0.64658962266E+03  0.25500000000E-02 0.  1.
    8880023    1    1    2    0    0 -0.78610905025E+03  0.27131123876E+03  0.17405155551E+02  0.10609855668E+04  0.65864270000E+03 0.  0.
    8880022    1    1    2    0    0  0.78610905025E+03 -0.27131123876E+03  0.13074366003E+04  0.15570354344E+04  0.15294330000E+03 0.  0.
<mgrwt>
<rscale>  0 0.10023610E+04</rscale>
<asrwt>0</asrwt>
<pdfrwt beam="1">  1        2 0.30329713E+00 0.10608428E+04</pdfrwt>
<pdfrwt beam="2">  1       -2 0.99475328E-01 0.10608428E+04</pdfrwt>
<totfact> 0.57565701E+00</totfact>
</mgrwt>
</event>
<event>
 4    5  0.2295023E-007  0.1344105E+04  0.7818608E-02  0.9028379E-01
         -2   -1    0    0    0  501 -0.00000000000E+00  0.00000000000E+00  0.78412445837E+03  0.78412445837E+03  0.25500000000E-02 0.  1.
          2   -1    0    0  501    0  0.00000000000E+00 -0.00000000000E+00 -0.24756711773E+04  0.24756711773E+04  0.25500000000E-02 0. -1.
    8880023    1    1    2    0    0  0.10629395853E+04 -0.49291634762E+03 -0.20311119492E+03  0.13593643557E+04  0.65864270000E+03 0.  1.
    8880022    1    1    2    0    0 -0.10629395853E+04  0.49291634762E+03 -0.14884355240E+04  0.19004312800E+04  0.15294330000E+03 0.  0.
<mgrwt>
<rscale>  0 0.13014971E+04</rscale>
<asrwt>0</asrwt>
<pdfrwt beam="1">  1        2 0.38087249E+00 0.13441046E+04</pdfrwt>
<pdfrwt beam="2">  1       -2 0.12063453E+00 0.13441046E+04</pdfrwt>
<totfact> 0.18177593E+00</totfact>
</mgrwt>
</event>
<event>
 4    5  0.2295023E-007  0.1248453E+04  0.7818608E-02  0.9111403E-01
          2   -1    0    0  501    0  0.00000000000E+00  0.00000000000E+00  0.16231698454E+04  0.16231698454E+04  0.25500000000E-02 0. -1.
         -2   -1    0    0    0  501 -0.00000000000E+00 -0.00000000000E+00 -0.11873194741E+04  0.11873194741E+04  0.25500000000E-02 0.  1.
    8880023    1    1    2    0    0 -0.34617740913E+03 -0.10024901913E+04 -0.54088269622E+03  0.13605843155E+04  0.65864270000E+03 0.  0.
    8880022    1    1    2    0    0  0.34617740913E+03  0.10024901913E+04  0.97673306750E+03  0.14499050039E+04  0.15294330000E+03 0.  0.
<mgrwt>
<rscale>  0 0.12016617E+04</rscale>
<asrwt>0</asrwt>
<pdfrwt beam="1">  1        2 0.24971844E+00 0.12484533E+04</pdfrwt>
<pdfrwt beam="2">  1       -2 0.18266454E+00 0.12484533E+04</pdfrwt>
<totfact> 0.18162129E+00</totfact>
</mgrwt>
</event>
<event>
 4    5  0.2295023E-007  0.6682464E+03  0.7818608E-02  0.1016952E+00
         -2   -1    0    0    0  501 -0.00000000000E+00  0.00000000000E+00  0.19253188247E+03  0.19253188249E+03  0.25500000000E-02 0.  1.
          2   -1    0    0  501    0  0.00000000000E+00 -0.00000000000E+00 -0.41728024464E+04  0.41728024464E+04  0.25500000000E-02 0. -1.
    8880023    1    1    2    0    0  0.82042302799E+02  0.77537531087E+02 -0.39752000506E+03  0.77754444816E+03  0.65864270000E+03 0.  1.
    8880022    1    1    2    0    0 -0.82042302799E+02 -0.77537531087E+02 -0.35827505589E+04  0.35877898807E+04  0.15294330000E+03 0.  0.
<mgrwt>
<rscale>  0 0.48802600E+03</rscale>
<asrwt>0</asrwt>
<pdfrwt beam="1">  1        2 0.64196954E+00 0.66824637E+03</pdfrwt>
<pdfrwt beam="2">  1       -2 0.29620293E-01 0.66824637E+03</pdfrwt>
<totfact> 0.29336582E+00</totfact>
</mgrwt>
</event>
<event>
 4    5  0.2295023E-007  0.1275270E+04  0.7818608E-02  0.9087215E-01
          2   -1    0    0  501    0  0.00000000000E+00  0.00000000000E+00  0.15423087969E+04  0.15423087969E+04  0.25500000000E-02 0. -1.
         -2   -1    0    0    0  501 -0.00000000000E+00 -0.00000000000E+00 -0.95866052294E+03  0.95866052294E+03  0.25500000000E-02 0.  1.
    8880023    1    1    2    0    0 -0.48027470304E+03 -0.98073446804E+03  0.50761604654E+02  0.12762800766E+04  0.65864270000E+03 0.  0.
    8880022    1    1    2    0    0  0.48027470304E+03  0.98073446804E+03  0.53288666933E+03  0.12246892433E+04  0.15294330000E+03 0.  0.
<mgrwt>
<rscale>  0 0.12297411E+04</rscale>
<asrwt>0</asrwt>
<pdfrwt beam="1">  1        2 0.23727828E+00 0.12752702E+04</pdfrwt>
<pdfrwt beam="2">  1       -2 0.14748624E+00 0.12752702E+04</pdfrwt>
<totfact> 0.36342918E+00</totfact>
</mgrwt>
</event>
<event>
 4    5  0.2327961E-007  0.1128881E+04  0.7818608E-02  0.9229562E-01
          2   -1    0    0  501    0  0.00000000000E+00  0.00000000000E+00  0.32833471408E+04  0.32833471408E+04  0.25500000000E-02 0. -1.
         -2   -1    0    0    0  501 -0.00000000000E+00 -0.00000000000E+00 -0.98841338712E+03  0.98841338713E+03  0.25500000000E-02 0.  1.
    8880023    1    1    2    0    0  0.91628479156E+03 -0.31359352868E+02 -0.56656968520E+03  0.12630806161E+04  0.65864270000E+03 0.  0.
    8880022    1    1    2    0    0 -0.91628479156E+03  0.31359352868E+02  0.28615034388E+04  0.30086799118E+04  0.15294330000E+03 0.  0.
<mgrwt>
<rscale>  0 0.10753436E+04</rscale>
<asrwt>0</asrwt>
<pdfrwt beam="1">  1        2 0.50513033E+00 0.11288806E+04</pdfrwt>
<pdfrwt beam="2">  1       -2 0.15206360E+00 0.11288806E+04</pdfrwt>
<totfact> 0.33057809E-01</totfact>
</mgrwt>
</event>
<event>
 4    5  0.2295023E-007  0.8040151E+03  0.7818608E-02  0.9702181E-01
         -2   -1    0    0    0  501 -0.00000000000E+00  0.00000000000E+00  0.14429781967E+04  0.14429781967E+04  0.25500000000E-02 0.  1.
          2   -1    0    0  501    0  0.00000000000E+00 -0.00000000000E+00 -0.15735388504E+04  0.15735388504E+04  0.25500000000E-02 0. -1.
    8880023    1    1    2    0    0 -0.34732864113E+03 -0.30330336422E+03  0.12872880473E+04  0.15177453142E+04  0.65864270000E+03 0.  1.
    8880022    1    1    2    0    0  0.34732864113E+03  0.30330336422E+03 -0.14178487010E+04  0.14987717330E+04  0.15294330000E+03 0.  0.
<mgrwt>
<rscale>  0 0.70887094E+03</rscale>
<asrwt>0</asrwt>
<pdfrwt beam="1">  1        2 0.24208290E+00 0.80401513E+03</pdfrwt>
<pdfrwt beam="2">  1       -2 0.22199665E+00 0.80401513E+03</pdfrwt>
<totfact> 0.11381808E+00</totfact>
</mgrwt>
</event>
<event>
 4    5  0.2295023E-007  0.8378044E+03  0.7818608E-02  0.9634334E-01
          2   -1    0    0  501    0  0.00000000000E+00  0.00000000000E+00  0.67927530218E+03  0.67927530218E+03  0.25500000000E-02 0. -1.
         -2   -1    0    0    0  501 -0.00000000000E+00 -0.00000000000E+00 -0.11623230135E+04  0.11623230135E+04  0.25500000000E-02 0.  1.
    8880023    1    1    2    0    0 -0.49680179188E+03  0.14592460143E+03 -0.84630886440E+03  0.11908630945E+04  0.65864270000E+03 0.  1.
    8880022    1    1    2    0    0  0.49680179188E+03 -0.14592460143E+03  0.36326115306E+03  0.65073522116E+03  0.15294330000E+03 0.  0.
<mgrwt>
<rscale>  0 0.75064805E+03</rscale>
<asrwt>0</asrwt>
<pdfrwt beam="1">  1        2 0.10450389E+00 0.83780440E+03</pdfrwt>
<pdfrwt beam="2">  1       -2 0.17881892E+00 0.83780440E+03</pdfrwt>
<totfact> 0.79273927E+00</totfact>
</mgrwt>
</event>
<event>
 4    5  0.2295023E-007  0.9637220E+03  0.7818608E-02  0.9430640E-01
         -2   -1    0    0    0  501 -0.00000000000E+00  0.00000000000E+00  0.47544580339E+03  0.47544580340E+03  0.25500000000E-02 0.  1.
          2   -1    0    0  501    0  0.00000000000E+00 -0.00000000000E+00 -0.21004101628E+04  0.21004101628E+04  0.25500000000E-02 0. -1.
    8880023    1    1    2    0    0 -0.68984993516E+03  0.13804669421E+03 -0.20717333552E+03  0.98573871793E+03  0.65864270000E+03 0.  1.
    8880022    1    1    2    0    0  0.68984993516E+03 -0.13804669421E+03 -0.14177910239E+04  0.15901172483E+04  0.15294330000E+03 0.  0.
<mgrwt>
<rscale>  0 0.89596452E+03</rscale>
<asrwt>0</asrwt>
<pdfrwt beam="1">  1        2 0.32314002E+00 0.96372197E+03</pdfrwt>
<pdfrwt beam="2">  1       -2 0.73145509E-01 0.96372197E+03</pdfrwt>
<totfact> 0.99949855E+00</totfact>
</mgrwt>
</event>
<event>
 4    5  0.2295023E-007  0.7007641E+03  0.7818608E-02  0.9994046E-01
          2   -1    0    0  501    0  0.00000000000E+00  0.00000000000E+00  0.52102802622E+03  0.52102802622E+03  0.25500000000E-02 0. -1.
         -2   -1    0    0    0  501 -0.00000000000E+00 -0.00000000000E+00 -0.72142473043E+03  0.72142473043E+03  0.25500000000E-02 0.  1.
    8880023    1    1    2    0    0 -0.11699876741E+03  0.20873773516E+03 -0.47566145316E+03  0.84694992647E+03  0.65864270000E+03 0.  1.
    8880022    1    1    2    0    0  0.11699876741E+03 -0.20873773516E+03  0.27526474895E+03  0.39550283019E+03  0.15294330000E+03 0.  0.
<mgrwt>
<rscale>  0 0.55912081E+03</rscale>
<asrwt>0</asrwt>
<pdfrwt beam="1">  1        2 0.80158158E-01 0.70076413E+03</pdfrwt>
<pdfrwt beam="2">  1       -2 0.11098842E+00 0.70076413E+03</pdfrwt>
<totfact> 0.38327664E+01</totfact>
</mgrwt>
</event>
<event>
 4    5  0.5401560E-007  0.1014943E+04  0.7818608E-02  0.9362263E-01
          2   -1    0    0  501    0  0.00000000000E+00  0.00000000000E+00  0.21531003820E+04  0.21531003820E+04  0.25500000000E-02 0. -1.
         -2   -1    0    0    0  501 -0.00000000000E+00 -0.00000000000E+00 -0.17321009025E+04  0.17321009025E+04  0.25500000000E-02 0.  1.
    8880023    1    1    2    0    0  0.45090997158E+03  0.62688129742E+03 -0.14988916460E+04  0.18101895857E+04  0.65864270000E+03 0.  0.
    8880022    1    1    2    0    0 -0.45090997158E+03 -0.62688129742E+03  0.19198911255E+04  0.20750116988E+04  0.15294330000E+03 0.  0.
<mgrwt>
<rscale>  0 0.95247444E+03</rscale>
<asrwt>0</asrwt>
<pdfrwt beam="1">  1        2 0.33124621E+00 0.10149434E+04</pdfrwt>
<pdfrwt beam="2">  1       -2 0.26647706E+00 0.10149434E+04</pdfrwt>
<totfact> 0.28082136E-01</totfact>
</mgrwt>
</event>
<event>
 4    5  0.2295023E-007  0.1033321E+04  0.7818608E-02  0.9339206E-01
         -2   -1    0    0    0  501 -0.00000000000E+00  0.00000000000E+00  0.30319837033E+03  0.30319837034E+03  0.25500000000E-02 0.  1.
          2   -1    0    0  501    0  0.00000000000E+00 -0.00000000000E+00 -0.36031058078E+04  0.36031058078E+04  0.25500000000E-02 0. -1.
    8880023    1    1    2    0    0 -0.55854816597E+02 -0.79424266142E+03 -0.89031616754E+03  0.13639700327E+04  0.65864270000E+03 0.  0.
    8880022    1    1    2    0    0  0.55854816597E+02  0.79424266142E+03 -0.24095912699E+04  0.25423341454E+04  0.15294330000E+03 0.  0.
<mgrwt>
<rscale>  0 0.97252207E+03</rscale>
<asrwt>0</asrwt>
<pdfrwt beam="1">  1        2 0.55432394E+00 0.10333206E+04</pdfrwt>
<pdfrwt beam="2">  1       -2 0.46645906E-01 0.10333206E+04</pdfrwt>
<totfact> 0.30973495E+00</totfact>
</mgrwt>
</event>
<event>
 4    5  0.2295023E-007  0.1364990E+04  0.7818608E-02  0.9011376E-01
         -2   -1    0    0    0  501 -0.00000000000E+00  0.00000000000E+00  0.62634228950E+03  0.62634228950E+03  0.25500000000E-02 0.  1.
          2   -1    0    0  501    0  0.00000000000E+00 -0.00000000000E+00 -0.40390437734E+04  0.40390437734E+04  0.25500000000E-02 0. -1.
    8880023    1    1    2    0    0 -0.17705974435E+03  0.11823857377E+04 -0.40289351213E+03  0.14232074951E+04  0.65864270000E+03 0.  0.
    8880022    1    1    2    0    0  0.17705974435E+03 -0.11823857377E+04 -0.30098079718E+04  0.32421785678E+04  0.15294330000E+03 0.  0.
<mgrwt>
<rscale>  0 0.13231890E+04</rscale>
<asrwt>0</asrwt>
<pdfrwt beam="1">  1        2 0.62139133E+00 0.13649895E+04</pdfrwt>
<pdfrwt beam="2">  1       -2 0.96360355E-01 0.13649895E+04</pdfrwt>
<totfact> 0.28367945E-01</totfact>
</mgrwt>
</event>
<event>
 4    5  0.2295023E-007  0.7254685E+03  0.7818608E-02  0.9904499E-01
         -2   -1    0    0    0  501 -0.00000000000E+00  0.00000000000E+00  0.44152717639E+03  0.44152717639E+03  0.25500000000E-02 0.  1.
          2   -1    0    0  501    0  0.00000000000E+00 -0.00000000000E+00 -0.11024947800E+04  0.11024947800E+04  0.25500000000E-02 0. -1.
    8880023    1    1    2    0    0 -0.22783446866E+03  0.20145914019E+03  0.78751825478E+02  0.72973035195E+03  0.65864270000E+03 0.  1.
    8880022    1    1    2    0    0  0.22783446866E+03 -0.20145914019E+03 -0.73971942911E+03  0.81429160446E+03  0.15294330000E+03 0.  0.
<mgrwt>
<rscale>  0 0.60043746E+03</rscale>
<asrwt>0</asrwt>
<pdfrwt beam="1">  1        2 0.16961458E+00 0.72546849E+03</pdfrwt>
<pdfrwt beam="2">  1       -2 0.67927258E-01 0.72546849E+03</pdfrwt>
<totfact> 0.43914662E+01</totfact>
</mgrwt>
</event>
<event>
 4    5  0.2295023E-007  0.8465990E+03  0.7818608E-02  0.9617861E-01
          2   -1    0    0  501    0  0.00000000000E+00  0.00000000000E+00  0.16083714099E+04  0.16083714099E+04  0.25500000000E-02 0. -1.
         -2   -1    0    0    0  501 -0.00000000000E+00 -0.00000000000E+00 -0.14451606764E+04  0.14451606764E+04  0.25500000000E-02 0.  1.
    8880023    1    1    2    0    0  0.50837340308E+03 -0.15644857547E+03 -0.12648184855E+04  0.15220038375E+04  0.65864270000E+03 0.  0.
    8880022    1    1    2    0    0 -0.50837340308E+03  0.15644857547E+03  0.14280292190E+04  0.15315282489E+04  0.15294330000E+03 0.  0.
<mgrwt>
<rscale>  0 0.76125244E+03</rscale>
<asrwt>0</asrwt>
<pdfrwt beam="1">  1        2 0.24744176E+00 0.84659901E+03</pdfrwt>
<pdfrwt beam="2">  1       -2 0.22233241E+00 0.84659901E+03</pdfrwt>
<totfact> 0.10754040E+00</totfact>
</mgrwt>
</event>
<event>
 4    5  0.2295023E-007  0.1044960E+04  0.7818608E-02  0.9324965E-01
          2   -1    0    0  501    0  0.00000000000E+00  0.00000000000E+00  0.11567737080E+04  0.11567737080E+04  0.25500000000E-02 0. -1.
         -2   -1    0    0    0  501 -0.00000000000E+00 -0.00000000000E+00 -0.87600912067E+03  0.87600912067E+03  0.25500000000E-02 0.  1.
    8880023    1    1    2    0    0 -0.31145248657E+03 -0.74908460254E+03  0.52831622940E+03  0.11709221313E+04  0.65864270000E+03 0.  0.
    8880022    1    1    2    0    0  0.31145248657E+03  0.74908460254E+03 -0.24755164204E+03  0.86186069736E+03  0.15294330000E+03 0.  0.
<mgrwt>
<rscale>  0 0.98516646E+03</rscale>
<asrwt>0</asrwt>
<pdfrwt beam="1">  1        2 0.17796519E+00 0.10449596E+04</pdfrwt>
<pdfrwt beam="2">  1       -2 0.13477063E+00 0.10449596E+04</pdfrwt>
<totfact> 0.78699580E+00</totfact>
</mgrwt>
</event>
<event>
 4    5  0.2295023E-007  0.8767414E+03  0.7818608E-02  0.9564451E-01
          2   -1    0    0  501    0  0.00000000000E+00  0.00000000000E+00  0.15325753954E+04  0.15325753954E+04  0.25500000000E-02 0. -1.
         -2   -1    0    0    0  501 -0.00000000000E+00 -0.00000000000E+00 -0.75616227566E+03  0.75616227567E+03  0.25500000000E-02 0.  1.
    8880023    1    1    2    0    0  0.57865209195E+03  0.51967173372E+01 -0.40392372748E+03  0.96531333425E+03  0.65864270000E+03 0.  0.
    8880022    1    1    2    0    0 -0.57865209195E+03 -0.51967173372E+01  0.11803368472E+04  0.13234243369E+04  0.15294330000E+03 0.  0.
<mgrwt>
<rscale>  0 0.79694427E+03</rscale>
<asrwt>0</asrwt>
<pdfrwt beam="1">  1        2 0.23578083E+00 0.87674138E+03</pdfrwt>
<pdfrwt beam="2">  1       -2 0.11633266E+00 0.87674138E+03</pdfrwt>
<totfact> 0.70348280E+00</totfact>
</mgrwt>
</event>
<event>
 4    5  0.2295023E-007  0.8464552E+03  0.7818608E-02  0.9618127E-01
          2   -1    0    0  501    0  0.00000000000E+00  0.00000000000E+00  0.55758821689E+03  0.55758821690E+03  0.25500000000E-02 0. -1.
         -2   -1    0    0    0  501 -0.00000000000E+00 -0.00000000000E+00 -0.16519865631E+04  0.16519865631E+04  0.25500000000E-02 0.  1.
    8880023    1    1    2    0    0 -0.53143345169E+03  0.15956617885E+02 -0.13552956819E+04  0.15979088581E+04  0.65864270000E+03 0.  1.
    8880022    1    1    2    0    0  0.53143345169E+03 -0.15956617885E+02  0.26089733567E+03  0.61166592189E+03  0.15294330000E+03 0.  0.
<mgrwt>
<rscale>  0 0.76107975E+03</rscale>
<asrwt>0</asrwt>
<pdfrwt beam="1">  1        2 0.85782803E-01 0.84645516E+03</pdfrwt>
<pdfrwt beam="2">  1       -2 0.25415178E+00 0.84645516E+03</pdfrwt>
<totfact> 0.33393949E+00</totfact>
</mgrwt>
</event>
<event>
 4    5  0.2295023E-007  0.7292517E+03  0.7818608E-02  0.9892441E-01
         -2   -1    0    0    0  501 -0.00000000000E+00  0.00000000000E+00  0.54475793402E+03  0.54475793402E+03  0.25500000000E-02 0.  1.
          2   -1    0    0  501    0  0.00000000000E+00 -0.00000000000E+00 -0.11804966879E+04  0.11804966879E+04  0.25500000000E-02 0. -1.
    8880023    1    1    2    0    0 -0.27308109802E+03  0.15305099400E+03  0.25202285199E+03  0.77157217229E+03  0.65864270000E+03 0.  1.
    8880022    1    1    2    0    0  0.27308109802E+03 -0.15305099400E+03 -0.88776160583E+03  0.95368244960E+03  0.15294330000E+03 0.  0.
<mgrwt>
<rscale>  0 0.60629050E+03</rscale>
<asrwt>0</asrwt>
<pdfrwt beam="1">  1        2 0.18161487E+00 0.72925174E+03</pdfrwt>
<pdfrwt beam="2">  1       -2 0.83808913E-01 0.72925174E+03</pdfrwt>
<totfact> 0.24717068E+01</totfact>
</mgrwt>
</event>
<event>
 4    5  0.4014095E-007  0.1033575E+04  0.7818608E-02  0.9338891E-01
          2   -1    0    0  501    0  0.00000000000E+00  0.00000000000E+00  0.24543861666E+04  0.24543861666E+04  0.25500000000E-02 0. -1.
         -2   -1    0    0    0  501 -0.00000000000E+00 -0.00000000000E+00 -0.13665151729E+04  0.13665151729E+04  0.25500000000E-02 0.  1.
    8880023    1    1    2    0    0 -0.71700650969E+03  0.34694344118E+03 -0.10868568402E+04  0.14998453533E+04  0.65864270000E+03 0.  1.
    8880022    1    1    2    0    0  0.71700650969E+03 -0.34694344118E+03  0.21747278340E+04  0.23210559862E+04  0.15294330000E+03 0.  0.
<mgrwt>
<rscale>  0 0.97279945E+03</rscale>
<asrwt>0</asrwt>
<pdfrwt beam="1">  1        2 0.37759787E+00 0.10335755E+04</pdfrwt>
<pdfrwt beam="2">  1       -2 0.21023311E+00 0.10335755E+04</pdfrwt>
<totfact> 0.42243802E-01</totfact>
</mgrwt>
</event>
<event>
 4    5  0.2295023E-007  0.7577871E+03  0.7818608E-02  0.9810870E-01
          2   -1    0    0  501    0  0.00000000000E+00  0.00000000000E+00  0.41299100981E+03  0.41299100981E+03  0.25500000000E-02 0. -1.
         -2   -1    0    0    0  501 -0.00000000000E+00 -0.00000000000E+00 -0.13031164543E+04  0.13031164543E+04  0.25500000000E-02 0.  1.
    8880023    1    1    2    0    0  0.23783635927E+03 -0.28959457168E+03 -0.10380096342E+04  0.12851868956E+04  0.65864270000E+03 0. -1.
    8880022    1    1    2    0    0 -0.23783635927E+03  0.28959457168E+03  0.14788418973E+03  0.43092056846E+03  0.15294330000E+03 0.  0.
<mgrwt>
<rscale>  0 0.64782428E+03</rscale>
<asrwt>0</asrwt>
<pdfrwt beam="1">  1        2 0.63537079E-01 0.75778714E+03</pdfrwt>
<pdfrwt beam="2">  1       -2 0.20047945E+00 0.75778714E+03</pdfrwt>
<totfact> 0.10308345E+01</totfact>
</mgrwt>
</event>
<event>
 4    5  0.2295023E-007  0.7933134E+03  0.7818608E-02  0.9725445E-01
          2   -1    0    0  501    0  0.00000000000E+00  0.00000000000E+00  0.85134184313E+03  0.85134184313E+03  0.25500000000E-02 0. -1.
         -2   -1    0    0    0  501 -0.00000000000E+00 -0.00000000000E+00 -0.20610534059E+04  0.20610534059E+04  0.25500000000E-02 0.  1.
    8880023    1    1    2    0    0 -0.69502941915E+02  0.43669808149E+03 -0.19111271081E+04  0.20692396920E+04  0.65864270000E+03 0.  0.
    8880022    1    1    2    0    0  0.69502941915E+02 -0.43669808149E+03  0.70141554527E+03  0.84315555710E+03  0.15294330000E+03 0.  0.
<mgrwt>
<rscale>  0 0.69521818E+03</rscale>
<asrwt>0</asrwt>
<pdfrwt beam="1">  1        2 0.13097567E+00 0.79331336E+03</pdfrwt>
<pdfrwt beam="2">  1       -2 0.31708514E+00 0.79331336E+03</pdfrwt>
<totfact> 0.82253479E-01</totfact>
</mgrwt>
</event>
<event>
 4    5  0.2295023E-007  0.8292714E+03  0.7818608E-02  0.9650752E-01
         -2   -1    0    0    0  501 -0.00000000000E+00  0.00000000000E+00  0.88404182769E+03  0.88404182770E+03  0.25500000000E-02 0.  1.
          2   -1    0    0  501    0  0.00000000000E+00 -0.00000000000E+00 -0.15823902470E+04  0.15823902470E+04  0.25500000000E-02 0. -1.
    8880023    1    1    2    0    0 -0.32585353272E+03  0.38431790864E+03  0.62744775830E+03  0.10398950309E+04  0.65864270000E+03 0.  0.
    8880022    1    1    2    0    0  0.32585353272E+03 -0.38431790864E+03 -0.13257961776E+04  0.14265370438E+04  0.15294330000E+03 0.  0.
<mgrwt>
<rscale>  0 0.74026265E+03</rscale>
<asrwt>0</asrwt>
<pdfrwt beam="1">  1        2 0.24344465E+00 0.82927136E+03</pdfrwt>
<pdfrwt beam="2">  1       -2 0.13600644E+00 0.82927136E+03</pdfrwt>
<totfact> 0.44842097E+00</totfact>
</mgrwt>
</event>
<event>
 4    5  0.2295023E-007  0.1018171E+04  0.7818608E-02  0.9358161E-01
         -2   -1    0    0    0  501 -0.00000000000E+00  0.00000000000E+00  0.36859595852E+03  0.36859595853E+03  0.25500000000E-02 0.  1.
          2   -1    0    0  501    0  0.00000000000E+00 -0.00000000000E+00 -0.27046057151E+04  0.27046057151E+04  0.25500000000E-02 0. -1.
    8880023    1    1    2    0    0 -0.10400638221E+02  0.77637190021E+03 -0.64257129970E+03  0.12039807233E+04  0.65864270000E+03 0.  0.
    8880022    1    1    2    0    0  0.10400638221E+02 -0.77637190021E+03 -0.16934384569E+04  0.18692209503E+04  0.15294330000E+03 0.  0.
<mgrwt>
<rscale>  0 0.95600290E+03</rscale>
<asrwt>0</asrwt>
<pdfrwt beam="1">  1        2 0.41609317E+00 0.10181708E+04</pdfrwt>
<pdfrwt beam="2">  1       -2 0.56707072E-01 0.10181708E+04</pdfrwt>
<totfact> 0.78020168E+00</totfact>
</mgrwt>
</event>
<event>
 4    5  0.2295023E-007  0.1132807E+04  0.7818608E-02  0.9225380E-01
         -2   -1    0    0    0  501 -0.00000000000E+00  0.00000000000E+00  0.16525253357E+04  0.16525253357E+04  0.25500000000E-02 0.  1.
          2   -1    0    0  501    0  0.00000000000E+00 -0.00000000000E+00 -0.66559554718E+03  0.66559554719E+03  0.25500000000E-02 0. -1.
    8880023    1    1    2    0    0 -0.29682487896E+03  0.87254558427E+03  0.34352723789E+03  0.11837491182E+04  0.65864270000E+03 0.  0.
    8880022    1    1    2    0    0  0.29682487896E+03 -0.87254558427E+03  0.64340255067E+03  0.11343717647E+04  0.15294330000E+03 0.  0.
<mgrwt>
<rscale>  0 0.10795263E+04</rscale>
<asrwt>0</asrwt>
<pdfrwt beam="1">  1        2 0.10239931E+00 0.11328067E+04</pdfrwt>
<pdfrwt beam="2">  1       -2 0.25423467E+00 0.11328067E+04</pdfrwt>
<totfact> 0.26033755E+00</totfact>
</mgrwt>
</event>
<event>
 4    5  0.2295023E-007  0.1156218E+04  0.7818608E-02  0.9200903E-01
         -2   -1    0    0    0  501 -0.00000000000E+00  0.00000000000E+00  0.18612059155E+04  0.18612059155E+04  0.25500000000E-02 0.  1.
          2   -1    0    0  501    0  0.00000000000E+00 -0.00000000000E+00 -0.12034621873E+04  0.12034621873E+04  0.25500000000E-02 0. -1.
    8880023    1    1    2    0    0  0.34040887775E+03  0.88721607589E+03  0.14240759274E+04  0.18343481193E+04  0.65864270000E+03 0.  0.
    8880022    1    1    2    0    0 -0.34040887775E+03 -0.88721607589E+03 -0.76633219919E+03  0.12303199835E+04  0.15294330000E+03 0.  0.
<mgrwt>
<rscale>  0 0.11044117E+04</rscale>
<asrwt>0</asrwt>
<pdfrwt beam="1">  1        2 0.18514803E+00 0.11562183E+04</pdfrwt>
<pdfrwt beam="2">  1       -2 0.28633937E+00 0.11562183E+04</pdfrwt>
<totfact> 0.71219759E-01</totfact>
</mgrwt>
</event>
<event>
 4    5  0.2295023E-007  0.7156646E+03  0.7818608E-02  0.9937538E-01
          2   -1    0    0  501    0  0.00000000000E+00  0.00000000000E+00  0.10309184241E+04  0.10309184241E+04  0.25500000000E-02 0. -1.
         -2   -1    0    0    0  501 -0.00000000000E+00 -0.00000000000E+00 -0.69098381402E+03  0.69098381403E+03  0.25500000000E-02 0.  1.
    8880023    1    1    2    0    0  0.22303361415E+02 -0.27904874128E+03 -0.46676180739E+03  0.85442520506E+03  0.65864270000E+03 0.  0.
    8880022    1    1    2    0    0 -0.22303361415E+02  0.27904874128E+03  0.80669641749E+03  0.86747703310E+03  0.15294330000E+03 0. -1.
<mgrwt>
<rscale>  0 0.58476026E+03</rscale>
<asrwt>0</asrwt>
<pdfrwt beam="1">  1        2 0.15860283E+00 0.71566462E+03</pdfrwt>
<pdfrwt beam="2">  1       -2 0.10630520E+00 0.71566462E+03</pdfrwt>
<totfact> 0.17532823E+01</totfact>
</mgrwt>
</event>
<event>
 4    5  0.2295023E-007  0.1072757E+04  0.7818608E-02  0.9292012E-01
         -2   -1    0    0    0  501 -0.00000000000E+00  0.00000000000E+00  0.13256834230E+04  0.13256834230E+04  0.25500000000E-02 0.  1.
          2   -1    0    0  501    0  0.00000000000E+00 -0.00000000000E+00 -0.84469761376E+03  0.84469761376E+03  0.25500000000E-02 0. -1.
    8880023    1    1    2    0    0  0.83714665591E+03  0.12721199879E+03  0.70194614706E+03  0.12820046863E+04  0.65864270000E+03 0.  0.
    8880022    1    1    2    0    0 -0.83714665591E+03 -0.12721199879E+03 -0.22096033781E+03  0.88837635045E+03  0.15294330000E+03 0.  0.
<mgrwt>
<rscale>  0 0.10152162E+04</rscale>
<asrwt>0</asrwt>
<pdfrwt beam="1">  1        2 0.12995348E+00 0.10727570E+04</pdfrwt>
<pdfrwt beam="2">  1       -2 0.20395130E+00 0.10727570E+04</pdfrwt>
<totfact> 0.39540881E+00</totfact>
</mgrwt>
</event>
<event>
 4    5  0.2295023E-007  0.8194307E+03  0.7818608E-02  0.9670258E-01
          2   -1    0    0  501    0  0.00000000000E+00  0.00000000000E+00  0.96451742007E+03  0.96451742007E+03  0.25500000000E-02 0. -1.
         -2   -1    0    0    0  501 -0.00000000000E+00 -0.00000000000E+00 -0.98318291197E+03  0.98318291197E+03  0.25500000000E-02 0.  1.
    8880023    1    1    2    0    0 -0.10714814155E+02  0.48738251108E+03 -0.71261498812E+03  0.10859497442E+04  0.65864270000E+03 0.  1.
    8880022    1    1    2    0    0  0.10714814155E+02 -0.48738251108E+03  0.69394949622E+03  0.86175058785E+03  0.15294330000E+03 0.  0.
<mgrwt>
<rscale>  0 0.72815572E+03</rscale>
<asrwt>0</asrwt>
<pdfrwt beam="1">  1        2 0.14838729E+00 0.81943073E+03</pdfrwt>
<pdfrwt beam="2">  1       -2 0.15125891E+00 0.81943073E+03</pdfrwt>
<totfact> 0.78591010E+00</totfact>
</mgrwt>
</event>
<event>
 4    5  0.2295023E-007  0.7823474E+03  0.7818608E-02  0.9750351E-01
          2   -1    0    0  501    0  0.00000000000E+00  0.00000000000E+00  0.19231388133E+04  0.19231388133E+04  0.25500000000E-02 0. -1.
         -2   -1    0    0    0  501 -0.00000000000E+00 -0.00000000000E+00 -0.27535801307E+03  0.27535801308E+03  0.25500000000E-02 0.  1.
    8880023    1    1    2    0    0  0.13955096373E+02 -0.42197458724E+03  0.41314884748E+03  0.88473695155E+03  0.65864270000E+03 0.  1.
    8880022    1    1    2    0    0 -0.13955096373E+02  0.42197458724E+03  0.12346319528E+04  0.13137598749E+04  0.15294330000E+03 0.  0.
<mgrwt>
<rscale>  0 0.68096414E+03</rscale>
<asrwt>0</asrwt>
<pdfrwt beam="1">  1        2 0.29586750E+00 0.78234743E+03</pdfrwt>
<pdfrwt beam="2">  1       -2 0.42362772E-01 0.78234743E+03</pdfrwt>
<totfact> 0.39939703E+01</totfact>
</mgrwt>
</event>
<event>
 4    5  0.2295023E-007  0.6877796E+03  0.7818608E-02  0.1005226E+00
          2   -1    0    0  501    0  0.00000000000E+00  0.00000000000E+00  0.24346198898E+04  0.24346198898E+04  0.25500000000E-02 0. -1.
         -2   -1    0    0    0  501 -0.00000000000E+00 -0.00000000000E+00 -0.99962881560E+02  0.99962881593E+02  0.25500000000E-02 0.  1.
    8880023    1    1    2    0    0  0.74124316052E+02  0.18367398071E+03  0.13072645778E+04  0.14771531498E+04  0.65864270000E+03 0. -1.
    8880022    1    1    2    0    0 -0.74124316052E+02 -0.18367398071E+03  0.10273924304E+04  0.10574296216E+04  0.15294330000E+03 0.  0.
<mgrwt>
<rscale>  0 0.53416816E+03</rscale>
<asrwt>0</asrwt>
<pdfrwt beam="1">  1        2 0.37455687E+00 0.68777958E+03</pdfrwt>
<pdfrwt beam="2">  1       -2 0.15378906E-01 0.68777958E+03</pdfrwt>
<totfact> 0.13306307E+02</totfact>
</mgrwt>
</event>
<event>
 4    5  0.2295023E-007  0.1353192E+04  0.7818608E-02  0.9020935E-01
         -2   -1    0    0    0  501 -0.00000000000E+00  0.00000000000E+00  0.12240207322E+04  0.12240207322E+04  0.25500000000E-02 0.  1.
          2   -1    0    0  501    0  0.00000000000E+00 -0.00000000000E+00 -0.20098037212E+04  0.20098037212E+04  0.25500000000E-02 0. -1.
    8880023    1    1    2    0    0  0.55076368589E+02  0.11807979128E+04  0.53465555045E+03  0.14549858697E+04  0.65864270000E+03 0.  0.
    8880022    1    1    2    0    0 -0.55076368589E+02 -0.11807979128E+04 -0.13204385395E+04  0.17788385837E+04  0.15294330000E+03 0.  0.
<mgrwt>
<rscale>  0 0.13109393E+04</rscale>
<asrwt>0</asrwt>
<pdfrwt beam="1">  1        2 0.30920057E+00 0.13531915E+04</pdfrwt>
<pdfrwt beam="2">  1       -2 0.18831088E+00 0.13531915E+04</pdfrwt>
<totfact> 0.10020935E+00</totfact>
</mgrwt>
</event>
<event>
 4    5  0.2295023E-007  0.7209058E+03  0.7818608E-02  0.9919533E-01
         -2   -1    0    0    0  501 -0.00000000000E+00  0.00000000000E+00  0.17195320083E+03  0.17195320084E+03  0.25500000000E-02 0.  1.
          2   -1    0    0  501    0  0.00000000000E+00 -0.00000000000E+00 -0.33451068639E+04  0.33451068639E+04  0.25500000000E-02 0. -1.
    8880023    1    1    2    0    0  0.23487746133E+03  0.17529284864E+03 -0.64483808006E+03  0.96722353176E+03  0.65864270000E+03 0.  1.
    8880022    1    1    2    0    0 -0.23487746133E+03 -0.17529284864E+03 -0.25283155830E+04  0.25498365330E+04  0.15294330000E+03 0.  0.
<mgrwt>
<rscale>  0 0.59323914E+03</rscale>
<asrwt>0</asrwt>
<pdfrwt beam="1">  1        2 0.51463178E+00 0.72090583E+03</pdfrwt>
<pdfrwt beam="2">  1       -2 0.26454341E-01 0.72090583E+03</pdfrwt>
<totfact> 0.14482130E+01</totfact>
</mgrwt>
</event>
<event>
 4    5  0.2295023E-007  0.1058771E+04  0.7818608E-02  0.9308411E-01
          2   -1    0    0  501    0  0.00000000000E+00  0.00000000000E+00  0.11678464562E+04  0.11678464562E+04  0.25500000000E-02 0. -1.
         -2   -1    0    0    0  501 -0.00000000000E+00 -0.00000000000E+00 -0.16297589598E+04  0.16297589598E+04  0.25500000000E-02 0.  1.
    8880023    1    1    2    0    0  0.23508036276E+03 -0.79493557560E+03 -0.12537947386E+04  0.16410352827E+04  0.65864270000E+03 0.  0.
    8880022    1    1    2    0    0 -0.23508036276E+03  0.79493557560E+03  0.79188223495E+03  0.11565701333E+04  0.15294330000E+03 0.  0.
<mgrwt>
<rscale>  0 0.10001217E+04</rscale>
<asrwt>0</asrwt>
<pdfrwt beam="1">  1        2 0.17966869E+00 0.10587708E+04</pdfrwt>
<pdfrwt beam="2">  1       -2 0.25073215E+00 0.10587708E+04</pdfrwt>
<totfact> 0.12459666E+00</totfact>
</mgrwt>
</event>
<event>
 4    5  0.2295023E-007  0.7994218E+03  0.7818608E-02  0.9712048E-01
         -2   -1    0    0    0  501 -0.00000000000E+00  0.00000000000E+00  0.33222823859E+03  0.33222823860E+03  0.25500000000E-02 0.  1.
          2   -1    0    0  501    0  0.00000000000E+00 -0.00000000000E+00 -0.18807193112E+04  0.18807193112E+04  0.25500000000E-02 0. -1.
    8880023    1    1    2    0    0 -0.40682440288E+03  0.19939632556E+03 -0.26327684495E+03  0.84165901217E+03  0.65864270000E+03 0.  1.
    8880022    1    1    2    0    0  0.40682440288E+03 -0.19939632556E+03 -0.12852142276E+04  0.13712885376E+04  0.15294330000E+03 0.  0.
<mgrwt>
<rscale>  0 0.70303988E+03</rscale>
<asrwt>0</asrwt>
<pdfrwt beam="1">  1        2 0.28934143E+00 0.79942179E+03</pdfrwt>
<pdfrwt beam="2">  1       -2 0.51112038E-01 0.79942179E+03</pdfrwt>
<totfact> 0.28832889E+01</totfact>
</mgrwt>
</event>
<event>
 4    5  0.2295023E-007  0.6954030E+03  0.7818608E-02  0.1001683E+00
         -2   -1    0    0    0  501 -0.00000000000E+00  0.00000000000E+00  0.96368609170E+03  0.96368609171E+03  0.25500000000E-02 0.  1.
          2   -1    0    0  501    0  0.00000000000E+00 -0.00000000000E+00 -0.33002942772E+03  0.33002942773E+03  0.25500000000E-02 0. -1.
    8880023    1    1    2    0    0 -0.14290671196E+03  0.17132657539E+03  0.72845531336E+03  0.10070910950E+04  0.65864270000E+03 0.  1.
    8880022    1    1    2    0    0  0.14290671196E+03 -0.17132657539E+03 -0.94798649376E+02  0.28662442446E+03  0.15294330000E+03 0.  0.
<mgrwt>
<rscale>  0 0.54918246E+03</rscale>
<asrwt>0</asrwt>
<pdfrwt beam="1">  1        2 0.50773759E-01 0.69540300E+03</pdfrwt>
<pdfrwt beam="2">  1       -2 0.14825940E+00 0.69540300E+03</pdfrwt>
<totfact> 0.30989950E+01</totfact>
</mgrwt>
</event>
<event>
 4    5  0.2295023E-007  0.1244801E+04  0.7818608E-02  0.9114757E-01
         -2   -1    0    0    0  501 -0.00000000000E+00  0.00000000000E+00  0.70834197128E+03  0.70834197128E+03  0.25500000000E-02 0.  1.
          2   -1    0    0  501    0  0.00000000000E+00 -0.00000000000E+00 -0.24895354305E+04  0.24895354305E+04  0.25500000000E-02 0. -1.
    8880023    1    1    2    0    0  0.38300615044E+02  0.10555817953E+04 -0.15737427825E+03  0.12547098204E+04  0.65864270000E+03 0.  1.
    8880022    1    1    2    0    0 -0.38300615044E+02 -0.10555817953E+04 -0.16238191810E+04  0.19431675814E+04  0.15294330000E+03 0.  0.
<mgrwt>
<rscale>  0 0.11978316E+04</rscale>
<asrwt>0</asrwt>
<pdfrwt beam="1">  1        2 0.38300545E+00 0.12448012E+04</pdfrwt>
<pdfrwt beam="2">  1       -2 0.10897569E+00 0.12448012E+04</pdfrwt>
<totfact> 0.23177797E+00</totfact>
</mgrwt>
</event>
<event>
 4    5  0.2295023E-007  0.1133103E+04  0.7818608E-02  0.9225065E-01
         -2   -1    0    0    0  501 -0.00000000000E+00  0.00000000000E+00  0.69433185201E+03  0.69433185201E+03  0.25500000000E-02 0.  1.
          2   -1    0    0  501    0  0.00000000000E+00 -0.00000000000E+00 -0.36125986725E+04  0.36125986725E+04  0.25500000000E-02 0. -1.
    8880023    1    1    2    0    0 -0.90425142713E+03 -0.18011384800E+03  0.10932423979E+03  0.11383644572E+04  0.65864270000E+03 0.  1.
    8880022    1    1    2    0    0  0.90425142713E+03  0.18011384800E+03 -0.30275910603E+04  0.31685660673E+04  0.15294330000E+03 0.  0.
<mgrwt>
<rscale>  0 0.10798416E+04</rscale>
<asrwt>0</asrwt>
<pdfrwt beam="1">  1        2 0.55578440E+00 0.11331028E+04</pdfrwt>
<pdfrwt beam="2">  1       -2 0.10682029E+00 0.11331028E+04</pdfrwt>
<totfact> 0.48300510E-01</totfact>
</mgrwt>
</event>
<event>
 4    5  0.2295023E-007  0.1295267E+04  0.7818608E-02  0.9069658E-01
         -2   -1    0    0    0  501 -0.00000000000E+00  0.00000000000E+00  0.10885151099E+04  0.10885151099E+04  0.25500000000E-02 0.  1.
          2   -1    0    0  501    0  0.00000000000E+00 -0.00000000000E+00 -0.14711219088E+04  0.14711219088E+04  0.25500000000E-02 0. -1.
    8880023    1    1    2    0    0  0.10927648966E+04 -0.22309530937E+03  0.16859448907E+03  0.13061933028E+04  0.65864270000E+03 0.  0.
    8880022    1    1    2    0    0 -0.10927648966E+04  0.22309530937E+03 -0.55120128801E+03  0.12534437160E+04  0.15294330000E+03 0.  0.
<mgrwt>
<rscale>  0 0.12506315E+04</rscale>
<asrwt>0</asrwt>
<pdfrwt beam="1">  1        2 0.22632645E+00 0.12952671E+04</pdfrwt>
<pdfrwt beam="2">  1       -2 0.16746386E+00 0.12952671E+04</pdfrwt>
<totfact> 0.28182673E+00</totfact>
</mgrwt>
</event>
<event>
 4    5  0.2295023E-007  0.9602081E+03  0.7818608E-02  0.9435577E-01
         -2   -1    0    0    0  501 -0.00000000000E+00  0.00000000000E+00  0.10016414256E+04  0.10016414256E+04  0.25500000000E-02 0.  1.
          2   -1    0    0  501    0  0.00000000000E+00 -0.00000000000E+00 -0.11009016616E+04  0.11009016616E+04  0.25500000000E-02 0. -1.
    8880023    1    1    2    0    0 -0.65629707700E+03 -0.23971542986E+03  0.57531440567E+03  0.11193686668E+04  0.65864270000E+03 0. -1.
    8880022    1    1    2    0    0  0.65629707700E+03  0.23971542986E+03 -0.67457464173E+03  0.98317442037E+03  0.15294330000E+03 0.  0.
<mgrwt>
<rscale>  0 0.89204819E+03</rscale>
<asrwt>0</asrwt>
<pdfrwt beam="1">  1        2 0.16936949E+00 0.96020807E+03</pdfrwt>
<pdfrwt beam="2">  1       -2 0.15409868E+00 0.96020807E+03</pdfrwt>
<totfact> 0.60381004E+00</totfact>
</mgrwt>
</event>
<event>
 4    5  0.2295023E-007  0.1787516E+04  0.7818608E-02  0.8729473E-01
          2   -1    0    0  501    0  0.00000000000E+00  0.00000000000E+00  0.29823480468E+04  0.29823480468E+04  0.25500000000E-02 0. -1.
         -2   -1    0    0    0  501 -0.00000000000E+00 -0.00000000000E+00 -0.11075502535E+04  0.11075502535E+04  0.25500000000E-02 0.  1.
    8880023    1    1    2    0    0  0.38757585865E+03 -0.16159176139E+04  0.33372867228E+03  0.18184030945E+04  0.65864270000E+03 0.  0.
    8880022    1    1    2    0    0 -0.38757585865E+03  0.16159176139E+04  0.15410691210E+04  0.22714952058E+04  0.15294330000E+03 0.  0.
<mgrwt>
<rscale>  0 0.17570605E+04</rscale>
<asrwt>0</asrwt>
<pdfrwt beam="1">  1        2 0.45882278E+00 0.17875164E+04</pdfrwt>
<pdfrwt beam="2">  1       -2 0.17039235E+00 0.17875164E+04</pdfrwt>
<totfact> 0.34663079E-01</totfact>
</mgrwt>
</event>
<event>
 4    5  0.2295023E-007  0.7534729E+03  0.7818608E-02  0.9822308E-01
         -2   -1    0    0    0  501 -0.00000000000E+00  0.00000000000E+00  0.21101160315E+03  0.21101160316E+03  0.25500000000E-02 0.  1.
          2   -1    0    0  501    0  0.00000000000E+00 -0.00000000000E+00 -0.19124200538E+04  0.19124200538E+04  0.25500000000E-02 0. -1.
    8880023    1    1    2    0    0 -0.19634635261E+03  0.30880309301E+03 -0.63400605085E+03  0.98472591070E+03  0.65864270000E+03 0.  0.
    8880022    1    1    2    0    0  0.19634635261E+03 -0.30880309301E+03 -0.10674023998E+04  0.11387057462E+04  0.15294330000E+03 0.  0.
<mgrwt>
<rscale>  0 0.64178982E+03</rscale>
<asrwt>0</asrwt>
<pdfrwt beam="1">  1        2 0.29421846E+00 0.75347292E+03</pdfrwt>
<pdfrwt beam="2">  1       -2 0.32463325E-01 0.75347292E+03</pdfrwt>
<totfact> 0.67795629E+01</totfact>
</mgrwt>
</event>
<event>
 4    5  0.2295023E-007  0.6697002E+03  0.7818608E-02  0.1015879E+00
          2   -1    0    0  501    0  0.00000000000E+00  0.00000000000E+00  0.15183550106E+04  0.15183550106E+04  0.25500000000E-02 0. -1.
         -2   -1    0    0    0  501 -0.00000000000E+00 -0.00000000000E+00 -0.25003915658E+03  0.25003915660E+03  0.25500000000E-02 0.  1.
    8880023    1    1    2    0    0 -0.78428017377E+02  0.92397045261E+02  0.22424939689E+03  0.70624794948E+03  0.65864270000E+03 0.  1.
    8880022    1    1    2    0    0  0.78428017377E+02 -0.92397045261E+02  0.10440664571E+04  0.10621462177E+04  0.15294330000E+03 0.  0.
<mgrwt>
<rscale>  0 0.49203635E+03</rscale>
<asrwt>0</asrwt>
<pdfrwt beam="1">  1        2 0.23359307E+00 0.66970021E+03</pdfrwt>
<pdfrwt beam="2">  1       -2 0.38467563E-01 0.66970021E+03</pdfrwt>
<totfact> 0.81331568E+01</totfact>
</mgrwt>
</event>
<event>
 4    5  0.2295023E-007  0.6862082E+03  0.7818608E-02  0.1006009E+00
         -2   -1    0    0    0  501 -0.00000000000E+00  0.00000000000E+00  0.17372219800E+03  0.17372219802E+03  0.25500000000E-02 0.  1.
          2   -1    0    0  501    0  0.00000000000E+00 -0.00000000000E+00 -0.14219490528E+04  0.14219490528E+04  0.25500000000E-02 0. -1.
    8880023    1    1    2    0    0 -0.12567621483E+03  0.14586647290E+03 -0.63481859141E+03  0.93481355850E+03  0.65864270000E+03 0.  1.
    8880022    1    1    2    0    0  0.12567621483E+03 -0.14586647290E+03 -0.61340826339E+03  0.66085769233E+03  0.15294330000E+03 0. -1.
<mgrwt>
<rscale>  0 0.53091908E+03</rscale>
<asrwt>0</asrwt>
<pdfrwt beam="1">  1        2 0.21876138E+00 0.68620824E+03</pdfrwt>
<pdfrwt beam="2">  1       -2 0.26726493E-01 0.68620824E+03</pdfrwt>
<totfact> 0.18186852E+02</totfact>
</mgrwt>
</event>
<event>
 4    5  0.2295023E-007  0.7026755E+03  0.7818608E-02  0.9986278E-01
         -2   -1    0    0    0  501 -0.00000000000E+00  0.00000000000E+00  0.25408195536E+03  0.25408195538E+03  0.25500000000E-02 0.  1.
          2   -1    0    0  501    0  0.00000000000E+00 -0.00000000000E+00 -0.13038424115E+04  0.13038424115E+04  0.25500000000E-02 0. -1.
    8880023    1    1    2    0    0 -0.39309912103E+02  0.24165540561E+03 -0.31800283943E+03  0.77128374571E+03  0.65864270000E+03 0.  1.
    8880022    1    1    2    0    0  0.39309912103E+02 -0.24165540561E+03 -0.73175761666E+03  0.78664062113E+03  0.15294330000E+03 0.  0.
<mgrwt>
<rscale>  0 0.56256025E+03</rscale>
<asrwt>0</asrwt>
<pdfrwt beam="1">  1        2 0.20059114E+00 0.70267547E+03</pdfrwt>
<pdfrwt beam="2">  1       -2 0.39089532E-01 0.70267547E+03</pdfrwt>
<totfact> 0.10379030E+02</totfact>
</mgrwt>
</event>
<event>
 4    5  0.2295023E-007  0.8274543E+03  0.7818608E-02  0.9654306E-01
          2   -1    0    0  501    0  0.00000000000E+00  0.00000000000E+00  0.17550663650E+04  0.17550663650E+04  0.25500000000E-02 0. -1.
         -2   -1    0    0    0  501 -0.00000000000E+00 -0.00000000000E+00 -0.63993256131E+03  0.63993256132E+03  0.25500000000E-02 0.  1.
    8880023    1    1    2    0    0  0.49619862656E+03  0.68244638317E+02 -0.30461356867E+03  0.88174261559E+03  0.65864270000E+03 0.  0.
    8880022    1    1    2    0    0 -0.49619862656E+03 -0.68244638317E+02  0.14197473724E+04  0.15132563107E+04  0.15294330000E+03 0.  0.
<mgrwt>
<rscale>  0 0.73803801E+03</rscale>
<asrwt>0</asrwt>
<pdfrwt beam="1">  1        2 0.27001021E+00 0.82745430E+03</pdfrwt>
<pdfrwt beam="2">  1       -2 0.98451163E-01 0.82745430E+03</pdfrwt>
<totfact> 0.79802133E+00</totfact>
</mgrwt>
</event>
<event>
 4    5  0.2295023E-007  0.1461673E+04  0.7818608E-02  0.8937185E-01
          2   -1    0    0  501    0  0.00000000000E+00  0.00000000000E+00  0.16388606103E+04  0.16388606103E+04  0.25500000000E-02 0. -1.
         -2   -1    0    0    0  501 -0.00000000000E+00 -0.00000000000E+00 -0.22137088048E+04  0.22137088048E+04  0.25500000000E-02 0.  1.
    8880023    1    1    2    0    0 -0.10918538792E+04 -0.71451674749E+03 -0.16139926496E+04  0.21774897371E+04  0.65864270000E+03 0.  0.
    8880022    1    1    2    0    0  0.10918538792E+04  0.71451674749E+03  0.10391444551E+04  0.16750796780E+04  0.15294330000E+03 0.  0.
<mgrwt>
<rscale>  0 0.14232136E+04</rscale>
<asrwt>0</asrwt>
<pdfrwt beam="1">  1        2 0.25213240E+00 0.14616735E+04</pdfrwt>
<pdfrwt beam="2">  1       -2 0.34057059E+00 0.14616735E+04</pdfrwt>
<totfact> 0.17880394E-01</totfact>
</mgrwt>
</event>
<event>
 4    5  0.2295023E-007  0.9089500E+03  0.7818608E-02  0.9511814E-01
          2   -1    0    0  501    0  0.00000000000E+00  0.00000000000E+00  0.14184872623E+04  0.14184872623E+04  0.25500000000E-02 0. -1.
         -2   -1    0    0    0  501 -0.00000000000E+00 -0.00000000000E+00 -0.53665069425E+03  0.53665069426E+03  0.25500000000E-02 0.  1.
    8880023    1    1    2    0    0  0.29487248276E+03 -0.55265725898E+03  0.60539970142E+02  0.91096384189E+03  0.65864270000E+03 0.  0.
    8880022    1    1    2    0    0 -0.29487248276E+03  0.55265725898E+03  0.82129659792E+03  0.10441741147E+04  0.15294330000E+03 0.  0.
<mgrwt>
<rscale>  0 0.83418393E+03</rscale>
<asrwt>0</asrwt>
<pdfrwt beam="1">  1        2 0.21822881E+00 0.90894996E+03</pdfrwt>
<pdfrwt beam="2">  1       -2 0.82561645E-01 0.90894996E+03</pdfrwt>
<totfact> 0.18270760E+01</totfact>
</mgrwt>
</event>
<event>
 4    5  0.2295023E-007  0.8398582E+03  0.7818608E-02  0.9630448E-01
         -2   -1    0    0    0  501 -0.00000000000E+00  0.00000000000E+00  0.37224877416E+03  0.37224877416E+03  0.25500000000E-02 0.  1.
          2   -1    0    0  501    0  0.00000000000E+00 -0.00000000000E+00 -0.16958977301E+04  0.16958977301E+04  0.25500000000E-02 0. -1.
    8880023    1    1    2    0    0  0.20976427253E+03  0.47702261054E+03 -0.26900980778E+03  0.88188894082E+03  0.65864270000E+03 0.  0.
    8880022    1    1    2    0    0 -0.20976427253E+03 -0.47702261054E+03 -0.10546391482E+04  0.11862575635E+04  0.15294330000E+03 0.  0.
<mgrwt>
<rscale>  0 0.75313320E+03</rscale>
<asrwt>0</asrwt>
<pdfrwt beam="1">  1        2 0.26090734E+00 0.83985822E+03</pdfrwt>
<pdfrwt beam="2">  1       -2 0.57269043E-01 0.83985822E+03</pdfrwt>
<totfact> 0.28624994E+01</totfact>
</mgrwt>
</event>
<event>
 4    5  0.2295023E-007  0.1021946E+04  0.7818608E-02  0.9353392E-01
         -2   -1    0    0    0  501 -0.00000000000E+00  0.00000000000E+00  0.52834467226E+03  0.52834467226E+03  0.25500000000E-02 0.  1.
          2   -1    0    0  501    0  0.00000000000E+00 -0.00000000000E+00 -0.18334342281E+04  0.18334342281E+04  0.25500000000E-02 0. -1.
    8880023    1    1    2    0    0 -0.76254320063E+03  0.17056200159E+03 -0.27210699478E+03  0.10575518673E+04  0.65864270000E+03 0.  1.
    8880022    1    1    2    0    0  0.76254320063E+03 -0.17056200159E+03 -0.10329825611E+04  0.13042270330E+04  0.15294330000E+03 0.  0.
<mgrwt>
<rscale>  0 0.96012615E+03</rscale>
<asrwt>0</asrwt>
<pdfrwt beam="1">  1        2 0.28206680E+00 0.10219461E+04</pdfrwt>
<pdfrwt beam="2">  1       -2 0.81283797E-01 0.10219461E+04</pdfrwt>
<totfact> 0.11000017E+01</totfact>
</mgrwt>
</event>
<event>
 4    5  0.2295023E-007  0.9977116E+03  0.7818608E-02  0.9384558E-01
          2   -1    0    0  501    0  0.00000000000E+00  0.00000000000E+00  0.91709007772E+03  0.91709007772E+03  0.25500000000E-02 0. -1.
         -2   -1    0    0    0  501 -0.00000000000E+00 -0.00000000000E+00 -0.13776167383E+04  0.13776167383E+04  0.25500000000E-02 0.  1.
    8880023    1    1    2    0    0  0.36077641468E+03  0.65685516410E+03 -0.95728565186E+03  0.13826873665E+04  0.65864270000E+03 0.  1.
    8880022    1    1    2    0    0 -0.36077641468E+03 -0.65685516410E+03  0.49675899123E+03  0.91201944956E+03  0.15294330000E+03 0.  0.
<mgrwt>
<rscale>  0 0.93357495E+03</rscale>
<asrwt>0</asrwt>
<pdfrwt beam="1">  1        2 0.14109078E+00 0.99771165E+03</pdfrwt>
<pdfrwt beam="2">  1       -2 0.21194104E+00 0.99771165E+03</pdfrwt>
<totfact> 0.31560371E+00</totfact>
</mgrwt>
</event>
<event>
 4    5  0.2295023E-007  0.9290712E+03  0.7818608E-02  0.9480888E-01
         -2   -1    0    0    0  501 -0.00000000000E+00  0.00000000000E+00  0.10948332236E+04  0.10948332236E+04  0.25500000000E-02 0.  1.
          2   -1    0    0  501    0  0.00000000000E+00 -0.00000000000E+00 -0.15069184569E+04  0.15069184570E+04  0.25500000000E-02 0. -1.
    8880023    1    1    2    0    0  0.52581235025E+03 -0.39100432952E+03  0.79303684789E+03  0.12215075365E+04  0.65864270000E+03 0.  0.
    8880022    1    1    2    0    0 -0.52581235025E+03  0.39100432952E+03 -0.12051220813E+04  0.13802441440E+04  0.15294330000E+03 0.  0.
<mgrwt>
<rscale>  0 0.85707653E+03</rscale>
<asrwt>0</asrwt>
<pdfrwt beam="1">  1        2 0.23183361E+00 0.92907116E+03</pdfrwt>
<pdfrwt beam="2">  1       -2 0.16843588E+00 0.92907116E+03</pdfrwt>
<totfact> 0.27555118E+00</totfact>
</mgrwt>
</event>
<event>
 4    5  0.2295023E-007  0.8109640E+03  0.7818608E-02  0.9687572E-01
          2   -1    0    0  501    0  0.00000000000E+00  0.00000000000E+00  0.48275440078E+04  0.48275440078E+04  0.25500000000E-02 0. -1.
         -2   -1    0    0    0  501 -0.00000000000E+00 -0.00000000000E+00 -0.57460376399E+03  0.57460376399E+03  0.25500000000E-02 0.  1.
    8880023    1    1    2    0    0 -0.59973915280E+01  0.47309240639E+03 -0.26788188009E+03  0.85406282066E+03  0.65864270000E+03 0.  1.
    8880022    1    1    2    0    0  0.59973915280E+01 -0.47309240639E+03  0.45208221240E+04  0.45480849512E+04  0.15294330000E+03 0.  0.
<mgrwt>
<rscale>  0 0.71761566E+03</rscale>
<asrwt>0</asrwt>
<pdfrwt beam="1">  1        2 0.74269904E+00 0.81096399E+03</pdfrwt>
<pdfrwt beam="2">  1       -2 0.88400584E-01 0.81096399E+03</pdfrwt>
<totfact> 0.70015824E-02</totfact>
</mgrwt>
</event>
<event>
 4    5  0.2295023E-007  0.8534121E+03  0.7818608E-02  0.9605391E-01
         -2   -1    0    0    0  501 -0.00000000000E+00  0.00000000000E+00  0.13823288860E+04  0.13823288860E+04  0.25500000000E-02 0.  1.
          2   -1    0    0  501    0  0.00000000000E+00 -0.00000000000E+00 -0.68308384929E+03  0.68308384929E+03  0.25500000000E-02 0. -1.
    8880023    1    1    2    0    0 -0.39507978149E+03 -0.37204034944E+03  0.10863657513E+04  0.13814857245E+04  0.65864270000E+03 0.  1.
    8880022    1    1    2    0    0  0.39507978149E+03  0.37204034944E+03 -0.38712071456E+03  0.68392701073E+03  0.15294330000E+03 0.  0.
<mgrwt>
<rscale>  0 0.76940384E+03</rscale>
<asrwt>0</asrwt>
<pdfrwt beam="1">  1        2 0.10508982E+00 0.85341213E+03</pdfrwt>
<pdfrwt beam="2">  1       -2 0.21266598E+00 0.85341213E+03</pdfrwt>
<totfact> 0.46983735E+00</totfact>
</mgrwt>
</event>
<event>
 4    5  0.2295023E-007  0.6702259E+03  0.7818608E-02  0.1015501E+00
          2   -1    0    0  501    0  0.00000000000E+00  0.00000000000E+00  0.14482097339E+04  0.14482097339E+04  0.25500000000E-02 0. -1.
         -2   -1    0    0    0  501 -0.00000000000E+00 -0.00000000000E+00 -0.98347917642E+03  0.98347917642E+03  0.25500000000E-02 0.  1.
    8880023    1    1    2    0    0 -0.47228319416E+01  0.12397683880E+03 -0.86116838160E+03  0.10912441292E+04  0.65864270000E+03 0.  1.
    8880022    1    1    2    0    0  0.47228319416E+01 -0.12397683880E+03  0.13258989391E+04  0.13404447812E+04  0.15294330000E+03 0.  0.
<mgrwt>
<rscale>  0 0.49345526E+03</rscale>
<asrwt>0</asrwt>
<pdfrwt beam="1">  1        2 0.22280150E+00 0.67022591E+03</pdfrwt>
<pdfrwt beam="2">  1       -2 0.15130449E+00 0.67022591E+03</pdfrwt>
<totfact> 0.41326011E+00</totfact>
</mgrwt>
</event>
<event>
 4    5  0.2295023E-007  0.7835624E+03  0.7818608E-02  0.9747534E-01
         -2   -1    0    0    0  501 -0.00000000000E+00  0.00000000000E+00  0.69500954273E+03  0.69500954273E+03  0.25500000000E-02 0.  1.
          2   -1    0    0  501    0  0.00000000000E+00 -0.00000000000E+00 -0.19706742155E+04  0.19706742155E+04  0.25500000000E-02 0. -1.
    8880023    1    1    2    0    0  0.45163544881E+02 -0.42204281799E+03  0.43521535644E+03  0.89631607079E+03  0.65864270000E+03 0.  1.
    8880022    1    1    2    0    0 -0.45163544881E+02  0.42204281799E+03 -0.17108800292E+04  0.17693676875E+04  0.15294330000E+03 0.  0.
<mgrwt>
<rscale>  0 0.68255791E+03</rscale>
<asrwt>0</asrwt>
<pdfrwt beam="1">  1        2 0.30318065E+00 0.78356244E+03</pdfrwt>
<pdfrwt beam="2">  1       -2 0.10692455E+00 0.78356244E+03</pdfrwt>
<totfact> 0.50268062E+00</totfact>
</mgrwt>
</event>
<event>
 4    5  0.2295023E-007  0.1052897E+04  0.7818608E-02  0.9315407E-01
          2   -1    0    0  501    0  0.00000000000E+00  0.00000000000E+00  0.23110662066E+04  0.23110662066E+04  0.25500000000E-02 0. -1.
         -2   -1    0    0    0  501 -0.00000000000E+00 -0.00000000000E+00 -0.10275070267E+04  0.10275070267E+04  0.25500000000E-02 0.  1.
    8880023    1    1    2    0    0 -0.59443688220E+03  0.56694494531E+03 -0.64641010722E+03  0.12354909999E+04  0.65864270000E+03 0.  1.
    8880022    1    1    2    0    0  0.59443688220E+03 -0.56694494531E+03  0.19299692871E+04  0.21030822333E+04  0.15294330000E+03 0.  0.
<mgrwt>
<rscale>  0 0.99376756E+03</rscale>
<asrwt>0</asrwt>
<pdfrwt beam="1">  1        2 0.35554864E+00 0.10528969E+04</pdfrwt>
<pdfrwt beam="2">  1       -2 0.15807801E+00 0.10528969E+04</pdfrwt>
<totfact> 0.11567189E+00</totfact>
</mgrwt>
</event>
<event>
 4    5  0.2295023E-007  0.8820345E+03  0.7818608E-02  0.9555510E-01
          2   -1    0    0  501    0  0.00000000000E+00  0.00000000000E+00  0.28820837992E+04  0.28820837992E+04  0.25500000000E-02 0. -1.
         -2   -1    0    0    0  501 -0.00000000000E+00 -0.00000000000E+00 -0.34311545399E+03  0.34311545400E+03  0.25500000000E-02 0.  1.
    8880023    1    1    2    0    0 -0.28384359443E+03 -0.51342719902E+03  0.34184206042E+03  0.94596029268E+03  0.65864270000E+03 0.  0.
    8880022    1    1    2    0    0  0.28384359443E+03  0.51342719902E+03  0.21971262848E+04  0.22792389605E+04  0.15294330000E+03 0.  0.
<mgrwt>
<rscale>  0 0.80312131E+03</rscale>
<asrwt>0</asrwt>
<pdfrwt beam="1">  1        2 0.44339749E+00 0.88203451E+03</pdfrwt>
<pdfrwt beam="2">  1       -2 0.52786995E-01 0.88203451E+03</pdfrwt>
<totfact> 0.72385985E+00</totfact>
</mgrwt>
</event>
<event>
 4    5  0.2295023E-007  0.6791997E+03  0.7818608E-02  0.1009780E+00
         -2   -1    0    0    0  501 -0.00000000000E+00  0.00000000000E+00  0.21035843404E+03  0.21035843406E+03  0.25500000000E-02 0.  1.
          2   -1    0    0  501    0  0.00000000000E+00 -0.00000000000E+00 -0.16896390036E+04  0.16896390036E+04  0.25500000000E-02 0. -1.
    8880023    1    1    2    0    0 -0.16548454862E+03  0.10810556960E+02 -0.38095381565E+03  0.77874130486E+03  0.65864270000E+03 0.  1.
    8880022    1    1    2    0    0  0.16548454862E+03 -0.10810556960E+02 -0.10983267539E+04  0.11212561328E+04  0.15294330000E+03 0.  0.
<mgrwt>
<rscale>  0 0.51562155E+03</rscale>
<asrwt>0</asrwt>
<pdfrwt beam="1">  1        2 0.25994445E+00 0.67919968E+03</pdfrwt>
<pdfrwt beam="2">  1       -2 0.32362837E-01 0.67919968E+03</pdfrwt>
<totfact> 0.90916906E+01</totfact>
</mgrwt>
</event>
<event>
 4    5  0.2295023E-007  0.7029557E+03  0.7818608E-02  0.9985154E-01
         -2   -1    0    0    0  501 -0.00000000000E+00  0.00000000000E+00  0.25151370302E+03  0.25151370303E+03  0.25500000000E-02 0.  1.
          2   -1    0    0  501    0  0.00000000000E+00 -0.00000000000E+00 -0.24074625348E+04  0.24074625348E+04  0.25500000000E-02 0. -1.
    8880023    1    1    2    0    0  0.73098275114E+02  0.23450619679E+03 -0.27329067530E+03  0.75421118635E+03  0.65864270000E+03 0.  1.
    8880022    1    1    2    0    0 -0.73098275114E+02 -0.23450619679E+03 -0.18826581565E+04  0.19047650515E+04  0.15294330000E+03 0.  0.
<mgrwt>
<rscale>  0 0.56306031E+03</rscale>
<asrwt>0</asrwt>
<pdfrwt beam="1">  1        2 0.37037884E+00 0.70295570E+03</pdfrwt>
<pdfrwt beam="2">  1       -2 0.38694417E-01 0.70295570E+03</pdfrwt>
<totfact> 0.26070522E+01</totfact>
</mgrwt>
</event>
<event>
 4    5  0.2295023E-007  0.9590107E+03  0.7818608E-02  0.9437267E-01
         -2   -1    0    0    0  501 -0.00000000000E+00  0.00000000000E+00  0.10317935081E+04  0.10317935081E+04  0.25500000000E-02 0.  1.
          2   -1    0    0  501    0  0.00000000000E+00 -0.00000000000E+00 -0.19572182579E+04  0.19572182579E+04  0.25500000000E-02 0. -1.
    8880023    1    1    2    0    0 -0.50337926790E+03 -0.48218310435E+03  0.71755149390E+03  0.11977401998E+04  0.65864270000E+03 0.  0.
    8880022    1    1    2    0    0  0.50337926790E+03  0.48218310435E+03 -0.16429762437E+04  0.17912715662E+04  0.15294330000E+03 0.  0.
<mgrwt>
<rscale>  0 0.89071232E+03</rscale>
<asrwt>0</asrwt>
<pdfrwt beam="1">  1        2 0.30111050E+00 0.95901066E+03</pdfrwt>
<pdfrwt beam="2">  1       -2 0.15873746E+00 0.95901066E+03</pdfrwt>
<totfact> 0.18216047E+00</totfact>
</mgrwt>
</event>
<event>
 4    5  0.2295023E-007  0.8165918E+03  0.7818608E-02  0.9676007E-01
          2   -1    0    0  501    0  0.00000000000E+00  0.00000000000E+00  0.53899242067E+04  0.53899242067E+04  0.25500000000E-02 0. -1.
         -2   -1    0    0    0  501 -0.00000000000E+00 -0.00000000000E+00 -0.13431047173E+03  0.13431047175E+03  0.25500000000E-02 0.  1.
    8880023    1    1    2    0    0 -0.39806222162E+03 -0.27305378564E+03  0.12921285226E+04  0.15285346667E+04  0.65864270000E+03 0.  1.
    8880022    1    1    2    0    0  0.39806222162E+03  0.27305378564E+03  0.39634852124E+04  0.39957000117E+04  0.15294330000E+03 0.  0.
<mgrwt>
<rscale>  0 0.72463491E+03</rscale>
<asrwt>0</asrwt>
<pdfrwt beam="1">  1        2 0.82921912E+00 0.81659176E+03</pdfrwt>
<pdfrwt beam="2">  1       -2 0.20663149E-01 0.81659176E+03</pdfrwt>
<totfact> 0.22428065E-01</totfact>
</mgrwt>
</event>
<event>
 4    5  0.2295023E-007  0.1301290E+04  0.7818608E-02  0.9064447E-01
         -2   -1    0    0    0  501 -0.00000000000E+00  0.00000000000E+00  0.10148863717E+04  0.10148863717E+04  0.25500000000E-02 0.  1.
          2   -1    0    0  501    0  0.00000000000E+00 -0.00000000000E+00 -0.21132508252E+04  0.21132508252E+04  0.25500000000E-02 0. -1.
    8880023    1    1    2    0    0  0.25715418444E+03  0.10924364962E+04 -0.14440701292E+04  0.19438864465E+04  0.65864270000E+03 0.  0.
    8880022    1    1    2    0    0 -0.25715418444E+03 -0.10924364962E+04  0.34570567568E+03  0.11842507505E+04  0.15294330000E+03 0.  0.
<mgrwt>
<rscale>  0 0.12569161E+04</rscale>
<asrwt>0</asrwt>
<pdfrwt beam="1">  1        2 0.32511551E+00 0.13012901E+04</pdfrwt>
<pdfrwt beam="2">  1       -2 0.15613637E+00 0.13012901E+04</pdfrwt>
<totfact> 0.14966065E+00</totfact>
</mgrwt>
</event>
<event>
 4    5  0.2295023E-007  0.9363700E+03  0.7818608E-02  0.9470002E-01
         -2   -1    0    0    0  501 -0.00000000000E+00  0.00000000000E+00  0.59549785427E+03  0.59549785428E+03  0.25500000000E-02 0.  1.
          2   -1    0    0  501    0  0.00000000000E+00 -0.00000000000E+00 -0.29633555301E+04  0.29633555301E+04  0.25500000000E-02 0. -1.
    8880023    1    1    2    0    0 -0.54352516628E+03 -0.38413393126E+03  0.15152851906E+03  0.94855130693E+03  0.65864270000E+03 0.  0.
    8880022    1    1    2    0    0  0.54352516628E+03  0.38413393126E+03 -0.25193861949E+04  0.26103020774E+04  0.15294330000E+03 0.  0.
<mgrwt>
<rscale>  0 0.86532040E+03</rscale>
<asrwt>0</asrwt>
<pdfrwt beam="1">  1        2 0.45590084E+00 0.93636995E+03</pdfrwt>
<pdfrwt beam="2">  1       -2 0.91615056E-01 0.93636995E+03</pdfrwt>
<totfact> 0.19170312E+00</totfact>
</mgrwt>
</event>
<event>
 4    5  0.2295023E-007  0.9684038E+03  0.7818608E-02  0.9424115E-01
          2   -1    0    0  501    0  0.00000000000E+00  0.00000000000E+00  0.28394679922E+04  0.28394679922E+04  0.25500000000E-02 0. -1.
         -2   -1    0    0    0  501 -0.00000000000E+00 -0.00000000000E+00 -0.71990345552E+03  0.71990345553E+03  0.25500000000E-02 0.  1.
    8880023    1    1    2    0    0 -0.54862169296E+03  0.45056634798E+03 -0.31535893253E+03  0.10184582753E+04  0.65864270000E+03 0.  1.
    8880022    1    1    2    0    0  0.54862169296E+03 -0.45056634798E+03  0.24349234692E+04  0.25409131725E+04  0.15294330000E+03 0.  0.
<mgrwt>
<rscale>  0 0.90117389E+03</rscale>
<asrwt>0</asrwt>
<pdfrwt beam="1">  1        2 0.43684122E+00 0.96840384E+03</pdfrwt>
<pdfrwt beam="2">  1       -2 0.11075438E+00 0.96840384E+03</pdfrwt>
<totfact> 0.14424049E+00</totfact>
</mgrwt>
</event>
<event>
 4    5  0.2295023E-007  0.1052098E+04  0.7818608E-02  0.9316364E-01
          2   -1    0    0  501    0  0.00000000000E+00  0.00000000000E+00  0.12399917491E+04  0.12399917491E+04  0.25500000000E-02 0. -1.
         -2   -1    0    0    0  501 -0.00000000000E+00 -0.00000000000E+00 -0.11996911614E+04  0.11996911614E+04  0.25500000000E-02 0.  1.
    8880023    1    1    2    0    0  0.74518004454E+03  0.34322853854E+03 -0.74861952621E+03  0.12912554084E+04  0.65864270000E+03 0.  0.
    8880022    1    1    2    0    0 -0.74518004454E+03 -0.34322853854E+03  0.78892011391E+03  0.11484275021E+04  0.15294330000E+03 0.  0.
<mgrwt>
<rscale>  0 0.99290213E+03</rscale>
<asrwt>0</asrwt>
<pdfrwt beam="1">  1        2 0.19076796E+00 0.10520976E+04</pdfrwt>
<pdfrwt beam="2">  1       -2 0.18456787E+00 0.10520976E+04</pdfrwt>
<totfact> 0.29818761E+00</totfact>
</mgrwt>
</event>
<event>
 4    5  0.2295023E-007  0.7276444E+03  0.7818608E-02  0.9897521E-01
         -2   -1    0    0    0  501 -0.00000000000E+00  0.00000000000E+00  0.14016946087E+03  0.14016946089E+03  0.25500000000E-02 0.  1.
          2   -1    0    0  501    0  0.00000000000E+00 -0.00000000000E+00 -0.32264894271E+04  0.32264894271E+04  0.25500000000E-02 0. -1.
    8880023    1    1    2    0    0  0.96833208518E+02  0.29373363847E+03 -0.91970110910E+03  0.11727388699E+04  0.65864270000E+03 0.  1.
    8880022    1    1    2    0    0 -0.96833208518E+02 -0.29373363847E+03 -0.21666188571E+04  0.21939200181E+04  0.15294330000E+03 0.  0.
<mgrwt>
<rscale>  0 0.60381589E+03</rscale>
<asrwt>0</asrwt>
<pdfrwt beam="1">  1        2 0.49638294E+00 0.72764437E+03</pdfrwt>
<pdfrwt beam="2">  1       -2 0.21564535E-01 0.72764437E+03</pdfrwt>
<totfact> 0.24900744E+01</totfact>
</mgrwt>
</event>
<event>
 4    5  0.2295023E-007  0.2121592E+04  0.7818608E-02  0.8562837E-01
         -2   -1    0    0    0  501 -0.00000000000E+00  0.00000000000E+00  0.24702435172E+04  0.24702435172E+04  0.25500000000E-02 0.  1.
          2   -1    0    0  501    0  0.00000000000E+00 -0.00000000000E+00 -0.37233480971E+04  0.37233480971E+04  0.25500000000E-02 0. -1.
    8880023    1    1    2    0    0 -0.17198024693E+04  0.10533853439E+04  0.16274397082E+04  0.26738944307E+04  0.65864270000E+03 0.  0.
    8880022    1    1    2    0    0  0.17198024693E+04 -0.10533853439E+04 -0.28805442881E+04  0.35196971837E+04  0.15294330000E+03 0.  0.
<mgrwt>
<rscale>  0 0.20963872E+04</rscale>
<asrwt>0</asrwt>
<pdfrwt beam="1">  1        2 0.57282278E+00 0.21215917E+04</pdfrwt>
<pdfrwt beam="2">  1       -2 0.38003746E+00 0.21215917E+04</pdfrwt>
<totfact> 0.48730221E-03</totfact>
</mgrwt>
</event>
<event>
 4    5  0.2295023E-007  0.6854870E+03  0.7818608E-02  0.1006376E+00
          2   -1    0    0  501    0  0.00000000000E+00  0.00000000000E+00  0.76678887673E+03  0.76678887674E+03  0.25500000000E-02 0. -1.
         -2   -1    0    0    0  501 -0.00000000000E+00 -0.00000000000E+00 -0.11262147697E+04  0.11262147697E+04  0.25500000000E-02 0.  1.
    8880023    1    1    2    0    0 -0.16703358705E+03  0.90454566016E+02 -0.99726297861E+03  0.12101346630E+04  0.65864270000E+03 0.  1.
    8880022    1    1    2    0    0  0.16703358705E+03 -0.90454566016E+02  0.63783708566E+03  0.68286898347E+03  0.15294330000E+03 0.  0.
<mgrwt>
<rscale>  0 0.52940767E+03</rscale>
<asrwt>0</asrwt>
<pdfrwt beam="1">  1        2 0.11796752E+00 0.68548702E+03</pdfrwt>
<pdfrwt beam="2">  1       -2 0.17326381E+00 0.68548702E+03</pdfrwt>
<totfact> 0.75558067E+00</totfact>
</mgrwt>
</event>
<event>
 4    5  0.2295023E-007  0.1203701E+04  0.7818608E-02  0.9153533E-01
          2   -1    0    0  501    0  0.00000000000E+00  0.00000000000E+00  0.31536336683E+04  0.31536336683E+04  0.25500000000E-02 0. -1.
         -2   -1    0    0    0  501 -0.00000000000E+00 -0.00000000000E+00 -0.50131901212E+03  0.50131901213E+03  0.25500000000E-02 0.  1.
    8880023    1    1    2    0    0 -0.98504646738E+03 -0.21158970311E+03  0.55984021478E+03  0.13275232645E+04  0.65864270000E+03 0.  0.
    8880022    1    1    2    0    0  0.98504646738E+03  0.21158970311E+03  0.20924744414E+04  0.23274294159E+04  0.15294330000E+03 0.  0.
<mgrwt>
<rscale>  0 0.11546191E+04</rscale>
<asrwt>0</asrwt>
<pdfrwt beam="1">  1        2 0.48517442E+00 0.12037014E+04</pdfrwt>
<pdfrwt beam="2">  1       -2 0.77126000E-01 0.12037014E+04</pdfrwt>
<totfact> 0.20776896E+00</totfact>
</mgrwt>
</event>
<event>
 4    5  0.2295023E-007  0.9505379E+03  0.7818608E-02  0.9449341E-01
         -2   -1    0    0    0  501 -0.00000000000E+00  0.00000000000E+00  0.13447780566E+04  0.13447780566E+04  0.25500000000E-02 0.  1.
          2   -1    0    0  501    0  0.00000000000E+00 -0.00000000000E+00 -0.78011995936E+03  0.78011995936E+03  0.25500000000E-02 0. -1.
    8880023    1    1    2    0    0  0.26054229500E+03 -0.63390052930E+03  0.93301854469E+03  0.13319331738E+04  0.65864270000E+03 0.  1.
    8880022    1    1    2    0    0 -0.26054229500E+03  0.63390052930E+03 -0.36836044748E+03  0.79296484210E+03  0.15294330000E+03 0.  0.
<mgrwt>
<rscale>  0 0.88124038E+03</rscale>
<asrwt>0</asrwt>
<pdfrwt beam="1">  1        2 0.12001846E+00 0.95053794E+03</pdfrwt>
<pdfrwt beam="2">  1       -2 0.20688893E+00 0.95053794E+03</pdfrwt>
<totfact> 0.42649815E+00</totfact>
</mgrwt>
</event>
<event>
 4    5  0.2295023E-007  0.9040717E+03  0.7818608E-02  0.9519527E-01
          2   -1    0    0  501    0  0.00000000000E+00  0.00000000000E+00  0.11842042942E+04  0.11842042942E+04  0.25500000000E-02 0. -1.
         -2   -1    0    0    0  501 -0.00000000000E+00 -0.00000000000E+00 -0.79016145582E+03  0.79016145583E+03  0.25500000000E-02 0.  1.
    8880023    1    1    2    0    0 -0.34778834928E+03  0.51242430828E+03 -0.37189734434E+03  0.97757518821E+03  0.65864270000E+03 0.  1.
    8880022    1    1    2    0    0  0.34778834928E+03 -0.51242430828E+03  0.76594018269E+03  0.99679056180E+03  0.15294330000E+03 0.  0.
<mgrwt>
<rscale>  0 0.82859388E+03</rscale>
<asrwt>0</asrwt>
<pdfrwt beam="1">  1        2 0.18218528E+00 0.90407169E+03</pdfrwt>
<pdfrwt beam="2">  1       -2 0.12156330E+00 0.90407169E+03</pdfrwt>
<totfact> 0.99723879E+00</totfact>
</mgrwt>
</event>
<event>
 4    5  0.2295023E-007  0.7615901E+03  0.7818608E-02  0.9801008E-01
         -2   -1    0    0    0  501 -0.00000000000E+00  0.00000000000E+00  0.56494327246E+03  0.56494327247E+03  0.25500000000E-02 0.  1.
          2   -1    0    0  501    0  0.00000000000E+00 -0.00000000000E+00 -0.22326330270E+04  0.22326330270E+04  0.25500000000E-02 0. -1.
    8880023    1    1    2    0    0  0.32614858145E+03 -0.19959071116E+03 -0.20798661734E+04  0.22149182501E+04  0.65864270000E+03 0.  0.
    8880022    1    1    2    0    0 -0.32614858145E+03  0.19959071116E+03  0.41217641888E+03  0.58265804934E+03  0.15294330000E+03 0.  0.
<mgrwt>
<rscale>  0 0.65308475E+03</rscale>
<asrwt>0</asrwt>
<pdfrwt beam="1">  1        2 0.34348200E+00 0.76159015E+03</pdfrwt>
<pdfrwt beam="2">  1       -2 0.86914351E-01 0.76159015E+03</pdfrwt>
<totfact> 0.58944111E+00</totfact>
</mgrwt>
</event>
<event>
 4    5  0.2295023E-007  0.1298674E+04  0.7818608E-02  0.9066706E-01
         -2   -1    0    0    0  501 -0.00000000000E+00  0.00000000000E+00  0.58423393305E+03  0.58423393305E+03  0.25500000000E-02 0.  1.
          2   -1    0    0  501    0  0.00000000000E+00 -0.00000000000E+00 -0.29591901216E+04  0.29591901216E+04  0.25500000000E-02 0. -1.
    8880023    1    1    2    0    0 -0.11181350947E+04  0.50165389494E+02 -0.57938643251E+03  0.14220553790E+04  0.65864270000E+03 0.  1.
    8880022    1    1    2    0    0  0.11181350947E+04 -0.50165389494E+02 -0.17955697561E+04  0.21213686757E+04  0.15294330000E+03 0.  0.
<mgrwt>
<rscale>  0 0.12541862E+04</rscale>
<asrwt>0</asrwt>
<pdfrwt beam="1">  1        2 0.45526001E+00 0.12986735E+04</pdfrwt>
<pdfrwt beam="2">  1       -2 0.89882145E-01 0.12986735E+04</pdfrwt>
<totfact> 0.19170921E+00</totfact>
</mgrwt>
</event>
<event>
 4    5  0.2295023E-007  0.7313577E+03  0.7818608E-02  0.9885876E-01
         -2   -1    0    0    0  501 -0.00000000000E+00  0.00000000000E+00  0.15937909339E+04  0.15937909339E+04  0.25500000000E-02 0.  1.
          2   -1    0    0  501    0  0.00000000000E+00 -0.00000000000E+00 -0.29738745510E+03  0.29738745511E+03  0.25500000000E-02 0. -1.
    8880023    1    1    2    0    0 -0.18622503279E+03 -0.25767062316E+03  0.13489845775E+04  0.15344847700E+04  0.65864270000E+03 0.  1.
    8880022    1    1    2    0    0  0.18622503279E+03  0.25767062316E+03 -0.52581098683E+02  0.35669361899E+03  0.15294330000E+03 0.  0.
<mgrwt>
<rscale>  0 0.60950678E+03</rscale>
<asrwt>0</asrwt>
<pdfrwt beam="1">  1        2 0.45751916E-01 0.73135772E+03</pdfrwt>
<pdfrwt beam="2">  1       -2 0.24519861E+00 0.73135772E+03</pdfrwt>
<totfact> 0.78425512E+00</totfact>
</mgrwt>
</event>
<event>
 4    5  0.2295023E-007  0.1020905E+04  0.7818608E-02  0.9354704E-01
          2   -1    0    0  501    0  0.00000000000E+00  0.00000000000E+00  0.33246500683E+04  0.33246500683E+04  0.25500000000E-02 0. -1.
         -2   -1    0    0    0  501 -0.00000000000E+00 -0.00000000000E+00 -0.13309746286E+04  0.13309746286E+04  0.25500000000E-02 0.  1.
    8880023    1    1    2    0    0  0.74533195083E+03  0.23003932142E+03 -0.10768599249E+04  0.14838717298E+04  0.65864270000E+03 0.  1.
    8880022    1    1    2    0    0 -0.74533195083E+03 -0.23003932142E+03  0.30705353646E+04  0.31717529671E+04  0.15294330000E+03 0.  0.
<mgrwt>
<rscale>  0 0.95899013E+03</rscale>
<asrwt>0</asrwt>
<pdfrwt beam="1">  1        2 0.51148463E+00 0.10209055E+04</pdfrwt>
<pdfrwt beam="2">  1       -2 0.20476533E+00 0.10209055E+04</pdfrwt>
<totfact> 0.13569367E-01</totfact>
</mgrwt>
</event>
<event>
 4    5  0.2295023E-007  0.8434019E+03  0.7818608E-02  0.9623799E-01
          2   -1    0    0  501    0  0.00000000000E+00  0.00000000000E+00  0.31318932565E+04  0.31318932565E+04  0.25500000000E-02 0. -1.
         -2   -1    0    0    0  501 -0.00000000000E+00 -0.00000000000E+00 -0.58967999183E+03  0.58967999183E+03  0.25500000000E-02 0.  1.
    8880023    1    1    2    0    0  0.36954036551E+03  0.37544179234E+03 -0.24708231906E+03  0.87884953196E+03  0.65864270000E+03 0.  1.
    8880022    1    1    2    0    0 -0.36954036551E+03 -0.37544179234E+03  0.27892955838E+04  0.28427237164E+04  0.15294330000E+03 0.  0.
<mgrwt>
<rscale>  0 0.75740856E+03</rscale>
<asrwt>0</asrwt>
<pdfrwt beam="1">  1        2 0.48182972E+00 0.84340194E+03</pdfrwt>
<pdfrwt beam="2">  1       -2 0.90720000E-01 0.84340194E+03</pdfrwt>
<totfact> 0.15673577E+00</totfact>
</mgrwt>
</event>
<event>
 4    5  0.2295023E-007  0.1181633E+04  0.7818608E-02  0.9175187E-01
          2   -1    0    0  501    0  0.00000000000E+00  0.00000000000E+00  0.24726738017E+04  0.24726738017E+04  0.25500000000E-02 0. -1.
         -2   -1    0    0    0  501 -0.00000000000E+00 -0.00000000000E+00 -0.49547418933E+03  0.49547418934E+03  0.25500000000E-02 0.  1.
    8880023    1    1    2    0    0 -0.47594385575E+03 -0.85785959824E+03  0.79435718609E+03  0.14238185241E+04  0.65864270000E+03 0. -1.
    8880022    1    1    2    0    0  0.47594385575E+03  0.85785959824E+03  0.11828424262E+04  0.15443294669E+04  0.15294330000E+03 0.  0.
<mgrwt>
<rscale>  0 0.11313254E+04</rscale>
<asrwt>0</asrwt>
<pdfrwt beam="1">  1        2 0.38041135E+00 0.11816327E+04</pdfrwt>
<pdfrwt beam="2">  1       -2 0.76226798E-01 0.11816327E+04</pdfrwt>
<totfact> 0.54969168E+00</totfact>
</mgrwt>
</event>
<event>
 4    5  0.2295023E-007  0.1412440E+04  0.7818608E-02  0.8974076E-01
          2   -1    0    0  501    0  0.00000000000E+00  0.00000000000E+00  0.20768111538E+04  0.20768111538E+04  0.25500000000E-02 0. -1.
         -2   -1    0    0    0  501 -0.00000000000E+00 -0.00000000000E+00 -0.11795713409E+04  0.11795713409E+04  0.25500000000E-02 0.  1.
    8880023    1    1    2    0    0 -0.55325973671E+03  0.11203042252E+04 -0.38043366158E+03  0.14627774508E+04  0.65864270000E+03 0.  0.
    8880022    1    1    2    0    0  0.55325973671E+03 -0.11203042252E+04  0.12776734745E+04  0.17936050440E+04  0.15294330000E+03 0.  0.
<mgrwt>
<rscale>  0 0.13723552E+04</rscale>
<asrwt>0</asrwt>
<pdfrwt beam="1">  1        2 0.31950940E+00 0.14124405E+04</pdfrwt>
<pdfrwt beam="2">  1       -2 0.18147252E+00 0.14124405E+04</pdfrwt>
<totfact> 0.10177867E+00</totfact>
</mgrwt>
</event>
<event>
 4    5  0.2295023E-007  0.1014045E+04  0.7818608E-02  0.9363409E-01
         -2   -1    0    0    0  501 -0.00000000000E+00  0.00000000000E+00  0.19176832184E+04  0.19176832184E+04  0.25500000000E-02 0.  1.
          2   -1    0    0  501    0  0.00000000000E+00 -0.00000000000E+00 -0.96718595930E+03  0.96718595930E+03  0.25500000000E-02 0. -1.
    8880023    1    1    2    0    0  0.75979375226E+03  0.13111464624E+03  0.15802777081E+04  0.18776489122E+04  0.65864270000E+03 0.  0.
    8880022    1    1    2    0    0 -0.75979375226E+03 -0.13111464624E+03 -0.62978044897E+03  0.10072202656E+04  0.15294330000E+03 0.  0.
<mgrwt>
<rscale>  0 0.95149186E+03</rscale>
<asrwt>0</asrwt>
<pdfrwt beam="1">  1        2 0.14879784E+00 0.10140453E+04</pdfrwt>
<pdfrwt beam="2">  1       -2 0.29502818E+00 0.10140453E+04</pdfrwt>
<totfact> 0.90289057E-01</totfact>
</mgrwt>
</event>
<event>
 4    5  0.2295023E-007  0.2220215E+04  0.7818608E-02  0.8520003E-01
          2   -1    0    0  501    0  0.00000000000E+00  0.00000000000E+00  0.15915147172E+04  0.15915147172E+04  0.25500000000E-02 0. -1.
         -2   -1    0    0    0  501 -0.00000000000E+00 -0.00000000000E+00 -0.52452896119E+04  0.52452896119E+04  0.25500000000E-02 0.  1.
    8880023    1    1    2    0    0  0.20013772827E+04  0.70002428714E+03 -0.41019793274E+04  0.46642887603E+04  0.65864270000E+03 0.  0.
    8880022    1    1    2    0    0 -0.20013772827E+04 -0.70002428714E+03  0.44820443266E+03  0.21725155688E+04  0.15294330000E+03 0.  0.
<mgrwt>
<rscale>  0 0.21962199E+04</rscale>
<asrwt>0</asrwt>
<pdfrwt beam="1">  1        2 0.24484842E+00 0.22202151E+04</pdfrwt>
<pdfrwt beam="2">  1       -2 0.80696763E+00 0.22202151E+04</pdfrwt>
<totfact> 0.69476056E-04</totfact>
</mgrwt>
</event>
<event>
 4    5  0.2295023E-007  0.9586009E+03  0.7818608E-02  0.9437846E-01
         -2   -1    0    0    0  501 -0.00000000000E+00  0.00000000000E+00  0.13597672950E+04  0.13597672950E+04  0.25500000000E-02 0.  1.
          2   -1    0    0  501    0  0.00000000000E+00 -0.00000000000E+00 -0.17137505582E+04  0.17137505582E+04  0.25500000000E-02 0. -1.
    8880023    1    1    2    0    0  0.39063278835E+02  0.69539884348E+03  0.10969741731E+04  0.14568006157E+04  0.65864270000E+03 0.  0.
    8880022    1    1    2    0    0 -0.39063278835E+02 -0.69539884348E+03 -0.14509574363E+04  0.16167172375E+04  0.15294330000E+03 0.  0.
<mgrwt>
<rscale>  0 0.89025504E+03</rscale>
<asrwt>0</asrwt>
<pdfrwt beam="1">  1        2 0.26365393E+00 0.95860091E+03</pdfrwt>
<pdfrwt beam="2">  1       -2 0.20919497E+00 0.95860091E+03</pdfrwt>
<totfact> 0.11189207E+00</totfact>
</mgrwt>
</event>
<event>
 4    5  0.2295023E-007  0.1147818E+04  0.7818608E-02  0.9209595E-01
         -2   -1    0    0    0  501 -0.00000000000E+00  0.00000000000E+00  0.95159027506E+03  0.95159027507E+03  0.25500000000E-02 0.  1.
          2   -1    0    0  501    0  0.00000000000E+00 -0.00000000000E+00 -0.19799798467E+04  0.19799798467E+04  0.25500000000E-02 0. -1.
    8880023    1    1    2    0    0 -0.80068354250E+02  0.93662484688E+03 -0.14837567054E+04  0.18759054380E+04  0.65864270000E+03 0. -1.
    8880022    1    1    2    0    0  0.80068354250E+02 -0.93662484688E+03  0.45536713373E+03  0.10556646838E+04  0.15294330000E+03 0.  0.
<mgrwt>
<rscale>  0 0.10954938E+04</rscale>
<asrwt>0</asrwt>
<pdfrwt beam="1">  1        2 0.30461228E+00 0.11478185E+04</pdfrwt>
<pdfrwt beam="2">  1       -2 0.14639850E+00 0.11478185E+04</pdfrwt>
<totfact> 0.21448581E+00</totfact>
</mgrwt>
</event>
<event>
 4    5  0.2295023E-007  0.1101305E+04  0.7818608E-02  0.9259605E-01
         -2   -1    0    0    0  501 -0.00000000000E+00  0.00000000000E+00  0.91320795738E+03  0.91320795738E+03  0.25500000000E-02 0.  1.
          2   -1    0    0  501    0  0.00000000000E+00 -0.00000000000E+00 -0.14210182392E+04  0.14210182392E+04  0.25500000000E-02 0. -1.
    8880023    1    1    2    0    0  0.62282215116E+03 -0.62542332684E+03  0.28543520599E+03  0.11376929431E+04  0.65864270000E+03 0.  0.
    8880022    1    1    2    0    0 -0.62282215116E+03  0.62542332684E+03 -0.79324548781E+03  0.11965332535E+04  0.15294330000E+03 0.  0.
<mgrwt>
<rscale>  0 0.10458830E+04</rscale>
<asrwt>0</asrwt>
<pdfrwt beam="1">  1        2 0.21861819E+00 0.11013047E+04</pdfrwt>
<pdfrwt beam="2">  1       -2 0.14049353E+00 0.11013047E+04</pdfrwt>
<totfact> 0.49195666E+00</totfact>
</mgrwt>
</event>
<event>
 4    5  0.2295023E-007  0.6687478E+03  0.7818608E-02  0.1016577E+00
          2   -1    0    0  501    0  0.00000000000E+00  0.00000000000E+00  0.15204539453E+04  0.15204539453E+04  0.25500000000E-02 0. -1.
         -2   -1    0    0    0  501 -0.00000000000E+00 -0.00000000000E+00 -0.29776375905E+03  0.29776375906E+03  0.25500000000E-02 0.  1.
    8880023    1    1    2    0    0 -0.10280227283E+03 -0.53339736227E+02  0.96346459188E+02  0.67565248554E+03  0.65864270000E+03 0.  1.
    8880022    1    1    2    0    0  0.10280227283E+03  0.53339736227E+02  0.11263437271E+04  0.11425652189E+04  0.15294330000E+03 0.  0.
<mgrwt>
<rscale>  0 0.48942400E+03</rscale>
<asrwt>0</asrwt>
<pdfrwt beam="1">  1        2 0.23391599E+00 0.66874782E+03</pdfrwt>
<pdfrwt beam="2">  1       -2 0.45809809E-01 0.66874782E+03</pdfrwt>
<totfact> 0.57557063E+01</totfact>
</mgrwt>
</event>
<event>
 4    5  0.2295023E-007  0.1151982E+04  0.7818608E-02  0.9205274E-01
         -2   -1    0    0    0  501 -0.00000000000E+00  0.00000000000E+00  0.75883315660E+03  0.75883315660E+03  0.25500000000E-02 0.  1.
          2   -1    0    0  501    0  0.00000000000E+00 -0.00000000000E+00 -0.34219016920E+04  0.34219016920E+04  0.25500000000E-02 0. -1.
    8880023    1    1    2    0    0 -0.90242535642E+03  0.28085749042E+03  0.19338359641E+03  0.11681009697E+04  0.65864270000E+03 0.  0.
    8880022    1    1    2    0    0  0.90242535642E+03 -0.28085749042E+03 -0.28564521318E+04  0.30126338789E+04  0.15294330000E+03 0.  0.
<mgrwt>
<rscale>  0 0.10999156E+04</rscale>
<asrwt>0</asrwt>
<pdfrwt beam="1">  1        2 0.52644640E+00 0.11519821E+04</pdfrwt>
<pdfrwt beam="2">  1       -2 0.11674356E+00 0.11519821E+04</pdfrwt>
<totfact> 0.52545530E-01</totfact>
</mgrwt>
</event>
<event>
 4    5  0.2295023E-007  0.1353881E+04  0.7818608E-02  0.9020373E-01
          2   -1    0    0  501    0  0.00000000000E+00  0.00000000000E+00  0.20166027267E+04  0.20166027267E+04  0.25500000000E-02 0. -1.
         -2   -1    0    0    0  501 -0.00000000000E+00 -0.00000000000E+00 -0.89176163662E+03  0.89176163662E+03  0.25500000000E-02 0.  1.
    8880023    1    1    2    0    0  0.96905336826E+03  0.67832057596E+03  0.13906862808E+03  0.13610046010E+04  0.65864270000E+03 0.  0.
    8880022    1    1    2    0    0 -0.96905336826E+03 -0.67832057596E+03  0.98577246203E+03  0.15473597624E+04  0.15294330000E+03 0.  0.
<mgrwt>
<rscale>  0 0.13116553E+04</rscale>
<asrwt>0</asrwt>
<pdfrwt beam="1">  1        2 0.31024657E+00 0.13538809E+04</pdfrwt>
<pdfrwt beam="2">  1       -2 0.13719410E+00 0.13538809E+04</pdfrwt>
<totfact> 0.23748516E+00</totfact>
</mgrwt>
</event>
<event>
 4    5  0.2295023E-007  0.6735002E+03  0.7818608E-02  0.1013269E+00
         -2   -1    0    0    0  501 -0.00000000000E+00  0.00000000000E+00  0.24036616162E+03  0.24036616164E+03  0.25500000000E-02 0.  1.
          2   -1    0    0  501    0  0.00000000000E+00 -0.00000000000E+00 -0.37106572591E+04  0.37106572591E+04  0.25500000000E-02 0. -1.
    8880023    1    1    2    0    0  0.10491724805E+03  0.93726839363E+02 -0.24140507560E+03  0.71545717282E+03  0.65864270000E+03 0.  1.
    8880022    1    1    2    0    0 -0.10491724805E+03 -0.93726839363E+02 -0.32288860219E+04  0.32355662479E+04  0.15294330000E+03 0.  0.
<mgrwt>
<rscale>  0 0.50195949E+03</rscale>
<asrwt>0</asrwt>
<pdfrwt beam="1">  1        2 0.57087031E+00 0.67350023E+03</pdfrwt>
<pdfrwt beam="2">  1       -2 0.36979412E-01 0.67350023E+03</pdfrwt>
<totfact> 0.43921667E+00</totfact>
</mgrwt>
</event>
<event>
 4    5  0.2295023E-007  0.8637054E+03  0.7818608E-02  0.9587006E-01
         -2   -1    0    0    0  501 -0.00000000000E+00  0.00000000000E+00  0.70326526575E+03  0.70326526576E+03  0.25500000000E-02 0.  1.
          2   -1    0    0  501    0  0.00000000000E+00 -0.00000000000E+00 -0.14352582161E+04  0.14352582161E+04  0.25500000000E-02 0. -1.
    8880023    1    1    2    0    0 -0.40624360483E+03  0.38359212787E+03  0.33340642836E+03  0.92582225063E+03  0.65864270000E+03 0.  1.
    8880022    1    1    2    0    0  0.40624360483E+03 -0.38359212787E+03 -0.10653993787E+04  0.12127012312E+04  0.15294330000E+03 0.  0.
<mgrwt>
<rscale>  0 0.78162215E+03</rscale>
<asrwt>0</asrwt>
<pdfrwt beam="1">  1        2 0.22080896E+00 0.86370539E+03</pdfrwt>
<pdfrwt beam="2">  1       -2 0.10819466E+00 0.86370539E+03</pdfrwt>
<totfact> 0.95334103E+00</totfact>
</mgrwt>
</event>
<event>
 4    5  0.2295023E-007  0.1632278E+04  0.7818608E-02  0.8821470E-01
          2   -1    0    0  501    0  0.00000000000E+00  0.00000000000E+00  0.23475231245E+04  0.23475231245E+04  0.25500000000E-02 0. -1.
         -2   -1    0    0    0  501 -0.00000000000E+00 -0.00000000000E+00 -0.24954321433E+04  0.24954321433E+04  0.25500000000E-02 0.  1.
    8880023    1    1    2    0    0  0.43242638394E+03  0.14295200327E+04  0.17697260002E+04  0.24075424033E+04  0.65864270000E+03 0.  0.
    8880022    1    1    2    0    0 -0.43242638394E+03 -0.14295200327E+04 -0.19176350191E+04  0.24354128646E+04  0.15294330000E+03 0.  0.
<mgrwt>
<rscale>  0 0.15985000E+04</rscale>
<asrwt>0</asrwt>
<pdfrwt beam="1">  1        2 0.36115740E+00 0.16322776E+04</pdfrwt>
<pdfrwt beam="2">  1       -2 0.38391264E+00 0.16322776E+04</pdfrwt>
<totfact> 0.37132622E-02</totfact>
</mgrwt>
</event>
<event>
 4    5  0.2295023E-007  0.7072276E+03  0.7818608E-02  0.9968444E-01
          2   -1    0    0  501    0  0.00000000000E+00  0.00000000000E+00  0.13972211731E+04  0.13972211731E+04  0.25500000000E-02 0. -1.
         -2   -1    0    0    0  501 -0.00000000000E+00 -0.00000000000E+00 -0.23707039154E+03  0.23707039155E+03  0.25500000000E-02 0.  1.
    8880023    1    1    2    0    0  0.25438341418E+03 -0.40616519802E+02  0.38935374936E+03  0.80732098418E+03  0.65864270000E+03 0.  0.
    8880022    1    1    2    0    0 -0.25438341418E+03  0.40616519802E+02  0.77079703217E+03  0.82697058043E+03  0.15294330000E+03 0.  0.
<mgrwt>
<rscale>  0 0.57055835E+03</rscale>
<asrwt>0</asrwt>
<pdfrwt beam="1">  1        2 0.21495710E+00 0.70722757E+03</pdfrwt>
<pdfrwt beam="2">  1       -2 0.36472368E-01 0.70722757E+03</pdfrwt>
<totfact> 0.10491362E+02</totfact>
</mgrwt>
</event>
<event>
 4    5  0.2295023E-007  0.7532457E+03  0.7818608E-02  0.9822918E-01
         -2   -1    0    0    0  501 -0.00000000000E+00  0.00000000000E+00  0.54138917694E+03  0.54138917695E+03  0.25500000000E-02 0.  1.
          2   -1    0    0  501    0  0.00000000000E+00 -0.00000000000E+00 -0.18244469784E+04  0.18244469784E+04  0.25500000000E-02 0. -1.
    8880023    1    1    2    0    0 -0.33399820265E+03 -0.14837155221E+03  0.24120854709E+03  0.79092394472E+03  0.65864270000E+03 0.  1.
    8880022    1    1    2    0    0  0.33399820265E+03  0.14837155221E+03 -0.15242663485E+04  0.15749122106E+04  0.15294330000E+03 0.  0.
<mgrwt>
<rscale>  0 0.64146997E+03</rscale>
<asrwt>0</asrwt>
<pdfrwt beam="1">  1        2 0.28068415E+00 0.75324573E+03</pdfrwt>
<pdfrwt beam="2">  1       -2 0.83290644E-01 0.75324573E+03</pdfrwt>
<totfact> 0.10877899E+01</totfact>
</mgrwt>
</event>
<event>
 4    5  0.2295023E-007  0.9227089E+03  0.7818608E-02  0.9490518E-01
         -2   -1    0    0    0  501 -0.00000000000E+00  0.00000000000E+00  0.15681015198E+04  0.15681015198E+04  0.25500000000E-02 0.  1.
          2   -1    0    0  501    0  0.00000000000E+00 -0.00000000000E+00 -0.28523967320E+04  0.28523967320E+04  0.25500000000E-02 0. -1.
    8880023    1    1    2    0    0 -0.17694959629E+03 -0.62150653797E+03  0.13881200763E+04  0.16668140535E+04  0.65864270000E+03 0.  1.
    8880022    1    1    2    0    0  0.17694959629E+03  0.62150653797E+03 -0.26724152885E+04  0.27536841983E+04  0.15294330000E+03 0.  0.
<mgrwt>
<rscale>  0 0.84986523E+03</rscale>
<asrwt>0</asrwt>
<pdfrwt beam="1">  1        2 0.43883027E+00 0.92270892E+03</pdfrwt>
<pdfrwt beam="2">  1       -2 0.24124639E+00 0.92270892E+03</pdfrwt>
<totfact> 0.16174101E-01</totfact>
</mgrwt>
</event>
<event>
 4    5  0.2295023E-007  0.6798613E+03  0.7818608E-02  0.1009402E+00
          2   -1    0    0  501    0  0.00000000000E+00  0.00000000000E+00  0.15694975916E+04  0.15694975916E+04  0.25500000000E-02 0. -1.
         -2   -1    0    0    0  501 -0.00000000000E+00 -0.00000000000E+00 -0.12665677426E+04  0.12665677426E+04  0.25500000000E-02 0.  1.
    8880023    1    1    2    0    0  0.15815331661E+03 -0.58212833537E+02 -0.11659362492E+04  0.13496735713E+04  0.65864270000E+03 0.  1.
    8880022    1    1    2    0    0 -0.15815331661E+03  0.58212833537E+02  0.14688660982E+04  0.14863917630E+04  0.15294330000E+03 0.  0.
<mgrwt>
<rscale>  0 0.51712911E+03</rscale>
<asrwt>0</asrwt>
<pdfrwt beam="1">  1        2 0.24146117E+00 0.67986132E+03</pdfrwt>
<pdfrwt beam="2">  1       -2 0.19485658E+00 0.67986132E+03</pdfrwt>
<totfact> 0.17466303E+00</totfact>
</mgrwt>
</event>
<event>
 4    5  0.2295023E-007  0.9469420E+03  0.7818608E-02  0.9454528E-01
          2   -1    0    0  501    0  0.00000000000E+00  0.00000000000E+00  0.14954642794E+04  0.14954642794E+04  0.25500000000E-02 0. -1.
         -2   -1    0    0    0  501 -0.00000000000E+00 -0.00000000000E+00 -0.16394016139E+04  0.16394016139E+04  0.25500000000E-02 0.  1.
    8880023    1    1    2    0    0 -0.62574294417E+03 -0.26708568450E+03 -0.14047168498E+04  0.16940863701E+04  0.65864270000E+03 0.  0.
    8880022    1    1    2    0    0  0.62574294417E+03  0.26708568450E+03  0.12607795153E+04  0.14407795231E+04  0.15294330000E+03 0.  0.
<mgrwt>
<rscale>  0 0.87720968E+03</rscale>
<asrwt>0</asrwt>
<pdfrwt beam="1">  1        2 0.23007143E+00 0.94694203E+03</pdfrwt>
<pdfrwt beam="2">  1       -2 0.25221563E+00 0.94694203E+03</pdfrwt>
<totfact> 0.80053733E-01</totfact>
</mgrwt>
</event>
<event>
 4    5  0.2295023E-007  0.1388343E+04  0.7818608E-02  0.8992794E-01
          2   -1    0    0  501    0  0.00000000000E+00  0.00000000000E+00  0.26606398407E+04  0.26606398407E+04  0.25500000000E-02 0. -1.
         -2   -1    0    0    0  501 -0.00000000000E+00 -0.00000000000E+00 -0.96451379305E+03  0.96451379306E+03  0.25500000000E-02 0.  1.
    8880023    1    1    2    0    0 -0.14633164164E+03 -0.12133726045E+04 -0.16000371710E+03  0.13975326195E+04  0.65864270000E+03 0.  0.
    8880022    1    1    2    0    0  0.14633164164E+03  0.12133726045E+04  0.18561297647E+04  0.22276210143E+04  0.15294330000E+03 0.  0.
<mgrwt>
<rscale>  0 0.13474062E+04</rscale>
<asrwt>0</asrwt>
<pdfrwt beam="1">  1        2 0.40932921E+00 0.13883430E+04</pdfrwt>
<pdfrwt beam="2">  1       -2 0.14838674E+00 0.13883430E+04</pdfrwt>
<totfact> 0.82732428E-01</totfact>
</mgrwt>
</event>
<event>
 4    5  0.2295023E-007  0.8919916E+03  0.7818608E-02  0.9539012E-01
         -2   -1    0    0    0  501 -0.00000000000E+00  0.00000000000E+00  0.40817334522E+03  0.40817334523E+03  0.25500000000E-02 0.  1.
          2   -1    0    0  501    0  0.00000000000E+00 -0.00000000000E+00 -0.22549308164E+04  0.22549308164E+04  0.25500000000E-02 0. -1.
    8880023    1    1    2    0    0 -0.45729231861E+03  0.39079728776E+03 -0.21535093947E+03  0.91761921197E+03  0.65864270000E+03 0.  0.
    8880022    1    1    2    0    0  0.45729231861E+03 -0.39079728776E+03 -0.16314065317E+04  0.17454849496E+04  0.15294330000E+03 0.  0.
<mgrwt>
<rscale>  0 0.81467735E+03</rscale>
<asrwt>0</asrwt>
<pdfrwt beam="1">  1        2 0.34691243E+00 0.89199159E+03</pdfrwt>
<pdfrwt beam="2">  1       -2 0.62795901E-01 0.89199159E+03</pdfrwt>
<totfact> 0.11536385E+01</totfact>
</mgrwt>
</event>
<event>
 4    5  0.2295023E-007  0.1127379E+04  0.7818608E-02  0.9231168E-01
         -2   -1    0    0    0  501 -0.00000000000E+00  0.00000000000E+00  0.11087641685E+04  0.11087641685E+04  0.25500000000E-02 0.  1.
          2   -1    0    0  501    0  0.00000000000E+00 -0.00000000000E+00 -0.18147037692E+04  0.18147037692E+04  0.25500000000E-02 0. -1.
    8880023    1    1    2    0    0 -0.77777467696E+03 -0.48191212866E+03  0.63424522184E+03  0.12935416327E+04  0.65864270000E+03 0.  1.
    8880022    1    1    2    0    0  0.77777467696E+03  0.48191212866E+03 -0.13401848226E+04  0.16299263050E+04  0.15294330000E+03 0.  0.
<mgrwt>
<rscale>  0 0.10737429E+04</rscale>
<asrwt>0</asrwt>
<pdfrwt beam="1">  1        2 0.27918520E+00 0.11273788E+04</pdfrwt>
<pdfrwt beam="2">  1       -2 0.17057910E+00 0.11273788E+04</pdfrwt>
<totfact> 0.17509684E+00</totfact>
</mgrwt>
</event>
<event>
 4    5  0.2974183E-007  0.7639619E+03  0.7818608E-02  0.9794956E-01
          2   -1    0    0  501    0  0.00000000000E+00  0.00000000000E+00  0.20187379252E+04  0.20187379252E+04  0.25500000000E-02 0. -1.
         -2   -1    0    0    0  501 -0.00000000000E+00 -0.00000000000E+00 -0.25924420577E+04  0.25924420577E+04  0.25500000000E-02 0.  1.
    8880023    1    1    2    0    0 -0.28623771246E+03  0.26056782931E+03 -0.25136040336E+04  0.26271359055E+04  0.65864270000E+03 0.  1.
    8880022    1    1    2    0    0  0.28623771246E+03 -0.26056782931E+03  0.19398999011E+04  0.19840440774E+04  0.15294330000E+03 0.  0.
<mgrwt>
<rscale>  0 0.65633916E+03</rscale>
<asrwt>0</asrwt>
<pdfrwt beam="1">  1        2 0.31057506E+00 0.76396193E+03</pdfrwt>
<pdfrwt beam="2">  1       -2 0.39883724E+00 0.76396193E+03</pdfrwt>
<totfact> 0.53470116E-02</totfact>
</mgrwt>
</event>
<event>
 4    5  0.2295023E-007  0.7816542E+03  0.7818608E-02  0.9751966E-01
          2   -1    0    0  501    0  0.00000000000E+00  0.00000000000E+00  0.17499149509E+04  0.17499149509E+04  0.25500000000E-02 0. -1.
         -2   -1    0    0    0  501 -0.00000000000E+00 -0.00000000000E+00 -0.50110095773E+03  0.50110095773E+03  0.25500000000E-02 0.  1.
    8880023    1    1    2    0    0 -0.33744109935E+03 -0.25160789228E+03 -0.13794753824E+03  0.79373342916E+03  0.65864270000E+03 0.  1.
    8880022    1    1    2    0    0  0.33744109935E+03  0.25160789228E+03  0.13867615314E+04  0.14572824795E+04  0.15294330000E+03 0.  0.
<mgrwt>
<rscale>  0 0.68005305E+03</rscale>
<asrwt>0</asrwt>
<pdfrwt beam="1">  1        2 0.26921769E+00 0.78165416E+03</pdfrwt>
<pdfrwt beam="2">  1       -2 0.77092453E-01 0.78165416E+03</pdfrwt>
<totfact> 0.14161780E+01</totfact>
</mgrwt>
</event>
<event>
 4    5  0.2295023E-007  0.7414619E+03  0.7818608E-02  0.9855709E-01
          2   -1    0    0  501    0  0.00000000000E+00  0.00000000000E+00  0.92068208840E+03  0.92068208840E+03  0.25500000000E-02 0. -1.
         -2   -1    0    0    0  501 -0.00000000000E+00 -0.00000000000E+00 -0.42207470389E+03  0.42207470389E+03  0.25500000000E-02 0.  1.
    8880023    1    1    2    0    0  0.34052055502E+03 -0.11424234260E+01  0.27886464991E+02  0.74198612839E+03  0.65864270000E+03 0.  1.
    8880022    1    1    2    0    0 -0.34052055502E+03  0.11424234260E+01  0.47072091952E+03  0.60077066391E+03  0.15294330000E+03 0.  0.
<mgrwt>
<rscale>  0 0.62456683E+03</rscale>
<asrwt>0</asrwt>
<pdfrwt beam="1">  1        2 0.14164340E+00 0.74146191E+03</pdfrwt>
<pdfrwt beam="2">  1       -2 0.64934570E-01 0.74146191E+03</pdfrwt>
<totfact> 0.63057118E+01</totfact>
</mgrwt>
</event>
<event>
 4    5  0.2295023E-007  0.1539485E+04  0.7818608E-02  0.8882246E-01
          2   -1    0    0  501    0  0.00000000000E+00  0.00000000000E+00  0.43626859426E+04  0.43626859426E+04  0.25500000000E-02 0. -1.
         -2   -1    0    0    0  501 -0.00000000000E+00 -0.00000000000E+00 -0.10424691647E+04  0.10424691647E+04  0.25500000000E-02 0.  1.
    8880023    1    1    2    0    0  0.60539445057E+03 -0.12528776083E+04 -0.25973681110E+03  0.15612425050E+04  0.65864270000E+03 0.  0.
    8880022    1    1    2    0    0 -0.60539445057E+03  0.12528776083E+04  0.35799535890E+04  0.38439126023E+04  0.15294330000E+03 0.  0.
<mgrwt>
<rscale>  0 0.15033236E+04</rscale>
<asrwt>0</asrwt>
<pdfrwt beam="1">  1        2 0.67118245E+00 0.15394853E+04</pdfrwt>
<pdfrwt beam="2">  1       -2 0.16037987E+00 0.15394853E+04</pdfrwt>
<totfact> 0.39990292E-02</totfact>
</mgrwt>
</event>
<event>
 4    5  0.2295023E-007  0.1774492E+04  0.7818608E-02  0.8736779E-01
          2   -1    0    0  501    0  0.00000000000E+00  0.00000000000E+00  0.19421835101E+04  0.19421835101E+04  0.25500000000E-02 0. -1.
         -2   -1    0    0    0  501 -0.00000000000E+00 -0.00000000000E+00 -0.16438054240E+04  0.16438054240E+04  0.25500000000E-02 0.  1.
    8880023    1    1    2    0    0  0.11832935489E+04  0.11466597816E+04  0.65798255005E+03  0.18925547602E+04  0.65864270000E+03 0.  0.
    8880022    1    1    2    0    0 -0.11832935489E+04 -0.11466597816E+04 -0.35960446397E+03  0.16934341739E+04  0.15294330000E+03 0.  0.
<mgrwt>
<rscale>  0 0.17437843E+04</rscale>
<asrwt>0</asrwt>
<pdfrwt beam="1">  1        2 0.29879746E+00 0.17744922E+04</pdfrwt>
<pdfrwt beam="2">  1       -2 0.25289314E+00 0.17744922E+04</pdfrwt>
<totfact> 0.40492327E-01</totfact>
</mgrwt>
</event>
<event>
 4    5  0.2295023E-007  0.6885447E+03  0.7818608E-02  0.1004852E+00
          2   -1    0    0  501    0  0.00000000000E+00  0.00000000000E+00  0.21577294695E+04  0.21577294696E+04  0.25500000000E-02 0. -1.
         -2   -1    0    0    0  501 -0.00000000000E+00 -0.00000000000E+00 -0.22842394283E+03  0.22842394284E+03  0.25500000000E-02 0.  1.
    8880023    1    1    2    0    0 -0.19882395436E+03  0.27433697210E+02  0.32369797266E+03  0.76083779896E+03  0.65864270000E+03 0.  1.
    8880022    1    1    2    0    0  0.19882395436E+03 -0.27433697210E+02  0.16056075541E+04  0.16253156134E+04  0.15294330000E+03 0.  0.
<mgrwt>
<rscale>  0 0.53572931E+03</rscale>
<asrwt>0</asrwt>
<pdfrwt beam="1">  1        2 0.33195838E+00 0.68854468E+03</pdfrwt>
<pdfrwt beam="2">  1       -2 0.35142145E-01 0.68854468E+03</pdfrwt>
<totfact> 0.43213256E+01</totfact>
</mgrwt>
</event>
<event>
 4    5  0.2295023E-007  0.1821462E+04  0.7818608E-02  0.8710757E-01
         -2   -1    0    0    0  501 -0.00000000000E+00  0.00000000000E+00  0.22626441405E+04  0.22626441405E+04  0.25500000000E-02 0.  1.
          2   -1    0    0  501    0  0.00000000000E+00 -0.00000000000E+00 -0.16360202380E+04  0.16360202380E+04  0.25500000000E-02 0. -1.
    8880023    1    1    2    0    0 -0.14363528707E+04  0.90598196979E+03  0.11015874878E+04  0.21286658024E+04  0.65864270000E+03 0.  0.
    8880022    1    1    2    0    0  0.14363528707E+04 -0.90598196979E+03 -0.47496358528E+03  0.17699985760E+04  0.15294330000E+03 0.  0.
<mgrwt>
<rscale>  0 0.17916425E+04</rscale>
<asrwt>0</asrwt>
<pdfrwt beam="1">  1        2 0.25169542E+00 0.18214618E+04</pdfrwt>
<pdfrwt beam="2">  1       -2 0.34809910E+00 0.18214618E+04</pdfrwt>
<totfact> 0.15474649E-01</totfact>
</mgrwt>
</event>
<event>
 4    5  0.2295023E-007  0.1847987E+04  0.7818608E-02  0.8696446E-01
          2   -1    0    0  501    0  0.00000000000E+00  0.00000000000E+00  0.34106356858E+04  0.34106356858E+04  0.25500000000E-02 0. -1.
         -2   -1    0    0    0  501 -0.00000000000E+00 -0.00000000000E+00 -0.99747385650E+03  0.99747385650E+03  0.25500000000E-02 0.  1.
    8880023    1    1    2    0    0  0.21080406414E+03 -0.17137112809E+04  0.17710156809E+04  0.25595998625E+04  0.65864270000E+03 0.  0.
    8880022    1    1    2    0    0 -0.21080406414E+03  0.17137112809E+04  0.64214614839E+03  0.18485096798E+04  0.15294330000E+03 0.  0.
<mgrwt>
<rscale>  0 0.18186458E+04</rscale>
<asrwt>0</asrwt>
<pdfrwt beam="1">  1        2 0.52471319E+00 0.18479867E+04</pdfrwt>
<pdfrwt beam="2">  1       -2 0.15345751E+00 0.18479867E+04</pdfrwt>
<totfact> 0.24194983E-01</totfact>
</mgrwt>
</event>
<event>
 4    5  0.2295023E-007  0.1058320E+04  0.7818608E-02  0.9308946E-01
         -2   -1    0    0    0  501 -0.00000000000E+00  0.00000000000E+00  0.93661266252E+03  0.93661266252E+03  0.25500000000E-02 0.  1.
          2   -1    0    0  501    0  0.00000000000E+00 -0.00000000000E+00 -0.10475815083E+04  0.10475815083E+04  0.25500000000E-02 0. -1.
    8880023    1    1    2    0    0  0.51569696616E+03 -0.64829598016E+03  0.21677389438E+03  0.10802926300E+04  0.65864270000E+03 0.  0.
    8880022    1    1    2    0    0 -0.51569696616E+03  0.64829598016E+03 -0.32774274013E+03  0.90390154084E+03  0.15294330000E+03 0.  0.
<mgrwt>
<rscale>  0 0.99963440E+03</rscale>
<asrwt>0</asrwt>
<pdfrwt beam="1">  1        2 0.16116639E+00 0.10583200E+04</pdfrwt>
<pdfrwt beam="2">  1       -2 0.14409426E+00 0.10583200E+04</pdfrwt>
<totfact> 0.77165209E+00</totfact>
</mgrwt>
</event>
<event>
 4    5  0.2295023E-007  0.8223717E+03  0.7818608E-02  0.9664361E-01
         -2   -1    0    0    0  501 -0.00000000000E+00  0.00000000000E+00  0.52667388835E+03  0.52667388835E+03  0.25500000000E-02 0.  1.
          2   -1    0    0  501    0  0.00000000000E+00 -0.00000000000E+00 -0.14237732561E+04  0.14237732561E+04  0.25500000000E-02 0. -1.
    8880023    1    1    2    0    0 -0.19216587602E+03  0.45338417987E+03  0.99487717235E+02  0.82836764218E+03  0.65864270000E+03 0.  0.
    8880022    1    1    2    0    0  0.19216587602E+03 -0.45338417987E+03 -0.99658708501E+03  0.11220795023E+04  0.15294330000E+03 0.  0.
<mgrwt>
<rscale>  0 0.73178940E+03</rscale>
<asrwt>0</asrwt>
<pdfrwt beam="1">  1        2 0.21904204E+00 0.82237166E+03</pdfrwt>
<pdfrwt beam="2">  1       -2 0.81026753E-01 0.82237166E+03</pdfrwt>
<totfact> 0.19104562E+01</totfact>
</mgrwt>
</event>
<event>
 4    5  0.2295023E-007  0.9951350E+03  0.7818608E-02  0.9387950E-01
         -2   -1    0    0    0  501 -0.00000000000E+00  0.00000000000E+00  0.86897316836E+03  0.86897316836E+03  0.25500000000E-02 0.  1.
          2   -1    0    0  501    0  0.00000000000E+00 -0.00000000000E+00 -0.16118213239E+04  0.16118213239E+04  0.25500000000E-02 0. -1.
    8880023    1    1    2    0    0  0.55358410824E+03 -0.50002811729E+03  0.42866987554E+03  0.10835365944E+04  0.65864270000E+03 0.  0.
    8880022    1    1    2    0    0 -0.55358410824E+03  0.50002811729E+03 -0.11715180311E+04  0.13972578979E+04  0.15294330000E+03 0.  0.
<mgrwt>
<rscale>  0 0.93073986E+03</rscale>
<asrwt>0</asrwt>
<pdfrwt beam="1">  1        2 0.24797251E+00 0.99513501E+03</pdfrwt>
<pdfrwt beam="2">  1       -2 0.13368818E+00 0.99513501E+03</pdfrwt>
<totfact> 0.44188135E+00</totfact>
</mgrwt>
</event>
<event>
 4    5  0.2295023E-007  0.7949507E+03  0.7818608E-02  0.9721822E-01
         -2   -1    0    0    0  501 -0.00000000000E+00  0.00000000000E+00  0.80075170563E+03  0.80075170563E+03  0.25500000000E-02 0.  1.
          2   -1    0    0  501    0  0.00000000000E+00 -0.00000000000E+00 -0.21698719422E+04  0.21698719422E+04  0.25500000000E-02 0. -1.
    8880023    1    1    2    0    0  0.42572485824E+03  0.12997969723E+03  0.56807873492E+03  0.97706705601E+03  0.65864270000E+03 0.  1.
    8880022    1    1    2    0    0 -0.42572485824E+03 -0.12997969723E+03 -0.19371989715E+04  0.19935565918E+04  0.15294330000E+03 0.  0.
<mgrwt>
<rscale>  0 0.69732257E+03</rscale>
<asrwt>0</asrwt>
<pdfrwt beam="1">  1        2 0.33382645E+00 0.79495068E+03</pdfrwt>
<pdfrwt beam="2">  1       -2 0.12319257E+00 0.79495068E+03</pdfrwt>
<totfact> 0.27580546E+00</totfact>
</mgrwt>
</event>
<event>
 4    5  0.2295023E-007  0.6893751E+03  0.7818608E-02  0.1004451E+00
         -2   -1    0    0    0  501 -0.00000000000E+00  0.00000000000E+00  0.29780929215E+03  0.29780929217E+03  0.25500000000E-02 0.  1.
          2   -1    0    0  501    0  0.00000000000E+00 -0.00000000000E+00 -0.87160422469E+03  0.87160422469E+03  0.25500000000E-02 0. -1.
    8880023    1    1    2    0    0 -0.17586114389E+03 -0.10247292198E+03 -0.20119023066E+03  0.71813338374E+03  0.65864270000E+03 0.  0.
    8880022    1    1    2    0    0  0.17586114389E+03  0.10247292198E+03 -0.37260470187E+03  0.45128013312E+03  0.15294330000E+03 0.  0.
<mgrwt>
<rscale>  0 0.53740896E+03</rscale>
<asrwt>0</asrwt>
<pdfrwt beam="1">  1        2 0.13409296E+00 0.68937511E+03</pdfrwt>
<pdfrwt beam="2">  1       -2 0.45816815E-01 0.68937511E+03</pdfrwt>
<totfact> 0.14063357E+02</totfact>
</mgrwt>
</event>
<event>
 4    5  0.2295023E-007  0.9392528E+03  0.7818608E-02  0.9465749E-01
         -2   -1    0    0    0  501 -0.00000000000E+00  0.00000000000E+00  0.56732792507E+03  0.56732792507E+03  0.25500000000E-02 0.  1.
          2   -1    0    0  501    0  0.00000000000E+00 -0.00000000000E+00 -0.21020095033E+04  0.21020095033E+04  0.25500000000E-02 0. -1.
    8880023    1    1    2    0    0 -0.66757836675E+03  0.52198785604E+02  0.51667720255E+02  0.94067281695E+03  0.65864270000E+03 0. -1.
    8880022    1    1    2    0    0  0.66757836675E+03 -0.52198785604E+02 -0.15863492985E+04  0.17286646115E+04  0.15294330000E+03 0.  0.
<mgrwt>
<rscale>  0 0.86856833E+03</rscale>
<asrwt>0</asrwt>
<pdfrwt beam="1">  1        2 0.32338607E+00 0.93925279E+03</pdfrwt>
<pdfrwt beam="2">  1       -2 0.87281220E-01 0.93925279E+03</pdfrwt>
<totfact> 0.67167135E+00</totfact>
</mgrwt>
</event>
<event>
 4    5  0.2295023E-007  0.7966996E+03  0.7818608E-02  0.9717978E-01
          2   -1    0    0  501    0  0.00000000000E+00  0.00000000000E+00  0.10392945626E+04  0.10392945626E+04  0.25500000000E-02 0. -1.
         -2   -1    0    0    0  501 -0.00000000000E+00 -0.00000000000E+00 -0.12489363262E+04  0.12489363262E+04  0.25500000000E-02 0.  1.
    8880023    1    1    2    0    0  0.11353965290E+03 -0.43362286328E+03 -0.10533315033E+04  0.13206958403E+04  0.65864270000E+03 0.  1.
    8880022    1    1    2    0    0 -0.11353965290E+03  0.43362286328E+03  0.84368973971E+03  0.96753504858E+03  0.15294330000E+03 0.  0.
<mgrwt>
<rscale>  0 0.69956398E+03</rscale>
<asrwt>0</asrwt>
<pdfrwt beam="1">  1        2 0.15989147E+00 0.79669960E+03</pdfrwt>
<pdfrwt beam="2">  1       -2 0.19214405E+00 0.79669960E+03</pdfrwt>
<totfact> 0.36249921E+00</totfact>
</mgrwt>
</event>
<event>
 4    5  0.2295023E-007  0.8990804E+03  0.7818608E-02  0.9527509E-01
         -2   -1    0    0    0  501 -0.00000000000E+00  0.00000000000E+00  0.22088634077E+03  0.22088634078E+03  0.25500000000E-02 0.  1.
          2   -1    0    0  501    0  0.00000000000E+00 -0.00000000000E+00 -0.33601210446E+04  0.33601210446E+04  0.25500000000E-02 0. -1.
    8880023    1    1    2    0    0 -0.45673650785E+02  0.61028625441E+03 -0.97299338603E+03  0.13247874283E+04  0.65864270000E+03 0. -1.
    8880022    1    1    2    0    0  0.45673650785E+02 -0.61028625441E+03 -0.21662413178E+04  0.22562199571E+04  0.15294330000E+03 0.  0.
<mgrwt>
<rscale>  0 0.82285694E+03</rscale>
<asrwt>0</asrwt>
<pdfrwt beam="1">  1        2 0.51694166E+00 0.89908042E+03</pdfrwt>
<pdfrwt beam="2">  1       -2 0.33982516E-01 0.89908042E+03</pdfrwt>
<totfact> 0.86204289E+00</totfact>
</mgrwt>
</event>
<event>
 4    5  0.2596547E-007  0.1131619E+04  0.7818608E-02  0.9226643E-01
         -2   -1    0    0    0  501 -0.00000000000E+00  0.00000000000E+00  0.22759176871E+04  0.22759176871E+04  0.25500000000E-02 0.  1.
          2   -1    0    0  501    0  0.00000000000E+00 -0.00000000000E+00 -0.13931881202E+04  0.13931881202E+04  0.25500000000E-02 0. -1.
    8880023    1    1    2    0    0  0.75783450300E+03  0.52195594363E+03  0.19481919763E+04  0.22530009596E+04  0.65864270000E+03 0.  0.
    8880022    1    1    2    0    0 -0.75783450300E+03 -0.52195594363E+03 -0.10654624094E+04  0.14161048477E+04  0.15294330000E+03 0.  0.
<mgrwt>
<rscale>  0 0.10782612E+04</rscale>
<asrwt>0</asrwt>
<pdfrwt beam="1">  1        2 0.21433664E+00 0.11316189E+04</pdfrwt>
<pdfrwt beam="2">  1       -2 0.35014118E+00 0.11316189E+04</pdfrwt>
<totfact> 0.22455232E-01</totfact>
</mgrwt>
</event>
<event>
 4    5  0.2295023E-007  0.1176069E+04  0.7818608E-02  0.9180744E-01
         -2   -1    0    0    0  501 -0.00000000000E+00  0.00000000000E+00  0.11801815537E+04  0.11801815538E+04  0.25500000000E-02 0.  1.
          2   -1    0    0  501    0  0.00000000000E+00 -0.00000000000E+00 -0.21450679821E+04  0.21450679821E+04  0.25500000000E-02 0. -1.
    8880023    1    1    2    0    0  0.55888701013E+03  0.79810541852E+03  0.71563873334E+03  0.13766902164E+04  0.65864270000E+03 0.  1.
    8880022    1    1    2    0    0 -0.55888701013E+03 -0.79810541852E+03 -0.16805251617E+04  0.19485593194E+04  0.15294330000E+03 0.  0.
<mgrwt>
<rscale>  0 0.11254414E+04</rscale>
<asrwt>0</asrwt>
<pdfrwt beam="1">  1        2 0.33001046E+00 0.11760685E+04</pdfrwt>
<pdfrwt beam="2">  1       -2 0.18156639E+00 0.11760685E+04</pdfrwt>
<totfact> 0.95668781E-01</totfact>
</mgrwt>
</event>
<event>
 4    5  0.2295023E-007  0.1868643E+04  0.7818608E-02  0.8685487E-01
          2   -1    0    0  501    0  0.00000000000E+00  0.00000000000E+00  0.96093278520E+03  0.96093278521E+03  0.25500000000E-02 0. -1.
         -2   -1    0    0    0  501 -0.00000000000E+00 -0.00000000000E+00 -0.38855572946E+04  0.38855572946E+04  0.25500000000E-02 0.  1.
    8880023    1    1    2    0    0 -0.17137031714E+04 -0.34819331288E+03 -0.23437207909E+04  0.29974746862E+04  0.65864270000E+03 0.  0.
    8880022    1    1    2    0    0  0.17137031714E+04  0.34819331288E+03 -0.58090371857E+03  0.18490153936E+04  0.15294330000E+03 0.  0.
<mgrwt>
<rscale>  0 0.18396637E+04</rscale>
<asrwt>0</asrwt>
<pdfrwt beam="1">  1        2 0.14783581E+00 0.18686432E+04</pdfrwt>
<pdfrwt beam="2">  1       -2 0.59777804E+00 0.18686432E+04</pdfrwt>
<totfact> 0.12276181E-02</totfact>
</mgrwt>
</event>
<event>
 4    5  0.2295023E-007  0.9183599E+03  0.7818608E-02  0.9497178E-01
          2   -1    0    0  501    0  0.00000000000E+00  0.00000000000E+00  0.11245404580E+04  0.11245404580E+04  0.25500000000E-02 0. -1.
         -2   -1    0    0    0  501 -0.00000000000E+00 -0.00000000000E+00 -0.14085398342E+04  0.14085398342E+04  0.25500000000E-02 0.  1.
    8880023    1    1    2    0    0  0.30106761635E+03 -0.56474153435E+03 -0.11333158291E+04  0.14586945140E+04  0.65864270000E+03 0.  1.
    8880022    1    1    2    0    0 -0.30106761635E+03  0.56474153435E+03  0.84931645293E+03  0.10743857782E+04  0.15294330000E+03 0.  0.
<mgrwt>
<rscale>  0 0.84492168E+03</rscale>
<asrwt>0</asrwt>
<pdfrwt beam="1">  1        2 0.17300622E+00 0.91835991E+03</pdfrwt>
<pdfrwt beam="2">  1       -2 0.21669844E+00 0.91835991E+03</pdfrwt>
<totfact> 0.21906200E+00</totfact>
</mgrwt>
</event>
<event>
 4    5  0.2295023E-007  0.1475350E+04  0.7818608E-02  0.8927241E-01
          2   -1    0    0  501    0  0.00000000000E+00  0.00000000000E+00  0.30900112236E+04  0.30900112236E+04  0.25500000000E-02 0. -1.
         -2   -1    0    0    0  501 -0.00000000000E+00 -0.00000000000E+00 -0.66217163382E+03  0.66217163382E+03  0.25500000000E-02 0.  1.
    8880023    1    1    2    0    0  0.32321711857E+03 -0.12799913526E+04  0.90425681312E+03  0.17304154873E+04  0.65864270000E+03 0.  0.
    8880022    1    1    2    0    0 -0.32321711857E+03  0.12799913526E+04  0.15235827767E+04  0.20217673701E+04  0.15294330000E+03 0.  0.
<mgrwt>
<rscale>  0 0.14373166E+04</rscale>
<asrwt>0</asrwt>
<pdfrwt beam="1">  1        2 0.47538635E+00 0.14753499E+04</pdfrwt>
<pdfrwt beam="2">  1       -2 0.10187256E+00 0.14753499E+04</pdfrwt>
<totfact> 0.11580490E+00</totfact>
</mgrwt>
</event>
<event>
 4    5  0.2295023E-007  0.1116952E+04  0.7818608E-02  0.9242413E-01
         -2   -1    0    0    0  501 -0.00000000000E+00  0.00000000000E+00  0.14771506376E+04  0.14771506376E+04  0.25500000000E-02 0.  1.
          2   -1    0    0  501    0  0.00000000000E+00 -0.00000000000E+00 -0.17228343514E+04  0.17228343514E+04  0.25500000000E-02 0. -1.
    8880023    1    1    2    0    0 -0.42524682869E+02 -0.90109028624E+03  0.11032957787E+04  0.15699821127E+04  0.65864270000E+03 0.  0.
    8880022    1    1    2    0    0  0.42524682869E+02  0.90109028624E+03 -0.13489794925E+04  0.16300028763E+04  0.15294330000E+03 0.  0.
<mgrwt>
<rscale>  0 0.10626182E+04</rscale>
<asrwt>0</asrwt>
<pdfrwt beam="1">  1        2 0.26505144E+00 0.11169522E+04</pdfrwt>
<pdfrwt beam="2">  1       -2 0.22725394E+00 0.11169522E+04</pdfrwt>
<totfact> 0.83128129E-01</totfact>
</mgrwt>
</event>
<event>
 4    5  0.2295023E-007  0.1056931E+04  0.7818608E-02  0.9310596E-01
         -2   -1    0    0    0  501 -0.00000000000E+00  0.00000000000E+00  0.66076869246E+03  0.66076869247E+03  0.25500000000E-02 0.  1.
          2   -1    0    0  501    0  0.00000000000E+00 -0.00000000000E+00 -0.19153009648E+04  0.19153009648E+04  0.25500000000E-02 0. -1.
    8880023    1    1    2    0    0  0.74516772954E+03 -0.35779496135E+03  0.10747731372E+02  0.10569852882E+04  0.65864270000E+03 0.  0.
    8880022    1    1    2    0    0 -0.74516772954E+03  0.35779496135E+03 -0.12652800037E+04  0.15190843691E+04  0.15294330000E+03 0.  0.
<mgrwt>
<rscale>  0 0.99813207E+03</rscale>
<asrwt>0</asrwt>
<pdfrwt beam="1">  1        2 0.29466169E+00 0.10569306E+04</pdfrwt>
<pdfrwt beam="2">  1       -2 0.10165672E+00 0.10569306E+04</pdfrwt>
<totfact> 0.58721312E+00</totfact>
</mgrwt>
</event>
<event>
 4    5  0.2295023E-007  0.1281090E+04  0.7818608E-02  0.9082064E-01
          2   -1    0    0  501    0  0.00000000000E+00  0.00000000000E+00  0.10727065775E+04  0.10727065776E+04  0.25500000000E-02 0. -1.
         -2   -1    0    0    0  501 -0.00000000000E+00 -0.00000000000E+00 -0.15053916094E+04  0.15053916094E+04  0.25500000000E-02 0.  1.
    8880023    1    1    2    0    0  0.64864179879E+03 -0.88693017653E+03 -0.66684203420E+03  0.14442540725E+04  0.65864270000E+03 0.  0.
    8880022    1    1    2    0    0 -0.64864179879E+03  0.88693017653E+03  0.23415700231E+03  0.11338441145E+04  0.15294330000E+03 0.  0.
<mgrwt>
<rscale>  0 0.12358250E+04</rscale>
<asrwt>0</asrwt>
<pdfrwt beam="1">  1        2 0.16503178E+00 0.12810900E+04</pdfrwt>
<pdfrwt beam="2">  1       -2 0.23159871E+00 0.12810900E+04</pdfrwt>
<totfact> 0.18261995E+00</totfact>
</mgrwt>
</event>
<event>
 4    5  0.2295023E-007  0.2015776E+04  0.7818608E-02  0.8611722E-01
          2   -1    0    0  501    0  0.00000000000E+00  0.00000000000E+00  0.18167630292E+04  0.18167630292E+04  0.25500000000E-02 0. -1.
         -2   -1    0    0    0  501 -0.00000000000E+00 -0.00000000000E+00 -0.23989692943E+04  0.23989692943E+04  0.25500000000E-02 0.  1.
    8880023    1    1    2    0    0 -0.18044882551E+04 -0.61103670584E+03 -0.10137791704E+04  0.22563470769E+04  0.65864270000E+03 0.  0.
    8880022    1    1    2    0    0  0.18044882551E+04  0.61103670584E+03  0.43157290527E+03  0.19593852466E+04  0.15294330000E+03 0.  0.
<mgrwt>
<rscale>  0 0.19891246E+04</rscale>
<asrwt>0</asrwt>
<pdfrwt beam="1">  1        2 0.27950200E+00 0.20157763E+04</pdfrwt>
<pdfrwt beam="2">  1       -2 0.36907220E+00 0.20157763E+04</pdfrwt>
<totfact> 0.88357803E-02</totfact>
</mgrwt>
</event>
<event>
 4    5  0.2295023E-007  0.1052891E+04  0.7818608E-02  0.9315414E-01
         -2   -1    0    0    0  501 -0.00000000000E+00  0.00000000000E+00  0.14093412989E+04  0.14093412989E+04  0.25500000000E-02 0.  1.
          2   -1    0    0  501    0  0.00000000000E+00 -0.00000000000E+00 -0.15000911047E+04  0.15000911047E+04  0.25500000000E-02 0. -1.
    8880023    1    1    2    0    0 -0.60922438932E+03  0.55101244945E+03  0.10555702432E+04  0.14909083877E+04  0.65864270000E+03 0.  0.
    8880022    1    1    2    0    0  0.60922438932E+03 -0.55101244945E+03 -0.11463200490E+04  0.14185240159E+04  0.15294330000E+03 0.  0.
<mgrwt>
<rscale>  0 0.99376103E+03</rscale>
<asrwt>0</asrwt>
<pdfrwt beam="1">  1        2 0.23078325E+00 0.10528909E+04</pdfrwt>
<pdfrwt beam="2">  1       -2 0.21682174E+00 0.10528909E+04</pdfrwt>
<totfact> 0.12980477E+00</totfact>
</mgrwt>
</event>
<event>
 4    5  0.2295023E-007  0.1360278E+04  0.7818608E-02  0.9015179E-01
          2   -1    0    0  501    0  0.00000000000E+00  0.00000000000E+00  0.28605259974E+04  0.28605259974E+04  0.25500000000E-02 0. -1.
         -2   -1    0    0    0  501 -0.00000000000E+00 -0.00000000000E+00 -0.95933195420E+03  0.95933195420E+03  0.25500000000E-02 0.  1.
    8880023    1    1    2    0    0 -0.11598632281E+04  0.26695022054E+03 -0.22466705071E+03  0.13787061391E+04  0.65864270000E+03 0.  0.
    8880022    1    1    2    0    0  0.11598632281E+04 -0.26695022054E+03  0.21258610939E+04  0.24411518125E+04  0.15294330000E+03 0.  0.
<mgrwt>
<rscale>  0 0.13182980E+04</rscale>
<asrwt>0</asrwt>
<pdfrwt beam="1">  1        2 0.44008091E+00 0.13602777E+04</pdfrwt>
<pdfrwt beam="2">  1       -2 0.14758954E+00 0.13602777E+04</pdfrwt>
<totfact> 0.63950903E-01</totfact>
</mgrwt>
</event>
<event>
 4    5  0.4995814E-007  0.1599730E+04  0.7818608E-02  0.8842245E-01
          2   -1    0    0  501    0  0.00000000000E+00  0.00000000000E+00  0.25977342075E+04  0.25977342075E+04  0.25500000000E-02 0. -1.
         -2   -1    0    0    0  501 -0.00000000000E+00 -0.00000000000E+00 -0.22845031298E+04  0.22845031298E+04  0.25500000000E-02 0.  1.
    8880023    1    1    2    0    0 -0.93440390980E+03  0.11190248158E+04 -0.17373011288E+04  0.23616419338E+04  0.65864270000E+03 0.  0.
    8880022    1    1    2    0    0  0.93440390980E+03 -0.11190248158E+04  0.20505322065E+04  0.25205954035E+04  0.15294330000E+03 0.  0.
<mgrwt>
<rscale>  0 0.15651557E+04</rscale>
<asrwt>0</asrwt>
<pdfrwt beam="1">  1        2 0.39965141E+00 0.15997304E+04</pdfrwt>
<pdfrwt beam="2">  1       -2 0.35146202E+00 0.15997304E+04</pdfrwt>
<totfact> 0.43098254E-02</totfact>
</mgrwt>
</event>
<event>
 4    5  0.2295023E-007  0.7978332E+03  0.7818608E-02  0.9715501E-01
         -2   -1    0    0    0  501 -0.00000000000E+00  0.00000000000E+00  0.53023466557E+03  0.53023466557E+03  0.25500000000E-02 0.  1.
          2   -1    0    0  501    0  0.00000000000E+00 -0.00000000000E+00 -0.22713696020E+04  0.22713696020E+04  0.25500000000E-02 0. -1.
    8880023    1    1    2    0    0  0.16417995083E+03  0.41925237473E+03  0.18386182930E+03  0.81874476396E+03  0.65864270000E+03 0.  0.
    8880022    1    1    2    0    0 -0.16417995083E+03 -0.41925237473E+03 -0.19249967657E+04  0.19828595036E+04  0.15294330000E+03 0.  0.
<mgrwt>
<rscale>  0 0.70101333E+03</rscale>
<asrwt>0</asrwt>
<pdfrwt beam="1">  1        2 0.34944147E+00 0.79783320E+03</pdfrwt>
<pdfrwt beam="2">  1       -2 0.81574565E-01 0.79783320E+03</pdfrwt>
<totfact> 0.64426639E+00</totfact>
</mgrwt>
</event>
<event>
 4    5  0.2295023E-007  0.7987774E+03  0.7818608E-02  0.9713446E-01
          2   -1    0    0  501    0  0.00000000000E+00  0.00000000000E+00  0.22773936923E+04  0.22773936923E+04  0.25500000000E-02 0. -1.
         -2   -1    0    0    0  501 -0.00000000000E+00 -0.00000000000E+00 -0.93764744294E+03  0.93764744295E+03  0.25500000000E-02 0.  1.
    8880023    1    1    2    0    0 -0.42081056362E+03  0.16478351480E+03 -0.73540160942E+03  0.10857535957E+04  0.65864270000E+03 0.  1.
    8880022    1    1    2    0    0  0.42081056362E+03 -0.16478351480E+03  0.20751478588E+04  0.21292875395E+04  0.15294330000E+03 0.  0.
<mgrwt>
<rscale>  0 0.70221847E+03</rscale>
<asrwt>0</asrwt>
<pdfrwt beam="1">  1        2 0.35036826E+00 0.79877741E+03</pdfrwt>
<pdfrwt beam="2">  1       -2 0.14425345E+00 0.79877741E+03</pdfrwt>
<totfact> 0.16060824E+00</totfact>
</mgrwt>
</event>
<event>
 4    5  0.2295023E-007  0.7817712E+03  0.7818608E-02  0.9751693E-01
          2   -1    0    0  501    0  0.00000000000E+00  0.00000000000E+00  0.30631239543E+04  0.30631239543E+04  0.25500000000E-02 0. -1.
         -2   -1    0    0    0  501 -0.00000000000E+00 -0.00000000000E+00 -0.17602064329E+03  0.17602064331E+03  0.25500000000E-02 0.  1.
    8880023    1    1    2    0    0  0.13913419941E+02 -0.42090664525E+03  0.85624380888E+03  0.11594479953E+04  0.65864270000E+03 0.  1.
    8880022    1    1    2    0    0 -0.13913419941E+02  0.42090664525E+03  0.20308595022E+04  0.20796966024E+04  0.15294330000E+03 0.  0.
<mgrwt>
<rscale>  0 0.68020693E+03</rscale>
<asrwt>0</asrwt>
<pdfrwt beam="1">  1        2 0.47124984E+00 0.78177119E+03</pdfrwt>
<pdfrwt beam="2">  1       -2 0.27080099E-01 0.78177119E+03</pdfrwt>
<totfact> 0.20776469E+01</totfact>
</mgrwt>
</event>
<event>
 4    5  0.2295023E-007  0.7229769E+03  0.7818608E-02  0.9912639E-01
         -2   -1    0    0    0  501 -0.00000000000E+00  0.00000000000E+00  0.46826871309E+03  0.46826871310E+03  0.25500000000E-02 0.  1.
          2   -1    0    0  501    0  0.00000000000E+00 -0.00000000000E+00 -0.20556242808E+04  0.20556242808E+04  0.25500000000E-02 0. -1.
    8880023    1    1    2    0    0  0.79007451838E+02 -0.28747742798E+03  0.16352346360E+03  0.74123921811E+03  0.65864270000E+03 0.  1.
    8880022    1    1    2    0    0 -0.79007451838E+02  0.28747742798E+03 -0.17508790313E+04  0.17826537758E+04  0.15294330000E+03 0.  0.
<mgrwt>
<rscale>  0 0.59652649E+03</rscale>
<asrwt>0</asrwt>
<pdfrwt beam="1">  1        2 0.31624988E+00 0.72297694E+03</pdfrwt>
<pdfrwt beam="2">  1       -2 0.72041342E-01 0.72297694E+03</pdfrwt>
<totfact> 0.11301490E+01</totfact>
</mgrwt>
</event>
<event>
 4    5  0.2295023E-007  0.1072503E+04  0.7818608E-02  0.9292306E-01
          2   -1    0    0  501    0  0.00000000000E+00  0.00000000000E+00  0.89135479483E+03  0.89135479484E+03  0.25500000000E-02 0. -1.
         -2   -1    0    0    0  501 -0.00000000000E+00 -0.00000000000E+00 -0.16270920752E+04  0.16270920752E+04  0.25500000000E-02 0.  1.
    8880023    1    1    2    0    0 -0.80867369017E+03 -0.25000024394E+03 -0.11424551610E+04  0.15669930633E+04  0.65864270000E+03 0.  0.
    8880022    1    1    2    0    0  0.80867369017E+03  0.25000024394E+03  0.40671788057E+03  0.95145380683E+03  0.15294330000E+03 0.  0.
<mgrwt>
<rscale>  0 0.10149428E+04</rscale>
<asrwt>0</asrwt>
<pdfrwt beam="1">  1        2 0.13713151E+00 0.10725034E+04</pdfrwt>
<pdfrwt beam="2">  1       -2 0.25032186E+00 0.10725034E+04</pdfrwt>
<totfact> 0.18797591E+00</totfact>
</mgrwt>
</event>
<event>
 4    5  0.2295023E-007  0.9352462E+03  0.7818608E-02  0.9471667E-01
          2   -1    0    0  501    0  0.00000000000E+00  0.00000000000E+00  0.32753878525E+04  0.32753878525E+04  0.25500000000E-02 0. -1.
         -2   -1    0    0    0  501 -0.00000000000E+00 -0.00000000000E+00 -0.50301481232E+03  0.50301481233E+03  0.25500000000E-02 0.  1.
    8880023    1    1    2    0    0 -0.14893159367E+03  0.64706622895E+03  0.12151561427E+02  0.93532517925E+03  0.65864270000E+03 0.  0.
    8880022    1    1    2    0    0  0.14893159367E+03 -0.64706622895E+03  0.27602214788E+04  0.28430774856E+04  0.15294330000E+03 0.  0.
<mgrwt>
<rscale>  0 0.86405314E+03</rscale>
<asrwt>0</asrwt>
<pdfrwt beam="1">  1        2 0.50390583E+00 0.93524624E+03</pdfrwt>
<pdfrwt beam="2">  1       -2 0.77386894E-01 0.93524624E+03</pdfrwt>
<totfact> 0.17914459E+00</totfact>
</mgrwt>
</event>
<event>
 4    5  0.2295023E-007  0.8399989E+03  0.7818608E-02  0.9630182E-01
          2   -1    0    0  501    0  0.00000000000E+00  0.00000000000E+00  0.15300493935E+04  0.15300493935E+04  0.25500000000E-02 0. -1.
         -2   -1    0    0    0  501 -0.00000000000E+00 -0.00000000000E+00 -0.53549538944E+03  0.53549538945E+03  0.25500000000E-02 0.  1.
    8880023    1    1    2    0    0  0.35939486466E+03  0.37765499549E+03 -0.97666212584E+02  0.84565764923E+03  0.65864270000E+03 0.  1.
    8880022    1    1    2    0    0 -0.35939486466E+03 -0.37765499549E+03  0.10922202167E+04  0.12198871337E+04  0.15294330000E+03 0.  0.
<mgrwt>
<rscale>  0 0.75330324E+03</rscale>
<asrwt>0</asrwt>
<pdfrwt beam="1">  1        2 0.23539221E+00 0.83999891E+03</pdfrwt>
<pdfrwt beam="2">  1       -2 0.82383907E-01 0.83999891E+03</pdfrwt>
<totfact> 0.16009058E+01</totfact>
</mgrwt>
</event>
<event>
 4    5  0.2295023E-007  0.1220082E+04  0.7818608E-02  0.9137844E-01
          2   -1    0    0  501    0  0.00000000000E+00  0.00000000000E+00  0.17292804702E+04  0.17292804702E+04  0.25500000000E-02 0. -1.
         -2   -1    0    0    0  501 -0.00000000000E+00 -0.00000000000E+00 -0.86193893782E+03  0.86193893782E+03  0.25500000000E-02 0.  1.
    8880023    1    1    2    0    0 -0.55123580981E+03  0.86656143165E+03  0.95467985812E+03  0.15491976861E+04  0.65864270000E+03 0.  0.
    8880022    1    1    2    0    0  0.55123580981E+03 -0.86656143165E+03 -0.87338325730E+02  0.10420217219E+04  0.15294330000E+03 0.  0.
<mgrwt>
<rscale>  0 0.11718667E+04</rscale>
<asrwt>0</asrwt>
<pdfrwt beam="1">  1        2 0.26604315E+00 0.12200819E+04</pdfrwt>
<pdfrwt beam="2">  1       -2 0.13260599E+00 0.12200819E+04</pdfrwt>
<totfact> 0.37908593E+00</totfact>
</mgrwt>
</event>
<event>
 4    5  0.2295023E-007  0.9054236E+03  0.7818608E-02  0.9517380E-01
          2   -1    0    0  501    0  0.00000000000E+00  0.00000000000E+00  0.18077667721E+04  0.18077667721E+04  0.25500000000E-02 0. -1.
         -2   -1    0    0    0  501 -0.00000000000E+00 -0.00000000000E+00 -0.70675056681E+03  0.70675056681E+03  0.25500000000E-02 0.  1.
    8880023    1    1    2    0    0  0.34436009008E+03  0.51710523751E+03 -0.31661637689E+03  0.95918602715E+03  0.65864270000E+03 0.  0.
    8880022    1    1    2    0    0 -0.34436009008E+03 -0.51710523751E+03  0.14176325822E+04  0.15553313118E+04  0.15294330000E+03 0.  0.
<mgrwt>
<rscale>  0 0.83014471E+03</rscale>
<asrwt>0</asrwt>
<pdfrwt beam="1">  1        2 0.27811796E+00 0.90542361E+03</pdfrwt>
<pdfrwt beam="2">  1       -2 0.10873086E+00 0.90542361E+03</pdfrwt>
<totfact> 0.58255471E+00</totfact>
</mgrwt>
</event>
<event>
 4    5  0.2295023E-007  0.9736155E+03  0.7818608E-02  0.9416921E-01
         -2   -1    0    0    0  501 -0.00000000000E+00  0.00000000000E+00  0.57527513814E+03  0.57527513814E+03  0.25500000000E-02 0.  1.
          2   -1    0    0  501    0  0.00000000000E+00 -0.00000000000E+00 -0.14237473164E+04  0.14237473164E+04  0.25500000000E-02 0. -1.
    8880023    1    1    2    0    0 -0.57015674043E+03 -0.43478534051E+03 -0.14756508274E+03  0.98473481755E+03  0.65864270000E+03 0.  0.
    8880022    1    1    2    0    0  0.57015674043E+03  0.43478534051E+03 -0.70090709550E+03  0.10142876370E+04  0.15294330000E+03 0.  0.
<mgrwt>
<rscale>  0 0.90696140E+03</rscale>
<asrwt>0</asrwt>
<pdfrwt beam="1">  1        2 0.21903805E+00 0.97361553E+03</pdfrwt>
<pdfrwt beam="2">  1       -2 0.88503868E-01 0.97361553E+03</pdfrwt>
<totfact> 0.15381364E+01</totfact>
</mgrwt>
</event>
<event>
 4    5  0.2295023E-007  0.6727345E+03  0.7818608E-02  0.1013774E+00
         -2   -1    0    0    0  501 -0.00000000000E+00  0.00000000000E+00  0.22492690610E+04  0.22492690610E+04  0.25500000000E-02 0.  1.
          2   -1    0    0  501    0  0.00000000000E+00 -0.00000000000E+00 -0.35374897328E+03  0.35374897329E+03  0.25500000000E-02 0. -1.
    8880023    1    1    2    0    0 -0.65893026791E+02 -0.12008162029E+03  0.21633566866E+04  0.22655427267E+04  0.65864270000E+03 0.  1.
    8880022    1    1    2    0    0  0.65893026791E+02  0.12008162029E+03 -0.26783659892E+03  0.33747530761E+03  0.15294330000E+03 0.  0.
<mgrwt>
<rscale>  0 0.50001900E+03</rscale>
<asrwt>0</asrwt>
<pdfrwt beam="1">  1        2 0.54422918E-01 0.67273449E+03</pdfrwt>
<pdfrwt beam="2">  1       -2 0.34604140E+00 0.67273449E+03</pdfrwt>
<totfact> 0.16037662E+00</totfact>
</mgrwt>
</event>
<event>
 4    5  0.2295023E-007  0.7229748E+03  0.7818608E-02  0.9912646E-01
         -2   -1    0    0    0  501 -0.00000000000E+00  0.00000000000E+00  0.92108074603E+03  0.92108074603E+03  0.25500000000E-02 0.  1.
          2   -1    0    0  501    0  0.00000000000E+00 -0.00000000000E+00 -0.10006177928E+04  0.10006177928E+04  0.25500000000E-02 0. -1.
    8880023    1    1    2    0    0  0.22514303081E+03  0.19543012766E+03  0.74107198510E+03  0.10353164794E+04  0.65864270000E+03 0.  1.
    8880022    1    1    2    0    0 -0.22514303081E+03 -0.19543012766E+03 -0.82060903185E+03  0.88638205943E+03  0.15294330000E+03 0.  0.
<mgrwt>
<rscale>  0 0.59652307E+03</rscale>
<asrwt>0</asrwt>
<pdfrwt beam="1">  1        2 0.15394120E+00 0.72297478E+03</pdfrwt>
<pdfrwt beam="2">  1       -2 0.14170473E+00 0.72297478E+03</pdfrwt>
<totfact> 0.89445808E+00</totfact>
</mgrwt>
</event>
<event>
 4    5  0.2295023E-007  0.6928135E+03  0.7818608E-02  0.1002843E+00
          2   -1    0    0  501    0  0.00000000000E+00  0.00000000000E+00  0.19547122676E+04  0.19547122677E+04  0.25500000000E-02 0. -1.
         -2   -1    0    0    0  501 -0.00000000000E+00 -0.00000000000E+00 -0.21429756826E+03  0.21429756827E+03  0.25500000000E-02 0.  1.
    8880023    1    1    2    0    0  0.21238763706E+03 -0.32739469384E+02  0.39401785751E+03  0.79701986144E+03  0.65864270000E+03 0.  1.
    8880022    1    1    2    0    0 -0.21238763706E+03  0.32739469384E+02  0.13463968419E+04  0.13719899745E+04  0.15294330000E+03 0.  0.
<mgrwt>
<rscale>  0 0.54421011E+03</rscale>
<asrwt>0</asrwt>
<pdfrwt beam="1">  1        2 0.30072496E+00 0.69281353E+03</pdfrwt>
<pdfrwt beam="2">  1       -2 0.32968857E-01 0.69281353E+03</pdfrwt>
<totfact> 0.62895780E+01</totfact>
</mgrwt>
</event>
<event>
 4    5  0.2295023E-007  0.1120182E+04  0.7818608E-02  0.9238912E-01
         -2   -1    0    0    0  501 -0.00000000000E+00  0.00000000000E+00  0.13913766777E+04  0.13913766777E+04  0.25500000000E-02 0.  1.
          2   -1    0    0  501    0  0.00000000000E+00 -0.00000000000E+00 -0.20263190463E+04  0.20263190463E+04  0.25500000000E-02 0. -1.
    8880023    1    1    2    0    0 -0.55191084750E+03 -0.71860393383E+03  0.10263013481E+04  0.15192438450E+04  0.65864270000E+03 0.  1.
    8880022    1    1    2    0    0  0.55191084750E+03  0.71860393383E+03 -0.16612437167E+04  0.18984518789E+04  0.15294330000E+03 0.  0.
<mgrwt>
<rscale>  0 0.10660663E+04</rscale>
<asrwt>0</asrwt>
<pdfrwt beam="1">  1        2 0.31174139E+00 0.11201819E+04</pdfrwt>
<pdfrwt beam="2">  1       -2 0.21405795E+00 0.11201819E+04</pdfrwt>
<totfact> 0.68419079E-01</totfact>
</mgrwt>
</event>
<event>
 4    5  0.2295023E-007  0.7625904E+03  0.7818608E-02  0.9798447E-01
          2   -1    0    0  501    0  0.00000000000E+00  0.00000000000E+00  0.28779538034E+04  0.28779538034E+04  0.25500000000E-02 0. -1.
         -2   -1    0    0    0  501 -0.00000000000E+00 -0.00000000000E+00 -0.34543689919E+03  0.34543689920E+03  0.25500000000E-02 0.  1.
    8880023    1    1    2    0    0  0.37753131979E+03  0.72139352502E+02  0.11556984969E+03  0.77129798393E+03  0.65864270000E+03 0.  1.
    8880022    1    1    2    0    0 -0.37753131979E+03 -0.72139352502E+02  0.24169470545E+04  0.24520927186E+04  0.15294330000E+03 0.  0.
<mgrwt>
<rscale>  0 0.65445969E+03</rscale>
<asrwt>0</asrwt>
<pdfrwt beam="1">  1        2 0.44276214E+00 0.76259045E+03</pdfrwt>
<pdfrwt beam="2">  1       -2 0.53144136E-01 0.76259045E+03</pdfrwt>
<totfact> 0.73237853E+00</totfact>
</mgrwt>
</event>
<event>
 4    5  0.2295023E-007  0.7597204E+03  0.7818608E-02  0.9805832E-01
          2   -1    0    0  501    0  0.00000000000E+00  0.00000000000E+00  0.96156927077E+03  0.96156927078E+03  0.25500000000E-02 0. -1.
         -2   -1    0    0    0  501 -0.00000000000E+00 -0.00000000000E+00 -0.41656400345E+03  0.41656400346E+03  0.25500000000E-02 0.  1.
    8880023    1    1    2    0    0 -0.37618537485E+03  0.43005198353E+02  0.87267196141E+02  0.76471606046E+03  0.65864270000E+03 0.  0.
    8880022    1    1    2    0    0  0.37618537485E+03 -0.43005198353E+02  0.45773807119E+03  0.61341721378E+03  0.15294330000E+03 0.  0.
<mgrwt>
<rscale>  0 0.65050509E+03</rscale>
<asrwt>0</asrwt>
<pdfrwt beam="1">  1        2 0.14793373E+00 0.75972040E+03</pdfrwt>
<pdfrwt beam="2">  1       -2 0.64086770E-01 0.75972040E+03</pdfrwt>
<totfact> 0.60877256E+01</totfact>
</mgrwt>
</event>
<event>
 4    5  0.2295023E-007  0.1490801E+04  0.7818608E-02  0.8916159E-01
         -2   -1    0    0    0  501 -0.00000000000E+00  0.00000000000E+00  0.86419889910E+03  0.86419889911E+03  0.25500000000E-02 0.  1.
          2   -1    0    0  501    0  0.00000000000E+00 -0.00000000000E+00 -0.26176167220E+04  0.26176167220E+04  0.25500000000E-02 0. -1.
    8880023    1    1    2    0    0  0.11770199626E+04 -0.63506058780E+03 -0.33829080193E+03  0.15287016764E+04  0.65864270000E+03 0.  0.
    8880022    1    1    2    0    0 -0.11770199626E+04  0.63506058780E+03 -0.14151270209E+04  0.19531139447E+04  0.15294330000E+03 0.  0.
<mgrwt>
<rscale>  0 0.14532377E+04</rscale>
<asrwt>0</asrwt>
<pdfrwt beam="1">  1        2 0.40271026E+00 0.14908012E+04</pdfrwt>
<pdfrwt beam="2">  1       -2 0.13295368E+00 0.14908012E+04</pdfrwt>
<totfact> 0.11565230E+00</totfact>
</mgrwt>
</event>
<event>
 4    5  0.2295023E-007  0.1594899E+04  0.7818608E-02  0.8845377E-01
         -2   -1    0    0    0  501 -0.00000000000E+00  0.00000000000E+00  0.93845765799E+03  0.93845765799E+03  0.25500000000E-02 0.  1.
          2   -1    0    0  501    0  0.00000000000E+00 -0.00000000000E+00 -0.38502049006E+04  0.38502049006E+04  0.25500000000E-02 0. -1.
    8880023    1    1    2    0    0  0.20400488329E+03  0.14381492928E+04 -0.73427851818E+02  0.15965879984E+04  0.65864270000E+03 0.  1.
    8880022    1    1    2    0    0 -0.20400488329E+03 -0.14381492928E+04 -0.28383193908E+04  0.31920745602E+04  0.15294330000E+03 0.  0.
<mgrwt>
<rscale>  0 0.15602021E+04</rscale>
<asrwt>0</asrwt>
<pdfrwt beam="1">  1        2 0.59233921E+00 0.15948986E+04</pdfrwt>
<pdfrwt beam="2">  1       -2 0.14437810E+00 0.15948986E+04</pdfrwt>
<totfact> 0.14112718E-01</totfact>
</mgrwt>
</event>
<event>
 4    5  0.2295023E-007  0.1095288E+04  0.7818608E-02  0.9266320E-01
          2   -1    0    0  501    0  0.00000000000E+00  0.00000000000E+00  0.10156542629E+04  0.10156542629E+04  0.25500000000E-02 0. -1.
         -2   -1    0    0    0  501 -0.00000000000E+00 -0.00000000000E+00 -0.11600295434E+04  0.11600295434E+04  0.25500000000E-02 0.  1.
    8880023    1    1    2    0    0  0.30346420432E+03 -0.82082640300E+03 -0.51839378312E+03  0.12117709469E+04  0.65864270000E+03 0.  1.
    8880022    1    1    2    0    0 -0.30346420432E+03  0.82082640300E+03  0.37401850266E+03  0.96391285940E+03  0.15294330000E+03 0.  0.
<mgrwt>
<rscale>  0 0.10394351E+04</rscale>
<asrwt>0</asrwt>
<pdfrwt beam="1">  1        2 0.15625450E+00 0.10952884E+04</pdfrwt>
<pdfrwt beam="2">  1       -2 0.17846608E+00 0.10952884E+04</pdfrwt>
<totfact> 0.44914065E+00</totfact>
</mgrwt>
</event>
<event>
 4    5  0.2295023E-007  0.7779803E+03  0.7818608E-02  0.9760603E-01
          2   -1    0    0  501    0  0.00000000000E+00  0.00000000000E+00  0.14277171230E+04  0.14277171230E+04  0.25500000000E-02 0. -1.
         -2   -1    0    0    0  501 -0.00000000000E+00 -0.00000000000E+00 -0.91990108989E+03  0.91990108990E+03  0.25500000000E-02 0.  1.
    8880023    1    1    2    0    0 -0.31942466880E+03 -0.26345977022E+03 -0.70939149096E+03  0.10528483572E+04  0.65864270000E+03 0.  1.
    8880022    1    1    2    0    0  0.31942466880E+03  0.26345977022E+03  0.12172075241E+04  0.12947698557E+04  0.15294330000E+03 0.  0.
<mgrwt>
<rscale>  0 0.67520365E+03</rscale>
<asrwt>0</asrwt>
<pdfrwt beam="1">  1        2 0.21964879E+00 0.77798032E+03</pdfrwt>
<pdfrwt beam="2">  1       -2 0.14152324E+00 0.77798032E+03</pdfrwt>
<totfact> 0.49715891E+00</totfact>
</mgrwt>
</event>
<event>
 4    5  0.2295023E-007  0.8085623E+03  0.7818608E-02  0.9692579E-01
         -2   -1    0    0    0  501 -0.00000000000E+00  0.00000000000E+00  0.14395175506E+04  0.14395175507E+04  0.25500000000E-02 0.  1.
          2   -1    0    0  501    0  0.00000000000E+00 -0.00000000000E+00 -0.11700569872E+04  0.11700569872E+04  0.25500000000E-02 0. -1.
    8880023    1    1    2    0    0  0.39128334105E+03  0.25857339054E+03  0.12633794135E+04  0.14999668663E+04  0.65864270000E+03 0.  1.
    8880022    1    1    2    0    0 -0.39128334105E+03 -0.25857339054E+03 -0.99391885003E+03  0.11096076715E+04  0.15294330000E+03 0.  0.
<mgrwt>
<rscale>  0 0.71460336E+03</rscale>
<asrwt>0</asrwt>
<pdfrwt beam="1">  1        2 0.18000877E+00 0.80856234E+03</pdfrwt>
<pdfrwt beam="2">  1       -2 0.22146424E+00 0.80856234E+03</pdfrwt>
<totfact> 0.19494938E+00</totfact>
</mgrwt>
</event>
<event>
 4    5  0.2295023E-007  0.7599452E+03  0.7818608E-02  0.9805249E-01
         -2   -1    0    0    0  501 -0.00000000000E+00  0.00000000000E+00  0.12044228057E+04  0.12044228057E+04  0.25500000000E-02 0.  1.
          2   -1    0    0  501    0  0.00000000000E+00 -0.00000000000E+00 -0.33215434411E+03  0.33215434412E+03  0.25500000000E-02 0. -1.
    8880023    1    1    2    0    0 -0.15148907512E+03  0.34750180478E+03  0.83042421383E+03  0.11256647038E+04  0.65864270000E+03 0.  1.
    8880022    1    1    2    0    0  0.15148907512E+03 -0.34750180478E+03  0.41844247757E+02  0.41091244601E+03  0.15294330000E+03 0.  0.
<mgrwt>
<rscale>  0 0.65081586E+03</rscale>
<asrwt>0</asrwt>
<pdfrwt beam="1">  1        2 0.51100668E-01 0.75994516E+03</pdfrwt>
<pdfrwt beam="2">  1       -2 0.18529582E+00 0.75994516E+03</pdfrwt>
<totfact> 0.16585127E+01</totfact>
</mgrwt>
</event>
<event>
 4    5  0.2295023E-007  0.7029997E+03  0.7818608E-02  0.9984978E-01
          2   -1    0    0  501    0  0.00000000000E+00  0.00000000000E+00  0.84178456663E+03  0.84178456663E+03  0.25500000000E-02 0. -1.
         -2   -1    0    0    0  501 -0.00000000000E+00 -0.00000000000E+00 -0.50779766268E+03  0.50779766269E+03  0.25500000000E-02 0.  1.
    8880023    1    1    2    0    0  0.11212984279E+03  0.21868985155E+03 -0.20972581150E+03  0.73361670857E+03  0.65864270000E+03 0.  0.
    8880022    1    1    2    0    0 -0.11212984279E+03 -0.21868985155E+03  0.54371271544E+03  0.61596552076E+03  0.15294330000E+03 0.  0.
<mgrwt>
<rscale>  0 0.56313870E+03</rscale>
<asrwt>0</asrwt>
<pdfrwt beam="1">  1        2 0.12950532E+00 0.70299969E+03</pdfrwt>
<pdfrwt beam="2">  1       -2 0.78122717E-01 0.70299969E+03</pdfrwt>
<totfact> 0.47740799E+01</totfact>
</mgrwt>
</event>
<event>
 4    5  0.2295023E-007  0.1058913E+04  0.7818608E-02  0.9308243E-01
         -2   -1    0    0    0  501 -0.00000000000E+00  0.00000000000E+00  0.17614451092E+04  0.17614451092E+04  0.25500000000E-02 0.  1.
          2   -1    0    0  501    0  0.00000000000E+00 -0.00000000000E+00 -0.12877342588E+04  0.12877342588E+04  0.25500000000E-02 0. -1.
    8880023    1    1    2    0    0  0.59912960887E+02 -0.82698053808E+03  0.14267154615E+04  0.17767424089E+04  0.65864270000E+03 0.  1.
    8880022    1    1    2    0    0 -0.59912960887E+02  0.82698053808E+03 -0.95300461110E+03  0.12724369592E+04  0.15294330000E+03 0.  0.
<mgrwt>
<rscale>  0 0.10002754E+04</rscale>
<asrwt>0</asrwt>
<pdfrwt beam="1">  1        2 0.19811296E+00 0.10589129E+04</pdfrwt>
<pdfrwt beam="2">  1       -2 0.27099155E+00 0.10589129E+04</pdfrwt>
<totfact> 0.79649363E-01</totfact>
</mgrwt>
</event>
<event>
 4    5  0.2295023E-007  0.1578532E+04  0.7818608E-02  0.8856084E-01
          2   -1    0    0  501    0  0.00000000000E+00  0.00000000000E+00  0.23159278662E+04  0.23159278662E+04  0.25500000000E-02 0. -1.
         -2   -1    0    0    0  501 -0.00000000000E+00 -0.00000000000E+00 -0.19518161750E+04  0.19518161750E+04  0.25500000000E-02 0.  1.
    8880023    1    1    2    0    0  0.12523927683E+04  0.69961895105E+03  0.16869996510E+04  0.23103532958E+04  0.65864270000E+03 0.  0.
    8880022    1    1    2    0    0 -0.12523927683E+04 -0.69961895105E+03 -0.13228879599E+04  0.19573907454E+04  0.15294330000E+03 0.  0.
<mgrwt>
<rscale>  0 0.15434166E+04</rscale>
<asrwt>0</asrwt>
<pdfrwt beam="1">  1        2 0.35629659E+00 0.15785324E+04</pdfrwt>
<pdfrwt beam="2">  1       -2 0.30027941E+00 0.15785324E+04</pdfrwt>
<totfact> 0.13054722E-01</totfact>
</mgrwt>
</event>
<event>
 4    5  0.2295023E-007  0.1441128E+04  0.7818608E-02  0.8952366E-01
         -2   -1    0    0    0  501 -0.00000000000E+00  0.00000000000E+00  0.98727028763E+03  0.98727028763E+03  0.25500000000E-02 0.  1.
          2   -1    0    0  501    0  0.00000000000E+00 -0.00000000000E+00 -0.23761927529E+04  0.23761927529E+04  0.25500000000E-02 0. -1.
    8880023    1    1    2    0    0 -0.48161646349E+03 -0.11878915231E+04  0.34914841489E+02  0.14415512273E+04  0.65864270000E+03 0.  0.
    8880022    1    1    2    0    0  0.48161646349E+03  0.11878915231E+04 -0.14238373068E+04  0.19219118132E+04  0.15294330000E+03 0.  0.
<mgrwt>
<rscale>  0 0.14020079E+04</rscale>
<asrwt>0</asrwt>
<pdfrwt beam="1">  1        2 0.36556811E+00 0.14411283E+04</pdfrwt>
<pdfrwt beam="2">  1       -2 0.15188774E+00 0.14411283E+04</pdfrwt>
<totfact> 0.11294043E+00</totfact>
</mgrwt>
</event>
<event>
 4    5  0.2295023E-007  0.1038351E+04  0.7818608E-02  0.9333018E-01
          2   -1    0    0  501    0  0.00000000000E+00  0.00000000000E+00  0.30595170821E+04  0.30595170821E+04  0.25500000000E-02 0. -1.
         -2   -1    0    0    0  501 -0.00000000000E+00 -0.00000000000E+00 -0.93490821293E+03  0.93490821293E+03  0.25500000000E-02 0.  1.
    8880023    1    1    2    0    0  0.80255644381E+03 -0.16284265499E+02 -0.56590910850E+03  0.11825503576E+04  0.65864270000E+03 0.  0.
    8880022    1    1    2    0    0 -0.80255644381E+03  0.16284265499E+02  0.26905179776E+04  0.28118749374E+04  0.15294330000E+03 0.  0.
<mgrwt>
<rscale>  0 0.97799152E+03</rscale>
<asrwt>0</asrwt>
<pdfrwt beam="1">  1        2 0.47069494E+00 0.10383507E+04</pdfrwt>
<pdfrwt beam="2">  1       -2 0.14383203E+00 0.10383507E+04</pdfrwt>
<totfact> 0.54070108E-01</totfact>
</mgrwt>
</event>
<event>
 4    5  0.2295023E-007  0.1519743E+04  0.7818608E-02  0.8895819E-01
          2   -1    0    0  501    0  0.00000000000E+00  0.00000000000E+00  0.98933214611E+03  0.98933214611E+03  0.25500000000E-02 0. -1.
         -2   -1    0    0    0  501 -0.00000000000E+00 -0.00000000000E+00 -0.30109870945E+04  0.30109870945E+04  0.25500000000E-02 0.  1.
    8880023    1    1    2    0    0  0.22970313487E+03 -0.13502018678E+04 -0.21315304202E+04  0.26178313071E+04  0.65864270000E+03 0.  0.
    8880022    1    1    2    0    0 -0.22970313487E+03  0.13502018678E+04  0.10987547177E+03  0.13824879335E+04  0.15294330000E+03 0.  0.
<mgrwt>
<rscale>  0 0.14830267E+04</rscale>
<asrwt>0</asrwt>
<pdfrwt beam="1">  1        2 0.15220495E+00 0.15197430E+04</pdfrwt>
<pdfrwt beam="2">  1       -2 0.46322878E+00 0.15197430E+04</pdfrwt>
<totfact> 0.68625470E-02</totfact>
</mgrwt>
</event>
<event>
 4    5  0.2295023E-007  0.1177647E+04  0.7818608E-02  0.9179163E-01
         -2   -1    0    0    0  501 -0.00000000000E+00  0.00000000000E+00  0.10551123295E+04  0.10551123295E+04  0.25500000000E-02 0.  1.
          2   -1    0    0  501    0  0.00000000000E+00 -0.00000000000E+00 -0.14385867907E+04  0.14385867907E+04  0.25500000000E-02 0. -1.
    8880023    1    1    2    0    0  0.86269100389E+03 -0.45695337361E+03  0.38815496158E+03  0.12399663843E+04  0.65864270000E+03 0.  0.
    8880022    1    1    2    0    0 -0.86269100389E+03  0.45695337361E+03 -0.77162942273E+03  0.12537327358E+04  0.15294330000E+03 0.  0.
<mgrwt>
<rscale>  0 0.11271110E+04</rscale>
<asrwt>0</asrwt>
<pdfrwt beam="1">  1        2 0.22132104E+00 0.11776470E+04</pdfrwt>
<pdfrwt beam="2">  1       -2 0.16232497E+00 0.11776470E+04</pdfrwt>
<totfact> 0.32421604E+00</totfact>
</mgrwt>
</event>
<event>
 4    5  0.2295023E-007  0.9267100E+03  0.7818608E-02  0.9484446E-01
          2   -1    0    0  501    0  0.00000000000E+00  0.00000000000E+00  0.17714521235E+04  0.17714521235E+04  0.25500000000E-02 0. -1.
         -2   -1    0    0    0  501 -0.00000000000E+00 -0.00000000000E+00 -0.48608759435E+03  0.48608759436E+03  0.25500000000E-02 0.  1.
    8880023    1    1    2    0    0  0.15558611853E+03  0.63306722993E+03  0.14906832213E+03  0.93862278303E+03  0.65864270000E+03 0.  0.
    8880022    1    1    2    0    0 -0.15558611853E+03 -0.63306722993E+03  0.11362962070E+04  0.13189169348E+04  0.15294330000E+03 0.  0.
<mgrwt>
<rscale>  0 0.85440304E+03</rscale>
<asrwt>0</asrwt>
<pdfrwt beam="1">  1        2 0.27253110E+00 0.92670997E+03</pdfrwt>
<pdfrwt beam="2">  1       -2 0.74782707E-01 0.92670997E+03</pdfrwt>
<totfact> 0.14493217E+01</totfact>
</mgrwt>
</event>
<event>
 4    5  0.2295023E-007  0.8037407E+03  0.7818608E-02  0.9702765E-01
         -2   -1    0    0    0  501 -0.00000000000E+00  0.00000000000E+00  0.75639205259E+03  0.75639205259E+03  0.25500000000E-02 0.  1.
          2   -1    0    0  501    0  0.00000000000E+00 -0.00000000000E+00 -0.19846493733E+04  0.19846493733E+04  0.25500000000E-02 0. -1.
    8880023    1    1    2    0    0  0.45840585609E+03  0.45309865667E+02  0.49956375778E+03  0.94634193988E+03  0.65864270000E+03 0.  1.
    8880022    1    1    2    0    0 -0.45840585609E+03 -0.45309865667E+02 -0.17278210785E+04  0.17946994861E+04  0.15294330000E+03 0.  0.
<mgrwt>
<rscale>  0 0.70852374E+03</rscale>
<asrwt>0</asrwt>
<pdfrwt beam="1">  1        2 0.30533067E+00 0.80374070E+03</pdfrwt>
<pdfrwt beam="2">  1       -2 0.11636801E+00 0.80374070E+03</pdfrwt>
<totfact> 0.40083417E+00</totfact>
</mgrwt>
</event>
<event>
 4    5  0.2295023E-007  0.7165038E+03  0.7818608E-02  0.9934598E-01
         -2   -1    0    0    0  501 -0.00000000000E+00  0.00000000000E+00  0.58663050607E+03  0.58663050607E+03  0.25500000000E-02 0.  1.
          2   -1    0    0  501    0  0.00000000000E+00 -0.00000000000E+00 -0.17453392373E+04  0.17453392373E+04  0.25500000000E-02 0. -1.
    8880023    1    1    2    0    0 -0.22395439542E+03  0.17149903378E+03  0.34441163752E+03  0.79498243511E+03  0.65864270000E+03 0.  1.
    8880022    1    1    2    0    0  0.22395439542E+03 -0.17149903378E+03 -0.15031203687E+04  0.15369873082E+04  0.15294330000E+03 0.  0.
<mgrwt>
<rscale>  0 0.58613410E+03</rscale>
<asrwt>0</asrwt>
<pdfrwt beam="1">  1        2 0.26851373E+00 0.71650380E+03</pdfrwt>
<pdfrwt beam="2">  1       -2 0.90250848E-01 0.71650380E+03</pdfrwt>
<totfact> 0.10053133E+01</totfact>
</mgrwt>
</event>
<event>
 4    5  0.2295023E-007  0.7433754E+03  0.7818608E-02  0.9850222E-01
          2   -1    0    0  501    0  0.00000000000E+00  0.00000000000E+00  0.16876635291E+04  0.16876635291E+04  0.25500000000E-02 0. -1.
         -2   -1    0    0    0  501 -0.00000000000E+00 -0.00000000000E+00 -0.27225273629E+03  0.27225273630E+03  0.25500000000E-02 0.  1.
    8880023    1    1    2    0    0 -0.31262727319E+03  0.14512376525E+03  0.33458635986E+03  0.81520240288E+03  0.65864270000E+03 0.  1.
    8880022    1    1    2    0    0  0.31262727319E+03 -0.14512376525E+03  0.10808244330E+04  0.11447138626E+04  0.15294330000E+03 0.  0.
<mgrwt>
<rscale>  0 0.62735611E+03</rscale>
<asrwt>0</asrwt>
<pdfrwt beam="1">  1        2 0.25964055E+00 0.74337536E+03</pdfrwt>
<pdfrwt beam="2">  1       -2 0.41885036E-01 0.74337536E+03</pdfrwt>
<totfact> 0.55154442E+01</totfact>
</mgrwt>
</event>
<event>
 4    5  0.2295023E-007  0.8677120E+03  0.7818608E-02  0.9579990E-01
          2   -1    0    0  501    0  0.00000000000E+00  0.00000000000E+00  0.98601994416E+03  0.98601994417E+03  0.25500000000E-02 0. -1.
         -2   -1    0    0    0  501 -0.00000000000E+00 -0.00000000000E+00 -0.12158723589E+04  0.12158723589E+04  0.25500000000E-02 0.  1.
    8880023    1    1    2    0    0  0.14889973672E+03 -0.54492458822E+03 -0.94159218814E+03  0.12804374227E+04  0.65864270000E+03 0.  1.
    8880022    1    1    2    0    0 -0.14889973672E+03  0.54492458822E+03  0.71173977342E+03  0.92145488035E+03  0.15294330000E+03 0.  0.
<mgrwt>
<rscale>  0 0.78634869E+03</rscale>
<asrwt>0</asrwt>
<pdfrwt beam="1">  1        2 0.15169538E+00 0.86771202E+03</pdfrwt>
<pdfrwt beam="2">  1       -2 0.18705729E+00 0.86771202E+03</pdfrwt>
<totfact> 0.41995459E+00</totfact>
</mgrwt>
</event>
<event>
 4    5  0.2295023E-007  0.1096420E+04  0.7818608E-02  0.9265052E-01
          2   -1    0    0  501    0  0.00000000000E+00  0.00000000000E+00  0.31017532182E+04  0.31017532182E+04  0.25500000000E-02 0. -1.
         -2   -1    0    0    0  501 -0.00000000000E+00 -0.00000000000E+00 -0.44183992273E+03  0.44183992274E+03  0.25500000000E-02 0.  1.
    8880023    1    1    2    0    0  0.87031889626E+03  0.10426983995E+03  0.49504221605E+03  0.12029979978E+04  0.65864270000E+03 0.  0.
    8880022    1    1    2    0    0 -0.87031889626E+03 -0.10426983995E+03  0.21648710794E+04  0.23405951431E+04  0.15294330000E+03 0.  0.
<mgrwt>
<rscale>  0 0.10406487E+04</rscale>
<asrwt>0</asrwt>
<pdfrwt beam="1">  1        2 0.47719279E+00 0.10964203E+04</pdfrwt>
<pdfrwt beam="2">  1       -2 0.67975374E-01 0.10964203E+04</pdfrwt>
<totfact> 0.30063451E+00</totfact>
</mgrwt>
</event>
<event>
 4    5  0.2295023E-007  0.8649903E+03  0.7818608E-02  0.9584748E-01
          2   -1    0    0  501    0  0.00000000000E+00  0.00000000000E+00  0.17698873280E+04  0.17698873280E+04  0.25500000000E-02 0. -1.
         -2   -1    0    0    0  501 -0.00000000000E+00 -0.00000000000E+00 -0.42695705394E+03  0.42695705395E+03  0.25500000000E-02 0.  1.
    8880023    1    1    2    0    0 -0.56060724284E+03  0.10841641021E+02  0.16114056366E+03  0.87987187103E+03  0.65864270000E+03 0.  0.
    8880022    1    1    2    0    0  0.56060724284E+03 -0.10841641021E+02  0.11817897104E+04  0.13169725109E+04  0.15294330000E+03 0.  0.
<mgrwt>
<rscale>  0 0.78313967E+03</rscale>
<asrwt>0</asrwt>
<pdfrwt beam="1">  1        2 0.27229036E+00 0.86499031E+03</pdfrwt>
<pdfrwt beam="2">  1       -2 0.65685700E-01 0.86499031E+03</pdfrwt>
<totfact> 0.19423248E+01</totfact>
</mgrwt>
</event>
<event>
 4    5  0.2295023E-007  0.8736506E+03  0.7818608E-02  0.9569728E-01
          2   -1    0    0  501    0  0.00000000000E+00  0.00000000000E+00  0.12493705330E+04  0.12493705330E+04  0.25500000000E-02 0. -1.
         -2   -1    0    0    0  501 -0.00000000000E+00 -0.00000000000E+00 -0.15898241995E+04  0.15898241995E+04  0.25500000000E-02 0.  1.
    8880023    1    1    2    0    0  0.57250125668E+03  0.41200575623E+02 -0.13850205292E+04  0.16375430525E+04  0.65864270000E+03 0.  1.
    8880022    1    1    2    0    0 -0.57250125668E+03 -0.41200575623E+02  0.10445668627E+04  0.12016516800E+04  0.15294330000E+03 0.  0.
<mgrwt>
<rscale>  0 0.79332587E+03</rscale>
<asrwt>0</asrwt>
<pdfrwt beam="1">  1        2 0.19221085E+00 0.87365061E+03</pdfrwt>
<pdfrwt beam="2">  1       -2 0.24458834E+00 0.87365061E+03</pdfrwt>
<totfact> 0.12467334E+00</totfact>
</mgrwt>
</event>
<event>
 4    5  0.2295023E-007  0.1142185E+04  0.7818608E-02  0.9215480E-01
         -2   -1    0    0    0  501 -0.00000000000E+00  0.00000000000E+00  0.28684242062E+04  0.28684242062E+04  0.25500000000E-02 0.  1.
          2   -1    0    0  501    0  0.00000000000E+00 -0.00000000000E+00 -0.12301689538E+04  0.12301689538E+04  0.25500000000E-02 0. -1.
    8880023    1    1    2    0    0 -0.92265235942E+03 -0.13960331217E+03  0.25443406057E+04  0.27889524530E+04  0.65864270000E+03 0.  1.
    8880022    1    1    2    0    0  0.92265235942E+03  0.13960331217E+03 -0.90608535328E+03  0.13096407070E+04  0.15294330000E+03 0.  0.
<mgrwt>
<rscale>  0 0.10895063E+04</rscale>
<asrwt>0</asrwt>
<pdfrwt beam="1">  1        2 0.18925676E+00 0.11421850E+04</pdfrwt>
<pdfrwt beam="2">  1       -2 0.44129603E+00 0.11421850E+04</pdfrwt>
<totfact> 0.71526337E-02</totfact>
</mgrwt>
</event>
<event>
 4    5  0.2295023E-007  0.6944081E+03  0.7818608E-02  0.1002124E+00
         -2   -1    0    0    0  501 -0.00000000000E+00  0.00000000000E+00  0.64116804445E+03  0.64116804446E+03  0.25500000000E-02 0.  1.
          2   -1    0    0  501    0  0.00000000000E+00 -0.00000000000E+00 -0.11431112944E+04  0.11431112944E+04  0.25500000000E-02 0. -1.
    8880023    1    1    2    0    0  0.19297290009E+03  0.10561195860E+03  0.42853646719E+03  0.81599395583E+03  0.65864270000E+03 0.  1.
    8880022    1    1    2    0    0 -0.19297290009E+03 -0.10561195860E+03 -0.93047971713E+03  0.96828538302E+03  0.15294330000E+03 0.  0.
<mgrwt>
<rscale>  0 0.54728634E+03</rscale>
<asrwt>0</asrwt>
<pdfrwt beam="1">  1        2 0.17586328E+00 0.69440812E+03</pdfrwt>
<pdfrwt beam="2">  1       -2 0.98641238E-01 0.69440812E+03</pdfrwt>
<totfact> 0.17927276E+01</totfact>
</mgrwt>
</event>
<event>
 4    5  0.2295023E-007  0.7676780E+03  0.7818608E-02  0.9785621E-01
          2   -1    0    0  501    0  0.00000000000E+00  0.00000000000E+00  0.45677573890E+04  0.45677573890E+04  0.25500000000E-02 0. -1.
         -2   -1    0    0    0  501 -0.00000000000E+00 -0.00000000000E+00 -0.20919909196E+03  0.20919909197E+03  0.25500000000E-02 0.  1.
    8880023    1    1    2    0    0  0.10657714298E+03 -0.37968488338E+03  0.54850756962E+03  0.94349883851E+03  0.65864270000E+03 0.  0.
    8880022    1    1    2    0    0 -0.10657714298E+03  0.37968488338E+03  0.38100507274E+04  0.38334576425E+04  0.15294330000E+03 0.  0.
<mgrwt>
<rscale>  0 0.66139961E+03</rscale>
<asrwt>0</asrwt>
<pdfrwt beam="1">  1        2 0.70273190E+00 0.76767800E+03</pdfrwt>
<pdfrwt beam="2">  1       -2 0.32184476E-01 0.76767800E+03</pdfrwt>
<totfact> 0.10764138E+00</totfact>
</mgrwt>
</event>
<event>
 4    5  0.2295023E-007  0.8749687E+03  0.7818608E-02  0.9567472E-01
          2   -1    0    0  501    0  0.00000000000E+00  0.00000000000E+00  0.37060605152E+04  0.37060605152E+04  0.25500000000E-02 0. -1.
         -2   -1    0    0    0  501 -0.00000000000E+00 -0.00000000000E+00 -0.25038493206E+03  0.25038493207E+03  0.25500000000E-02 0.  1.
    8880023    1    1    2    0    0  0.32725645322E+03 -0.47398657610E+03  0.31830195675E+04  0.33010882802E+04  0.65864270000E+03 0. -1.
    8880022    1    1    2    0    0 -0.32725645322E+03  0.47398657610E+03  0.27265601560E+03  0.65535716701E+03  0.15294330000E+03 0.  0.
<mgrwt>
<rscale>  0 0.79487005E+03</rscale>
<asrwt>0</asrwt>
<pdfrwt beam="1">  1        2 0.57016314E+00 0.87496872E+03</pdfrwt>
<pdfrwt beam="2">  1       -2 0.38520760E-01 0.87496872E+03</pdfrwt>
<totfact> 0.39210174E+00</totfact>
</mgrwt>
</event>
<event>
 4    5  0.2295023E-007  0.6836563E+03  0.7818608E-02  0.1007327E+00
          2   -1    0    0  501    0  0.00000000000E+00  0.00000000000E+00  0.20939373305E+04  0.20939373305E+04  0.25500000000E-02 0. -1.
         -2   -1    0    0    0  501 -0.00000000000E+00 -0.00000000000E+00 -0.32231877203E+03  0.32231877204E+03  0.25500000000E-02 0.  1.
    8880023    1    1    2    0    0 -0.49929097442E+02  0.17630323826E+03  0.58018517079E+02  0.68611376694E+03  0.65864270000E+03 0.  1.
    8880022    1    1    2    0    0  0.49929097442E+02 -0.17630323826E+03  0.17136000414E+04  0.17301423356E+04  0.15294330000E+03 0.  0.
<mgrwt>
<rscale>  0 0.52551083E+03</rscale>
<asrwt>0</asrwt>
<pdfrwt beam="1">  1        2 0.32214421E+00 0.68365631E+03</pdfrwt>
<pdfrwt beam="2">  1       -2 0.49587503E-01 0.68365631E+03</pdfrwt>
<totfact> 0.23829218E+01</totfact>
</mgrwt>
</event>
<event>
 4    5  0.2295023E-007  0.9904036E+03  0.7818608E-02  0.9394222E-01
          2   -1    0    0  501    0  0.00000000000E+00  0.00000000000E+00  0.16216818125E+04  0.16216818125E+04  0.25500000000E-02 0. -1.
         -2   -1    0    0    0  501 -0.00000000000E+00 -0.00000000000E+00 -0.14603186512E+04  0.14603186512E+04  0.25500000000E-02 0.  1.
    8880023    1    1    2    0    0 -0.26760553995E+03 -0.68954797248E+03 -0.11812543919E+04  0.15415126584E+04  0.65864270000E+03 0.  0.
    8880022    1    1    2    0    0  0.26760553995E+03  0.68954797248E+03  0.13426175532E+04  0.15404878054E+04  0.15294330000E+03 0.  0.
<mgrwt>
<rscale>  0 0.92552743E+03</rscale>
<asrwt>0</asrwt>
<pdfrwt beam="1">  1        2 0.24948951E+00 0.99040362E+03</pdfrwt>
<pdfrwt beam="2">  1       -2 0.22466441E+00 0.99040362E+03</pdfrwt>
<totfact> 0.99934542E-01</totfact>
</mgrwt>
</event>
<event>
 4    5  0.2295023E-007  0.1284834E+04  0.7818608E-02  0.9078768E-01
          2   -1    0    0  501    0  0.00000000000E+00  0.00000000000E+00  0.16883855971E+04  0.16883855971E+04  0.25500000000E-02 0. -1.
         -2   -1    0    0    0  501 -0.00000000000E+00 -0.00000000000E+00 -0.12989575266E+04  0.12989575266E+04  0.25500000000E-02 0.  1.
    8880023    1    1    2    0    0 -0.22378986549E+03  0.10802344408E+04 -0.67102401360E+03  0.14495074281E+04  0.65864270000E+03 0.  0.
    8880022    1    1    2    0    0  0.22378986549E+03 -0.10802344408E+04  0.10604520841E+04  0.15378356956E+04  0.15294330000E+03 0.  0.
<mgrwt>
<rscale>  0 0.12397372E+04</rscale>
<asrwt>0</asrwt>
<pdfrwt beam="1">  1        2 0.25975163E+00 0.12848341E+04</pdfrwt>
<pdfrwt beam="2">  1       -2 0.19983962E+00 0.12848341E+04</pdfrwt>
<totfact> 0.12753796E+00</totfact>
</mgrwt>
</event>
<event>
 4    5  0.2295023E-007  0.1097750E+04  0.7818608E-02  0.9263565E-01
          2   -1    0    0  501    0  0.00000000000E+00  0.00000000000E+00  0.57579205277E+04  0.57579205277E+04  0.25500000000E-02 0. -1.
         -2   -1    0    0    0  501 -0.00000000000E+00 -0.00000000000E+00 -0.10176689017E+04  0.10176689017E+04  0.25500000000E-02 0.  1.
    8880023    1    1    2    0    0 -0.82531162135E+03 -0.30017558196E+03 -0.67419507166E+03  0.12882522475E+04  0.65864270000E+03 0.  0.
    8880022    1    1    2    0    0  0.82531162135E+03  0.30017558196E+03  0.54144466977E+04  0.54873371819E+04  0.15294330000E+03 0.  0.
<mgrwt>
<rscale>  0 0.10420741E+04</rscale>
<asrwt>0</asrwt>
<pdfrwt beam="1">  1        2 0.88583392E+00 0.10977499E+04</pdfrwt>
<pdfrwt beam="2">  1       -2 0.15656445E+00 0.10977499E+04</pdfrwt>
<totfact> 0.51684076E-04</totfact>
</mgrwt>
</event>
<event>
 4    5  0.2295023E-007  0.9069601E+03  0.7818608E-02  0.9514949E-01
          2   -1    0    0  501    0  0.00000000000E+00  0.00000000000E+00  0.17383941834E+04  0.17383941834E+04  0.25500000000E-02 0. -1.
         -2   -1    0    0    0  501 -0.00000000000E+00 -0.00000000000E+00 -0.96191250143E+03  0.96191250143E+03  0.25500000000E-02 0.  1.
    8880023    1    1    2    0    0  0.41257646194E+03  0.46749021984E+03 -0.66346475567E+03  0.11237268934E+04  0.65864270000E+03 0.  0.
    8880022    1    1    2    0    0 -0.41257646194E+03 -0.46749021984E+03  0.14399464377E+04  0.15765797915E+04  0.15294330000E+03 0.  0.
<mgrwt>
<rscale>  0 0.83190574E+03</rscale>
<asrwt>0</asrwt>
<pdfrwt beam="1">  1        2 0.26744525E+00 0.90696011E+03</pdfrwt>
<pdfrwt beam="2">  1       -2 0.14798654E+00 0.90696011E+03</pdfrwt>
<totfact> 0.29195847E+00</totfact>
</mgrwt>
</event>
<event>
 4    5  0.2295023E-007  0.6616514E+03  0.7818608E-02  0.1022525E+00
         -2   -1    0    0    0  501 -0.00000000000E+00  0.00000000000E+00  0.62568008811E+03  0.62568008812E+03  0.25500000000E-02 0.  1.
          2   -1    0    0  501    0  0.00000000000E+00 -0.00000000000E+00 -0.22440795116E+04  0.22440795116E+04  0.25500000000E-02 0. -1.
    8880023    1    1    2    0    0 -0.49257743145E+02  0.39319908084E+02  0.44652008001E+03  0.79822476067E+03  0.65864270000E+03 0.  1.
    8880022    1    1    2    0    0  0.49257743145E+02 -0.39319908084E+02 -0.20649195035E+04  0.20715348390E+04  0.15294330000E+03 0.  0.
<mgrwt>
<rscale>  0 0.46786380E+03</rscale>
<asrwt>0</asrwt>
<pdfrwt beam="1">  1        2 0.34524300E+00 0.66165141E+03</pdfrwt>
<pdfrwt beam="2">  1       -2 0.96258476E-01 0.66165141E+03</pdfrwt>
<totfact> 0.46705327E+00</totfact>
</mgrwt>
</event>
<event>
 4    5  0.2295023E-007  0.6963267E+03  0.7818608E-02  0.1001279E+00
          2   -1    0    0  501    0  0.00000000000E+00  0.00000000000E+00  0.64257307555E+03  0.64257307555E+03  0.25500000000E-02 0. -1.
         -2   -1    0    0    0  501 -0.00000000000E+00 -0.00000000000E+00 -0.31664232901E+04  0.31664232901E+04  0.25500000000E-02 0.  1.
    8880023    1    1    2    0    0 -0.54778207180E+02 -0.21922583783E+03 -0.30969440883E+04  0.31742610971E+04  0.65864270000E+03 0.  1.
    8880022    1    1    2    0    0  0.54778207180E+02  0.21922583783E+03  0.57309387379E+03  0.63473526855E+03  0.15294330000E+03 0.  0.
<mgrwt>
<rscale>  0 0.55092758E+03</rscale>
<asrwt>0</asrwt>
<pdfrwt beam="1">  1        2 0.98857398E-01 0.69632667E+03</pdfrwt>
<pdfrwt beam="2">  1       -2 0.48714204E+00 0.69632667E+03</pdfrwt>
<totfact> 0.97510539E-02</totfact>
</mgrwt>
</event>
<event>
 4    5  0.3141911E-007  0.8986482E+03  0.7818608E-02  0.9528205E-01
         -2   -1    0    0    0  501 -0.00000000000E+00  0.00000000000E+00  0.18275062600E+04  0.18275062600E+04  0.25500000000E-02 0.  1.
          2   -1    0    0  501    0  0.00000000000E+00 -0.00000000000E+00 -0.17643266844E+04  0.17643266844E+04  0.25500000000E-02 0. -1.
    8880023    1    1    2    0    0  0.59983520861E+03 -0.11813586211E+03  0.16531000143E+04  0.18815706797E+04  0.65864270000E+03 0.  0.
    8880022    1    1    2    0    0 -0.59983520861E+03  0.11813586211E+03 -0.15899204387E+04  0.17102622646E+04  0.15294330000E+03 0. -1.
<mgrwt>
<rscale>  0 0.82235928E+03</rscale>
<asrwt>0</asrwt>
<pdfrwt beam="1">  1        2 0.27143487E+00 0.89864819E+03</pdfrwt>
<pdfrwt beam="2">  1       -2 0.28115481E+00 0.89864819E+03</pdfrwt>
<totfact> 0.38292112E-01</totfact>
</mgrwt>
</event>
<event>
 4    5  0.2295023E-007  0.1379809E+04  0.7818608E-02  0.8999532E-01
         -2   -1    0    0    0  501 -0.00000000000E+00  0.00000000000E+00  0.21352863663E+04  0.21352863663E+04  0.25500000000E-02 0.  1.
          2   -1    0    0  501    0  0.00000000000E+00 -0.00000000000E+00 -0.34341631457E+04  0.34341631457E+04  0.25500000000E-02 0. -1.
    8880023    1    1    2    0    0 -0.11758634133E+04 -0.29564989152E+03 -0.30998045086E+04  0.33930313619E+04  0.65864270000E+03 0. -1.
    8880022    1    1    2    0    0  0.11758634133E+04  0.29564989152E+03  0.18009277292E+04  0.21764181501E+04  0.15294330000E+03 0.  0.
<mgrwt>
<rscale>  0 0.13385615E+04</rscale>
<asrwt>0</asrwt>
<pdfrwt beam="1">  1        2 0.52833279E+00 0.13798093E+04</pdfrwt>
<pdfrwt beam="2">  1       -2 0.32850559E+00 0.13798093E+04</pdfrwt>
<totfact> 0.18504272E-02</totfact>
</mgrwt>
</event>
<event>
 4    5  0.2295023E-007  0.8828688E+03  0.7818608E-02  0.9554112E-01
          2   -1    0    0  501    0  0.00000000000E+00  0.00000000000E+00  0.54670564029E+03  0.54670564030E+03  0.25500000000E-02 0. -1.
         -2   -1    0    0    0  501 -0.00000000000E+00 -0.00000000000E+00 -0.16729419361E+04  0.16729419361E+04  0.25500000000E-02 0.  1.
    8880023    1    1    2    0    0  0.58060075824E+03  0.92465913257E+02 -0.13146700848E+04  0.15836081661E+04  0.65864270000E+03 0.  0.
    8880022    1    1    2    0    0 -0.58060075824E+03 -0.92465913257E+02  0.18843378902E+03  0.63603941029E+03  0.15294330000E+03 0.  0.
<mgrwt>
<rscale>  0 0.80409276E+03</rscale>
<asrwt>0</asrwt>
<pdfrwt beam="1">  1        2 0.84108561E-01 0.88286884E+03</pdfrwt>
<pdfrwt beam="2">  1       -2 0.25737568E+00 0.88286884E+03</pdfrwt>
<totfact> 0.32538051E+00</totfact>
</mgrwt>
</event>
<event>
 4    5  0.2295023E-007  0.1033697E+04  0.7818608E-02  0.9338741E-01
          2   -1    0    0  501    0  0.00000000000E+00  0.00000000000E+00  0.10713841080E+04  0.10713841080E+04  0.25500000000E-02 0. -1.
         -2   -1    0    0    0  501 -0.00000000000E+00 -0.00000000000E+00 -0.79564094242E+03  0.79564094242E+03  0.25500000000E-02 0.  1.
    8880023    1    1    2    0    0  0.74401145336E+03 -0.28489783745E+03  0.19318546613E+03  0.10515943377E+04  0.65864270000E+03 0. -1.
    8880022    1    1    2    0    0 -0.74401145336E+03  0.28489783745E+03  0.82557699481E+02  0.81543071274E+03  0.15294330000E+03 0.  1.
<mgrwt>
<rscale>  0 0.97293193E+03</rscale>
<asrwt>0</asrwt>
<pdfrwt beam="1">  1        2 0.16482832E+00 0.10336973E+04</pdfrwt>
<pdfrwt beam="2">  1       -2 0.12240630E+00 0.10336973E+04</pdfrwt>
<totfact> 0.11349220E+01</totfact>
</mgrwt>
</event>
<event>
 4    5  0.2295023E-007  0.7699446E+03  0.7818608E-02  0.9780011E-01
          2   -1    0    0  501    0  0.00000000000E+00  0.00000000000E+00  0.13150370594E+04  0.13150370594E+04  0.25500000000E-02 0. -1.
         -2   -1    0    0    0  501 -0.00000000000E+00 -0.00000000000E+00 -0.38366236276E+03  0.38366236276E+03  0.25500000000E-02 0.  1.
    8880023    1    1    2    0    0  0.29659572468E+03 -0.26652470118E+03  0.10042605229E+04  0.12654461049E+04  0.65864270000E+03 0. -1.
    8880022    1    1    2    0    0 -0.29659572468E+03  0.26652470118E+03 -0.72885826269E+02  0.43325331727E+03  0.15294330000E+03 0.  0.
<mgrwt>
<rscale>  0 0.66446413E+03</rscale>
<asrwt>0</asrwt>
<pdfrwt beam="1">  1        2 0.20231340E+00 0.76994457E+03</pdfrwt>
<pdfrwt beam="2">  1       -2 0.59024978E-01 0.76994457E+03</pdfrwt>
<totfact> 0.44198254E+01</totfact>
</mgrwt>
</event>
<event>
 4    5  0.2295023E-007  0.8945262E+03  0.7818608E-02  0.9534877E-01
          2   -1    0    0  501    0  0.00000000000E+00  0.00000000000E+00  0.15719578021E+04  0.15719578021E+04  0.25500000000E-02 0. -1.
         -2   -1    0    0    0  501 -0.00000000000E+00 -0.00000000000E+00 -0.87020513465E+03  0.87020513465E+03  0.25500000000E-02 0.  1.
    8880023    1    1    2    0    0  0.46828790760E+03  0.38350146494E+03 -0.54525497532E+03  0.10476068597E+04  0.65864270000E+03 0.  1.
    8880022    1    1    2    0    0 -0.46828790760E+03 -0.38350146494E+03  0.12470076427E+04  0.13945560771E+04  0.15294330000E+03 0.  0.
<mgrwt>
<rscale>  0 0.81760637E+03</rscale>
<asrwt>0</asrwt>
<pdfrwt beam="1">  1        2 0.24183966E+00 0.89452621E+03</pdfrwt>
<pdfrwt beam="2">  1       -2 0.13387771E+00 0.89452621E+03</pdfrwt>
<totfact> 0.46903223E+00</totfact>
</mgrwt>
</event>
<event>
 4    5  0.2295023E-007  0.8726587E+03  0.7818608E-02  0.9571431E-01
          2   -1    0    0  501    0  0.00000000000E+00  0.00000000000E+00  0.27111578610E+04  0.27111578610E+04  0.25500000000E-02 0. -1.
         -2   -1    0    0    0  501 -0.00000000000E+00 -0.00000000000E+00 -0.20665263807E+03  0.20665263809E+03  0.25500000000E-02 0.  1.
    8880023    1    1    2    0    0  0.53877686197E+03 -0.19350041555E+03  0.11877020931E+04  0.14738281399E+04  0.65864270000E+03 0.  0.
    8880022    1    1    2    0    0 -0.53877686197E+03  0.19350041555E+03  0.13168031298E+04  0.14439823591E+04  0.15294330000E+03 0.  1.
<mgrwt>
<rscale>  0 0.79216273E+03</rscale>
<asrwt>0</asrwt>
<pdfrwt beam="1">  1        2 0.41710120E+00 0.87265865E+03</pdfrwt>
<pdfrwt beam="2">  1       -2 0.31792714E-01 0.87265865E+03</pdfrwt>
<totfact> 0.24807194E+01</totfact>
</mgrwt>
</event>
<event>
 4    5  0.2295023E-007  0.6713937E+03  0.7818608E-02  0.1014683E+00
         -2   -1    0    0    0  501 -0.00000000000E+00  0.00000000000E+00  0.36610169600E+03  0.36610169601E+03  0.25500000000E-02 0.  1.
          2   -1    0    0  501    0  0.00000000000E+00 -0.00000000000E+00 -0.20001898063E+04  0.20001898063E+04  0.25500000000E-02 0. -1.
    8880023    1    1    2    0    0 -0.69184504175E+02  0.11033031733E+03  0.47195440610E+02  0.67305043676E+03  0.65864270000E+03 0.  1.
    8880022    1    1    2    0    0  0.69184504175E+02 -0.11033031733E+03 -0.16812835509E+04  0.16932410656E+04  0.15294330000E+03 0.  0.
<mgrwt>
<rscale>  0 0.49655188E+03</rscale>
<asrwt>0</asrwt>
<pdfrwt beam="1">  1        2 0.30772150E+00 0.67139369E+03</pdfrwt>
<pdfrwt beam="2">  1       -2 0.56323339E-01 0.67139369E+03</pdfrwt>
<totfact> 0.20668946E+01</totfact>
</mgrwt>
</event>
<event>
 4    5  0.2295023E-007  0.2138123E+04  0.7818608E-02  0.8555481E-01
         -2   -1    0    0    0  501 -0.00000000000E+00  0.00000000000E+00  0.13598322352E+04  0.13598322352E+04  0.25500000000E-02 0.  1.
          2   -1    0    0  501    0  0.00000000000E+00 -0.00000000000E+00 -0.33752936479E+04  0.33752936479E+04  0.25500000000E-02 0. -1.
    8880023    1    1    2    0    0  0.15705453934E+04  0.12927292562E+04 -0.15553444150E+04  0.26439871819E+04  0.65864270000E+03 0.  0.
    8880022    1    1    2    0    0 -0.15705453934E+04 -0.12927292562E+04 -0.46011699767E+03  0.20911387011E+04  0.15294330000E+03 0.  0.
<mgrwt>
<rscale>  0 0.21131304E+04</rscale>
<asrwt>0</asrwt>
<pdfrwt beam="1">  1        2 0.51927594E+00 0.21381235E+04</pdfrwt>
<pdfrwt beam="2">  1       -2 0.20920496E+00 0.21381235E+04</pdfrwt>
<totfact> 0.10114207E-01</totfact>
</mgrwt>
</event>
<event>
 4    5  0.2295023E-007  0.1048363E+04  0.7818608E-02  0.9320852E-01
         -2   -1    0    0    0  501 -0.00000000000E+00  0.00000000000E+00  0.17753114099E+04  0.17753114099E+04  0.25500000000E-02 0.  1.
          2   -1    0    0  501    0  0.00000000000E+00 -0.00000000000E+00 -0.83132733794E+03  0.83132733794E+03  0.25500000000E-02 0. -1.
    8880023    1    1    2    0    0  0.66437889856E+03  0.47313377884E+03  0.13282565393E+04  0.16921378591E+04  0.65864270000E+03 0.  1.
    8880022    1    1    2    0    0 -0.66437889856E+03 -0.47313377884E+03 -0.38427246732E+03  0.91450088884E+03  0.15294330000E+03 0.  0.
<mgrwt>
<rscale>  0 0.98885663E+03</rscale>
<asrwt>0</asrwt>
<pdfrwt beam="1">  1        2 0.12789651E+00 0.10483631E+04</pdfrwt>
<pdfrwt beam="2">  1       -2 0.27312483E+00 0.10483631E+04</pdfrwt>
<totfact> 0.15089247E+00</totfact>
</mgrwt>
</event>
<event>
 4    5  0.2295023E-007  0.1847000E+04  0.7818608E-02  0.8696974E-01
          2   -1    0    0  501    0  0.00000000000E+00  0.00000000000E+00  0.30428097674E+04  0.30428097674E+04  0.25500000000E-02 0. -1.
         -2   -1    0    0    0  501 -0.00000000000E+00 -0.00000000000E+00 -0.13359377612E+04  0.13359377612E+04  0.25500000000E-02 0.  1.
    8880023    1    1    2    0    0 -0.24325939553E+03 -0.17083393163E+04  0.18828151957E+04  0.26374991224E+04  0.65864270000E+03 0.  0.
    8880022    1    1    2    0    0  0.24325939553E+03  0.17083393163E+04 -0.17594318946E+03  0.17412484062E+04  0.15294330000E+03 0.  0.
<mgrwt>
<rscale>  0 0.18176415E+04</rscale>
<asrwt>0</asrwt>
<pdfrwt beam="1">  1        2 0.46812457E+00 0.18469999E+04</pdfrwt>
<pdfrwt beam="2">  1       -2 0.20552889E+00 0.18469999E+04</pdfrwt>
<totfact> 0.18150200E-01</totfact>
</mgrwt>
</event>
<event>
 4    5  0.2295023E-007  0.8599261E+03  0.7818608E-02  0.9593695E-01
          2   -1    0    0  501    0  0.00000000000E+00  0.00000000000E+00  0.10889297436E+04  0.10889297436E+04  0.25500000000E-02 0. -1.
         -2   -1    0    0    0  501 -0.00000000000E+00 -0.00000000000E+00 -0.18386621900E+04  0.18386621900E+04  0.25500000000E-02 0.  1.
    8880023    1    1    2    0    0 -0.33821670511E+03  0.43734669104E+03 -0.16496899937E+04  0.18603628542E+04  0.65864270000E+03 0.  1.
    8880022    1    1    2    0    0  0.33821670511E+03 -0.43734669104E+03  0.89995754735E+03  0.10672290794E+04  0.15294330000E+03 0.  0.
<mgrwt>
<rscale>  0 0.77714900E+03</rscale>
<asrwt>0</asrwt>
<pdfrwt beam="1">  1        2 0.16752765E+00 0.85992609E+03</pdfrwt>
<pdfrwt beam="2">  1       -2 0.28287111E+00 0.85992609E+03</pdfrwt>
<totfact> 0.91575707E-01</totfact>
</mgrwt>
</event>
<event>
 4    5  0.2295023E-007  0.9126332E+03  0.7818608E-02  0.9506048E-01
         -2   -1    0    0    0  501 -0.00000000000E+00  0.00000000000E+00  0.17879967713E+04  0.17879967713E+04  0.25500000000E-02 0.  1.
          2   -1    0    0  501    0  0.00000000000E+00 -0.00000000000E+00 -0.89458778598E+03  0.89458778598E+03  0.25500000000E-02 0. -1.
    8880023    1    1    2    0    0  0.13992376346E+03 -0.61604418942E+03  0.15243929740E+04  0.17767029150E+04  0.65864270000E+03 0.  0.
    8880022    1    1    2    0    0 -0.13992376346E+03  0.61604418942E+03 -0.63098398863E+03  0.90588164228E+03  0.15294330000E+03 0.  0.
<mgrwt>
<rscale>  0 0.83839379E+03</rscale>
<asrwt>0</asrwt>
<pdfrwt beam="1">  1        2 0.13762889E+00 0.91263317E+03</pdfrwt>
<pdfrwt beam="2">  1       -2 0.27507643E+00 0.91263317E+03</pdfrwt>
<totfact> 0.13510251E+00</totfact>
</mgrwt>
</event>
<event>
 4    5  0.2295023E-007  0.9633351E+03  0.7818608E-02  0.9431182E-01
         -2   -1    0    0    0  501 -0.00000000000E+00  0.00000000000E+00  0.13253100934E+04  0.13253100934E+04  0.25500000000E-02 0.  1.
          2   -1    0    0  501    0  0.00000000000E+00 -0.00000000000E+00 -0.20495975022E+04  0.20495975022E+04  0.25500000000E-02 0. -1.
    8880023    1    1    2    0    0 -0.10600740929E+03  0.69495813980E+03  0.10711947092E+04  0.14406500957E+04  0.65864270000E+03 0.  0.
    8880022    1    1    2    0    0  0.10600740929E+03 -0.69495813980E+03 -0.17954821180E+04  0.19342574999E+04  0.15294330000E+03 0.  0.
<mgrwt>
<rscale>  0 0.89553367E+03</rscale>
<asrwt>0</asrwt>
<pdfrwt beam="1">  1        2 0.31532269E+00 0.96333514E+03</pdfrwt>
<pdfrwt beam="2">  1       -2 0.20389386E+00 0.96333514E+03</pdfrwt>
<totfact> 0.79055500E-01</totfact>
</mgrwt>
</event>
<event>
 4    5  0.2295023E-007  0.8002702E+03  0.7818608E-02  0.9710212E-01
          2   -1    0    0  501    0  0.00000000000E+00  0.00000000000E+00  0.10917137098E+04  0.10917137098E+04  0.25500000000E-02 0. -1.
         -2   -1    0    0    0  501 -0.00000000000E+00 -0.00000000000E+00 -0.86505103419E+03  0.86505103419E+03  0.25500000000E-02 0.  1.
    8880023    1    1    2    0    0  0.42515233408E+03  0.16083446530E+03 -0.60057111338E+03  0.10005588943E+04  0.65864270000E+03 0.  1.
    8880022    1    1    2    0    0 -0.42515233408E+03 -0.16083446530E+03  0.82723378900E+03  0.95620584974E+03  0.15294330000E+03 0.  0.
<mgrwt>
<rscale>  0 0.70412012E+03</rscale>
<asrwt>0</asrwt>
<pdfrwt beam="1">  1        2 0.16795596E+00 0.80027023E+03</pdfrwt>
<pdfrwt beam="2">  1       -2 0.13308477E+00 0.80027023E+03</pdfrwt>
<totfact> 0.91334523E+00</totfact>
</mgrwt>
</event>
<event>
 4    5  0.2295023E-007  0.1096498E+04  0.7818608E-02  0.9264965E-01
          2   -1    0    0  501    0  0.00000000000E+00  0.00000000000E+00  0.26099380460E+04  0.26099380460E+04  0.25500000000E-02 0. -1.
         -2   -1    0    0    0  501 -0.00000000000E+00 -0.00000000000E+00 -0.52736875995E+03  0.52736875996E+03  0.25500000000E-02 0.  1.
    8880023    1    1    2    0    0 -0.73634817157E+03 -0.47569836859E+03  0.28717834050E+03  0.11334809981E+04  0.65864270000E+03 0.  0.
    8880022    1    1    2    0    0  0.73634817157E+03  0.47569836859E+03  0.17953909456E+04  0.20038258078E+04  0.15294330000E+03 0.  0.
<mgrwt>
<rscale>  0 0.10407320E+04</rscale>
<asrwt>0</asrwt>
<pdfrwt beam="1">  1        2 0.40152893E+00 0.10964980E+04</pdfrwt>
<pdfrwt beam="2">  1       -2 0.81133655E-01 0.10964980E+04</pdfrwt>
<totfact> 0.40194814E+00</totfact>
</mgrwt>
</event>
<event>
 4    5  0.2295023E-007  0.7017233E+03  0.7818608E-02  0.9990126E-01
         -2   -1    0    0    0  501 -0.00000000000E+00  0.00000000000E+00  0.41655264546E+03  0.41655264547E+03  0.25500000000E-02 0.  1.
          2   -1    0    0  501    0  0.00000000000E+00 -0.00000000000E+00 -0.32756894181E+04  0.32756894181E+04  0.25500000000E-02 0. -1.
    8880023    1    1    2    0    0 -0.20272860523E+03 -0.13231195687E+03  0.10916189059E+03  0.71016326709E+03  0.65864270000E+03 0.  1.
    8880022    1    1    2    0    0  0.20272860523E+03  0.13231195687E+03 -0.29682986632E+04  0.29820787965E+04  0.15294330000E+03 0.  0.
<mgrwt>
<rscale>  0 0.56085313E+03</rscale>
<asrwt>0</asrwt>
<pdfrwt beam="1">  1        2 0.50395220E+00 0.70172327E+03</pdfrwt>
<pdfrwt beam="2">  1       -2 0.64085024E-01 0.70172327E+03</pdfrwt>
<totfact> 0.28337007E+00</totfact>
</mgrwt>
</event>
<event>
 4    5  0.2295023E-007  0.1432103E+04  0.7818608E-02  0.8959131E-01
          2   -1    0    0  501    0  0.00000000000E+00  0.00000000000E+00  0.12290990843E+04  0.12290990843E+04  0.25500000000E-02 0. -1.
         -2   -1    0    0    0  501 -0.00000000000E+00 -0.00000000000E+00 -0.23780471745E+04  0.23780471745E+04  0.25500000000E-02 0.  1.
    8880023    1    1    2    0    0 -0.12710961743E+04 -0.37719127598E+02 -0.16913519273E+04  0.22162106771E+04  0.65864270000E+03 0.  1.
    8880022    1    1    2    0    0  0.12710961743E+04  0.37719127598E+02  0.54240383709E+03  0.13909355817E+04  0.15294330000E+03 0.  0.
<mgrwt>
<rscale>  0 0.13926843E+04</rscale>
<asrwt>0</asrwt>
<pdfrwt beam="1">  1        2 0.18909217E+00 0.14321028E+04</pdfrwt>
<pdfrwt beam="2">  1       -2 0.36585341E+00 0.14321028E+04</pdfrwt>
<totfact> 0.21409013E-01</totfact>
</mgrwt>
</event>
<event>
 4    5  0.2295023E-007  0.6711753E+03  0.7818608E-02  0.1014834E+00
         -2   -1    0    0    0  501 -0.00000000000E+00  0.00000000000E+00  0.22251526872E+03  0.22251526874E+03  0.25500000000E-02 0.  1.
          2   -1    0    0  501    0  0.00000000000E+00 -0.00000000000E+00 -0.31285646017E+04  0.31285646017E+04  0.25500000000E-02 0. -1.
    8880023    1    1    2    0    0 -0.12906951008E+03  0.26736020821E+01 -0.29630285816E+03  0.73367000525E+03  0.65864270000E+03 0.  1.
    8880022    1    1    2    0    0  0.12906951008E+03 -0.26736020821E+01 -0.26097464748E+04  0.26174098652E+04  0.15294330000E+03 0.  0.
<mgrwt>
<rscale>  0 0.49597842E+03</rscale>
<asrwt>0</asrwt>
<pdfrwt beam="1">  1        2 0.48131760E+00 0.67117531E+03</pdfrwt>
<pdfrwt beam="2">  1       -2 0.34233121E-01 0.67117531E+03</pdfrwt>
<totfact> 0.12475438E+01</totfact>
</mgrwt>
</event>
<event>
 4    5  0.2295023E-007  0.9323278E+03  0.7818608E-02  0.9476010E-01
          2   -1    0    0  501    0  0.00000000000E+00  0.00000000000E+00  0.35010921159E+04  0.35010921159E+04  0.25500000000E-02 0. -1.
         -2   -1    0    0    0  501 -0.00000000000E+00 -0.00000000000E+00 -0.29389609612E+03  0.29389609613E+03  0.25500000000E-02 0.  1.
    8880023    1    1    2    0    0  0.64229417872E+03 -0.15127179471E+03  0.61774939801E+03  0.11184138290E+04  0.65864270000E+03 0.  1.
    8880022    1    1    2    0    0 -0.64229417872E+03  0.15127179471E+03  0.25894466218E+04  0.26765743830E+04  0.15294330000E+03 0.  0.
<mgrwt>
<rscale>  0 0.86075861E+03</rscale>
<asrwt>0</asrwt>
<pdfrwt beam="1">  1        2 0.53862950E+00 0.93232783E+03</pdfrwt>
<pdfrwt beam="2">  1       -2 0.45214789E-01 0.93232783E+03</pdfrwt>
<totfact> 0.39474403E+00</totfact>
</mgrwt>
</event>
<event>
 4    5  0.2295023E-007  0.7630560E+03  0.7818608E-02  0.9797259E-01
          2   -1    0    0  501    0  0.00000000000E+00  0.00000000000E+00  0.14899500347E+04  0.14899500347E+04  0.25500000000E-02 0. -1.
         -2   -1    0    0    0  501 -0.00000000000E+00 -0.00000000000E+00 -0.63408924820E+03  0.63408924821E+03  0.25500000000E-02 0.  1.
    8880023    1    1    2    0    0 -0.21098730512E+03  0.32237956129E+03 -0.35689525849E+03  0.84239459653E+03  0.65864270000E+03 0.  0.
    8880022    1    1    2    0    0  0.21098730512E+03 -0.32237956129E+03  0.12127560450E+04  0.12816446864E+04  0.15294330000E+03 0.  0.
<mgrwt>
<rscale>  0 0.65509839E+03</rscale>
<asrwt>0</asrwt>
<pdfrwt beam="1">  1        2 0.22922308E+00 0.76305598E+03</pdfrwt>
<pdfrwt beam="2">  1       -2 0.97552192E-01 0.76305598E+03</pdfrwt>
<totfact> 0.11518219E+01</totfact>
</mgrwt>
</event>
<event>
 4    5  0.2295023E-007  0.1367255E+04  0.7818608E-02  0.9009553E-01
         -2   -1    0    0    0  501 -0.00000000000E+00  0.00000000000E+00  0.77119701486E+03  0.77119701486E+03  0.25500000000E-02 0.  1.
          2   -1    0    0  501    0  0.00000000000E+00 -0.00000000000E+00 -0.32597083397E+04  0.32597083397E+04  0.25500000000E-02 0. -1.
    8880023    1    1    2    0    0  0.48567196166E+03  0.10953073979E+04 -0.12041002830E+03  0.13725466591E+04  0.65864270000E+03 0.  0.
    8880022    1    1    2    0    0 -0.48567196166E+03 -0.10953073979E+04 -0.23681012966E+04  0.26583586955E+04  0.15294330000E+03 0.  0.
<mgrwt>
<rscale>  0 0.13255399E+04</rscale>
<asrwt>0</asrwt>
<pdfrwt beam="1">  1        2 0.50149358E+00 0.13672548E+04</pdfrwt>
<pdfrwt beam="2">  1       -2 0.11864570E+00 0.13672548E+04</pdfrwt>
<totfact> 0.62814659E-01</totfact>
</mgrwt>
</event>
<event>
 4    5  0.2295023E-007  0.6670900E+03  0.7818608E-02  0.1017841E+00
          2   -1    0    0  501    0  0.00000000000E+00  0.00000000000E+00  0.15324935371E+04  0.15324935371E+04  0.25500000000E-02 0. -1.
         -2   -1    0    0    0  501 -0.00000000000E+00 -0.00000000000E+00 -0.59922550644E+03  0.59922550645E+03  0.25500000000E-02 0.  1.
    8880023    1    1    2    0    0 -0.80057616696E+02 -0.69207108175E+02 -0.40512114920E+03  0.78046921631E+03  0.65864270000E+03 0.  1.
    8880022    1    1    2    0    0  0.80057616696E+02  0.69207108175E+02  0.13383891798E+04  0.13512498272E+04  0.15294330000E+03 0.  0.
<mgrwt>
<rscale>  0 0.48473895E+03</rscale>
<asrwt>0</asrwt>
<pdfrwt beam="1">  1        2 0.23576824E+00 0.66708999E+03</pdfrwt>
<pdfrwt beam="2">  1       -2 0.92188540E-01 0.66708999E+03</pdfrwt>
<totfact> 0.12615804E+01</totfact>
</mgrwt>
</event>
<event>
 4    5  0.2295023E-007  0.1142450E+04  0.7818608E-02  0.9215203E-01
          2   -1    0    0  501    0  0.00000000000E+00  0.00000000000E+00  0.29951817110E+04  0.29951817110E+04  0.25500000000E-02 0. -1.
         -2   -1    0    0    0  501 -0.00000000000E+00 -0.00000000000E+00 -0.40112028755E+03  0.40112028755E+03  0.25500000000E-02 0.  1.
    8880023    1    1    2    0    0 -0.54493262114E+03 -0.75791155667E+03  0.89347844780E+03  0.14503432119E+04  0.65864270000E+03 0.  0.
    8880022    1    1    2    0    0  0.54493262114E+03  0.75791155667E+03  0.17005829757E+04  0.19459587867E+04  0.15294330000E+03 0.  0.
<mgrwt>
<rscale>  0 0.10897879E+04</rscale>
<asrwt>0</asrwt>
<pdfrwt beam="1">  1        2 0.46079719E+00 0.11424499E+04</pdfrwt>
<pdfrwt beam="2">  1       -2 0.61710813E-01 0.11424499E+04</pdfrwt>
<totfact> 0.42916405E+00</totfact>
</mgrwt>
</event>
<event>
 4    5  0.2295023E-007  0.8595759E+03  0.7818608E-02  0.9594318E-01
          2   -1    0    0  501    0  0.00000000000E+00  0.00000000000E+00  0.17340782509E+04  0.17340782509E+04  0.25500000000E-02 0. -1.
         -2   -1    0    0    0  501 -0.00000000000E+00 -0.00000000000E+00 -0.11578827641E+04  0.11578827641E+04  0.25500000000E-02 0.  1.
    8880023    1    1    2    0    0 -0.86798944922E+02 -0.54545985480E+03 -0.93838824597E+03  0.12725734621E+04  0.65864270000E+03 0.  1.
    8880022    1    1    2    0    0  0.86798944922E+02  0.54545985480E+03  0.15145837328E+04  0.16193875530E+04  0.15294330000E+03 0.  0.
<mgrwt>
<rscale>  0 0.77673377E+03</rscale>
<asrwt>0</asrwt>
<pdfrwt beam="1">  1        2 0.26678127E+00 0.85957589E+03</pdfrwt>
<pdfrwt beam="2">  1       -2 0.17813581E+00 0.85957589E+03</pdfrwt>
<totfact> 0.17803877E+00</totfact>
</mgrwt>
</event>
<event>
 4    5  0.2295023E-007  0.7873395E+03  0.7818608E-02  0.9738871E-01
          2   -1    0    0  501    0  0.00000000000E+00  0.00000000000E+00  0.19448803430E+04  0.19448803430E+04  0.25500000000E-02 0. -1.
         -2   -1    0    0    0  501 -0.00000000000E+00 -0.00000000000E+00 -0.22190130667E+03  0.22190130669E+03  0.25500000000E-02 0.  1.
    8880023    1    1    2    0    0 -0.30444087253E+03  0.30562885940E+03  0.73127668398E+03  0.10745552752E+04  0.65864270000E+03 0. -1.
    8880022    1    1    2    0    0  0.30444087253E+03 -0.30562885940E+03  0.99170235238E+03  0.10922263746E+04  0.15294330000E+03 0.  0.
<mgrwt>
<rscale>  0 0.68748877E+03</rscale>
<asrwt>0</asrwt>
<pdfrwt beam="1">  1        2 0.29921236E+00 0.78733948E+03</pdfrwt>
<pdfrwt beam="2">  1       -2 0.34138662E-01 0.78733948E+03</pdfrwt>
<totfact> 0.58965942E+01</totfact>
</mgrwt>
</event>
<event>
 4    5  0.2692845E-007  0.7015111E+03  0.7818608E-02  0.9990990E-01
         -2   -1    0    0    0  501 -0.00000000000E+00  0.00000000000E+00  0.11401745494E+04  0.11401745494E+04  0.25500000000E-02 0.  1.
          2   -1    0    0  501    0  0.00000000000E+00 -0.00000000000E+00 -0.28345993746E+04  0.28345993746E+04  0.25500000000E-02 0. -1.
    8880023    1    1    2    0    0 -0.21549924750E+03  0.10893872461E+03  0.10240640821E+04  0.12412997309E+04  0.65864270000E+03 0.  1.
    8880022    1    1    2    0    0  0.21549924750E+03 -0.10893872461E+03 -0.27184889074E+04  0.27334741931E+04  0.15294330000E+03 0.  0.
<mgrwt>
<rscale>  0 0.56047099E+03</rscale>
<asrwt>0</asrwt>
<pdfrwt beam="1">  1        2 0.43609221E+00 0.70151107E+03</pdfrwt>
<pdfrwt beam="2">  1       -2 0.17541147E+00 0.70151107E+03</pdfrwt>
<totfact> 0.46405304E-01</totfact>
</mgrwt>
</event>
<event>
 4    5  0.2295023E-007  0.1170121E+04  0.7818608E-02  0.9186728E-01
         -2   -1    0    0    0  501 -0.00000000000E+00  0.00000000000E+00  0.18638005298E+04  0.18638005298E+04  0.25500000000E-02 0.  1.
          2   -1    0    0  501    0  0.00000000000E+00 -0.00000000000E+00 -0.11132536956E+04  0.11132536956E+04  0.25500000000E-02 0. -1.
    8880023    1    1    2    0    0 -0.89671687534E+03 -0.36231597814E+03  0.13828471197E+04  0.18114774040E+04  0.65864270000E+03 0.  0.
    8880022    1    1    2    0    0  0.89671687534E+03  0.36231597814E+03 -0.63230028551E+03  0.11655768214E+04  0.15294330000E+03 0.  0.
<mgrwt>
<rscale>  0 0.11191473E+04</rscale>
<asrwt>0</asrwt>
<pdfrwt beam="1">  1        2 0.17126980E+00 0.11701215E+04</pdfrwt>
<pdfrwt beam="2">  1       -2 0.28673854E+00 0.11701215E+04</pdfrwt>
<totfact> 0.80226946E-01</totfact>
</mgrwt>
</event>
<event>
 4    5  0.2295023E-007  0.1671359E+04  0.7818608E-02  0.8797246E-01
         -2   -1    0    0    0  501 -0.00000000000E+00  0.00000000000E+00  0.16393750315E+04  0.16393750315E+04  0.25500000000E-02 0.  1.
          2   -1    0    0  501    0  0.00000000000E+00 -0.00000000000E+00 -0.22981180482E+04  0.22981180482E+04  0.25500000000E-02 0. -1.
    8880023    1    1    2    0    0  0.13052129723E+04  0.80996799757E+03  0.76441798595E+03  0.18378721728E+04  0.65864270000E+03 0.  0.
    8880022    1    1    2    0    0 -0.13052129723E+04 -0.80996799757E+03 -0.14231610026E+04  0.20996209069E+04  0.15294330000E+03 0.  0.
<mgrwt>
<rscale>  0 0.16384877E+04</rscale>
<asrwt>0</asrwt>
<pdfrwt beam="1">  1        2 0.35355662E+00 0.16713585E+04</pdfrwt>
<pdfrwt beam="2">  1       -2 0.25221154E+00 0.16713585E+04</pdfrwt>
<totfact> 0.26032879E-01</totfact>
</mgrwt>
</event>
<event>
 4    5  0.2295023E-007  0.7036177E+03  0.7818608E-02  0.9982512E-01
          2   -1    0    0  501    0  0.00000000000E+00  0.00000000000E+00  0.22792601846E+04  0.22792601846E+04  0.25500000000E-02 0. -1.
         -2   -1    0    0    0  501 -0.00000000000E+00 -0.00000000000E+00 -0.36952329655E+03  0.36952329656E+03  0.25500000000E-02 0.  1.
    8880023    1    1    2    0    0  0.23109692797E+03 -0.88666813028E+02 -0.13415057140E+02  0.70374552494E+03  0.65864270000E+03 0.  1.
    8880022    1    1    2    0    0 -0.23109692797E+03  0.88666813028E+02  0.19231519451E+04  0.19450379562E+04  0.15294330000E+03 0.  0.
<mgrwt>
<rscale>  0 0.56423737E+03</rscale>
<asrwt>0</asrwt>
<pdfrwt beam="1">  1        2 0.35065542E+00 0.70361765E+03</pdfrwt>
<pdfrwt beam="2">  1       -2 0.56849737E-01 0.70361765E+03</pdfrwt>
<totfact> 0.14181919E+01</totfact>
</mgrwt>
</event>
<event>
 4    5  0.2295023E-007  0.1025226E+04  0.7818608E-02  0.9349273E-01
         -2   -1    0    0    0  501 -0.00000000000E+00  0.00000000000E+00  0.48552656857E+03  0.48552656858E+03  0.25500000000E-02 0.  1.
          2   -1    0    0  501    0  0.00000000000E+00 -0.00000000000E+00 -0.21290972757E+04  0.21290972757E+04  0.25500000000E-02 0. -1.
    8880023    1    1    2    0    0  0.60411907563E+03  0.50231359259E+03 -0.33115137538E+03  0.10773811965E+04  0.65864270000E+03 0.  1.
    8880022    1    1    2    0    0 -0.60411907563E+03 -0.50231359259E+03 -0.13124193317E+04  0.15372426478E+04  0.15294330000E+03 0.  0.
<mgrwt>
<rscale>  0 0.96370508E+03</rscale>
<asrwt>0</asrwt>
<pdfrwt beam="1">  1        2 0.32755342E+00 0.10252263E+04</pdfrwt>
<pdfrwt beam="2">  1       -2 0.74696396E-01 0.10252263E+04</pdfrwt>
<totfact> 0.91325737E+00</totfact>
</mgrwt>
</event>
<event>
 4    5  0.2295023E-007  0.8572375E+03  0.7818608E-02  0.9598496E-01
         -2   -1    0    0    0  501 -0.00000000000E+00  0.00000000000E+00  0.54182304335E+03  0.54182304336E+03  0.25500000000E-02 0.  1.
          2   -1    0    0  501    0  0.00000000000E+00 -0.00000000000E+00 -0.27342733202E+04  0.27342733202E+04  0.25500000000E-02 0. -1.
    8880023    1    1    2    0    0  0.43854274831E+03  0.32973663088E+03  0.14573119520E+03  0.86953652905E+03  0.65864270000E+03 0.  0.
    8880022    1    1    2    0    0 -0.43854274831E+03 -0.32973663088E+03 -0.23381814720E+04  0.24065598345E+04  0.15294330000E+03 0. -1.
<mgrwt>
<rscale>  0 0.77395781E+03</rscale>
<asrwt>0</asrwt>
<pdfrwt beam="1">  1        2 0.42065743E+00 0.85723754E+03</pdfrwt>
<pdfrwt beam="2">  1       -2 0.83357393E-01 0.85723754E+03</pdfrwt>
<totfact> 0.33100724E+00</totfact>
</mgrwt>
</event>
<event>
 4    5  0.2295023E-007  0.7563550E+03  0.7818608E-02  0.9814637E-01
         -2   -1    0    0    0  501 -0.00000000000E+00  0.00000000000E+00  0.14027024274E+04  0.14027024274E+04  0.25500000000E-02 0.  1.
          2   -1    0    0  501    0  0.00000000000E+00 -0.00000000000E+00 -0.13321037469E+04  0.13321037469E+04  0.25500000000E-02 0. -1.
    8880023    1    1    2    0    0 -0.34593903062E+03 -0.13634080981E+03  0.12653748604E+04  0.14741934652E+04  0.65864270000E+03 0.  1.
    8880022    1    1    2    0    0  0.34593903062E+03  0.13634080981E+03 -0.11947761799E+04  0.12606127091E+04  0.15294330000E+03 0.  0.
<mgrwt>
<rscale>  0 0.64582916E+03</rscale>
<asrwt>0</asrwt>
<pdfrwt beam="1">  1        2 0.20493904E+00 0.75635497E+03</pdfrwt>
<pdfrwt beam="2">  1       -2 0.21580037E+00 0.75635497E+03</pdfrwt>
<totfact> 0.17157191E+00</totfact>
</mgrwt>
</event>
<event>
 4    5  0.2295023E-007  0.1257187E+04  0.7818608E-02  0.9103443E-01
         -2   -1    0    0    0  501 -0.00000000000E+00  0.00000000000E+00  0.16452570255E+04  0.16452570255E+04  0.25500000000E-02 0.  1.
          2   -1    0    0  501    0  0.00000000000E+00 -0.00000000000E+00 -0.15445302364E+04  0.15445302364E+04  0.25500000000E-02 0. -1.
    8880023    1    1    2    0    0 -0.10702077865E+04 -0.36930309535E+02  0.11345939834E+04  0.16934645752E+04  0.65864270000E+03 0.  0.
    8880022    1    1    2    0    0  0.10702077865E+04  0.36930309535E+02 -0.10338671943E+04  0.14963226866E+04  0.15294330000E+03 0.  0.
<mgrwt>
<rscale>  0 0.12108149E+04</rscale>
<asrwt>0</asrwt>
<pdfrwt beam="1">  1        2 0.23762004E+00 0.12571868E+04</pdfrwt>
<pdfrwt beam="2">  1       -2 0.25311647E+00 0.12571868E+04</pdfrwt>
<totfact> 0.71090948E-01</totfact>
</mgrwt>
</event>
<event>
 4    5  0.2295023E-007  0.7825626E+03  0.7818608E-02  0.9749851E-01
          2   -1    0    0  501    0  0.00000000000E+00  0.00000000000E+00  0.20848616241E+04  0.20848616241E+04  0.25500000000E-02 0. -1.
         -2   -1    0    0    0  501 -0.00000000000E+00 -0.00000000000E+00 -0.40212733161E+03  0.40212733162E+03  0.25500000000E-02 0.  1.
    8880023    1    1    2    0    0 -0.41335379486E+02  0.42057745910E+03  0.39670341572E+02  0.78356745400E+03  0.65864270000E+03 0.  1.
    8880022    1    1    2    0    0  0.41335379486E+02 -0.42057745910E+03  0.16430639509E+04  0.17034215017E+04  0.15294330000E+03 0.  0.
<mgrwt>
<rscale>  0 0.68124666E+03</rscale>
<asrwt>0</asrwt>
<pdfrwt beam="1">  1        2 0.32074794E+00 0.78256260E+03</pdfrwt>
<pdfrwt beam="2">  1       -2 0.61865743E-01 0.78256260E+03</pdfrwt>
<totfact> 0.15004557E+01</totfact>
</mgrwt>
</event>
<event>
 4    5  0.2295023E-007  0.1961086E+04  0.7818608E-02  0.8638302E-01
         -2   -1    0    0    0  501 -0.00000000000E+00  0.00000000000E+00  0.21753777563E+04  0.21753777564E+04  0.25500000000E-02 0.  1.
          2   -1    0    0  501    0  0.00000000000E+00 -0.00000000000E+00 -0.17329616450E+04  0.17329616450E+04  0.25500000000E-02 0. -1.
    8880023    1    1    2    0    0 -0.89912042154E+03 -0.16135763798E+04 -0.13842808136E+03  0.19659651080E+04  0.65864270000E+03 0.  0.
    8880022    1    1    2    0    0  0.89912042154E+03  0.16135763798E+04  0.58084419273E+03  0.19423742933E+04  0.15294330000E+03 0.  0.
<mgrwt>
<rscale>  0 0.19336157E+04</rscale>
<asrwt>0</asrwt>
<pdfrwt beam="1">  1        2 0.26660948E+00 0.19610855E+04</pdfrwt>
<pdfrwt beam="2">  1       -2 0.33467350E+00 0.19610855E+04</pdfrwt>
<totfact> 0.16354401E-01</totfact>
</mgrwt>
</event>
<event>
 4    5  0.2295023E-007  0.6956106E+03  0.7818608E-02  0.1001592E+00
          2   -1    0    0  501    0  0.00000000000E+00  0.00000000000E+00  0.76518499622E+03  0.76518499622E+03  0.25500000000E-02 0. -1.
         -2   -1    0    0    0  501 -0.00000000000E+00 -0.00000000000E+00 -0.34615450397E+03  0.34615450398E+03  0.25500000000E-02 0.  1.
    8880023    1    1    2    0    0  0.11403021605E+03  0.19251237733E+03  0.11673628565E+03  0.70533784263E+03  0.65864270000E+03 0.  0.
    8880022    1    1    2    0    0 -0.11403021605E+03 -0.19251237733E+03  0.30229420660E+03  0.40600165757E+03  0.15294330000E+03 0.  0.
<mgrwt>
<rscale>  0 0.54957596E+03</rscale>
<asrwt>0</asrwt>
<pdfrwt beam="1">  1        2 0.11772077E+00 0.69561060E+03</pdfrwt>
<pdfrwt beam="2">  1       -2 0.53254539E-01 0.69561060E+03</pdfrwt>
<totfact> 0.12325737E+02</totfact>
</mgrwt>
</event>
<event>
 4    5  0.2295023E-007  0.6780029E+03  0.7818608E-02  0.1010477E+00
          2   -1    0    0  501    0  0.00000000000E+00  0.00000000000E+00  0.97456153747E+03  0.97456153748E+03  0.25500000000E-02 0. -1.
         -2   -1    0    0    0  501 -0.00000000000E+00 -0.00000000000E+00 -0.71909584445E+03  0.71909584446E+03  0.25500000000E-02 0.  1.
    8880023    1    1    2    0    0 -0.99905965287E+02 -0.12608133605E+03 -0.54065214225E+03  0.86717509788E+03  0.65864270000E+03 0.  1.
    8880022    1    1    2    0    0  0.99905965287E+02  0.12608133605E+03  0.79611783527E+03  0.82648228405E+03  0.15294330000E+03 0.  0.
<mgrwt>
<rscale>  0 0.51285639E+03</rscale>
<asrwt>0</asrwt>
<pdfrwt beam="1">  1        2 0.14993254E+00 0.67800288E+03</pdfrwt>
<pdfrwt beam="2">  1       -2 0.11063013E+00 0.67800288E+03</pdfrwt>
<totfact> 0.17370549E+01</totfact>
</mgrwt>
</event>
<event>
 4    5  0.2295023E-007  0.1074449E+04  0.7818608E-02  0.9290051E-01
         -2   -1    0    0    0  501 -0.00000000000E+00  0.00000000000E+00  0.26520217479E+04  0.26520217479E+04  0.25500000000E-02 0.  1.
          2   -1    0    0  501    0  0.00000000000E+00 -0.00000000000E+00 -0.19468721544E+04  0.19468721544E+04  0.25500000000E-02 0. -1.
    8880023    1    1    2    0    0  0.84877536786E+03  0.14536400177E+02  0.24374308575E+04  0.26637399129E+04  0.65864270000E+03 0.  0.
    8880022    1    1    2    0    0 -0.84877536786E+03 -0.14536400177E+02 -0.17322812641E+04  0.19351539894E+04  0.15294330000E+03 0.  0.
<mgrwt>
<rscale>  0 0.10170392E+04</rscale>
<asrwt>0</asrwt>
<pdfrwt beam="1">  1        2 0.29951879E+00 0.10744492E+04</pdfrwt>
<pdfrwt beam="2">  1       -2 0.40800335E+00 0.10744492E+04</pdfrwt>
<totfact> 0.47406888E-02</totfact>
</mgrwt>
</event>
<event>
 4    5  0.2295023E-007  0.1864460E+04  0.7818608E-02  0.8687693E-01
         -2   -1    0    0    0  501 -0.00000000000E+00  0.00000000000E+00  0.13661895236E+04  0.13661895236E+04  0.25500000000E-02 0.  1.
          2   -1    0    0  501    0  0.00000000000E+00 -0.00000000000E+00 -0.43978879137E+04  0.43978879137E+04  0.25500000000E-02 0. -1.
    8880023    1    1    2    0    0 -0.11640793013E+04  0.12989687945E+04  0.40418977333E+03  0.19077683633E+04  0.65864270000E+03 0.  0.
    8880022    1    1    2    0    0  0.11640793013E+04 -0.12989687945E+04 -0.34358881635E+04  0.38563090740E+04  0.15294330000E+03 0.  0.
<mgrwt>
<rscale>  0 0.18354080E+04</rscale>
<asrwt>0</asrwt>
<pdfrwt beam="1">  1        2 0.67659813E+00 0.18644599E+04</pdfrwt>
<pdfrwt beam="2">  1       -2 0.21018301E+00 0.18644599E+04</pdfrwt>
<totfact> 0.16074868E-02</totfact>
</mgrwt>
</event>
<event>
 4    5  0.2295023E-007  0.9696682E+03  0.7818608E-02  0.9422363E-01
          2   -1    0    0  501    0  0.00000000000E+00  0.00000000000E+00  0.10117176020E+04  0.10117176020E+04  0.25500000000E-02 0. -1.
         -2   -1    0    0    0  501 -0.00000000000E+00 -0.00000000000E+00 -0.87572029790E+03  0.87572029790E+03  0.25500000000E-02 0.  1.
    8880023    1    1    2    0    0 -0.57646096510E+02 -0.70931172388E+03 -0.32868399853E+03  0.10238601327E+04  0.65864270000E+03 0.  1.
    8880022    1    1    2    0    0  0.57646096510E+02  0.70931172388E+03  0.46468130265E+03  0.86357776727E+03  0.15294330000E+03 0.  0.
<mgrwt>
<rscale>  0 0.90257902E+03</rscale>
<asrwt>0</asrwt>
<pdfrwt beam="1">  1        2 0.15564886E+00 0.96966819E+03</pdfrwt>
<pdfrwt beam="2">  1       -2 0.13472620E+00 0.96966819E+03</pdfrwt>
<totfact> 0.97636414E+00</totfact>
</mgrwt>
</event>
<event>
 4    5  0.2295023E-007  0.1761280E+04  0.7818608E-02  0.8744263E-01
          2   -1    0    0  501    0  0.00000000000E+00  0.00000000000E+00  0.16486223014E+04  0.16486223014E+04  0.25500000000E-02 0. -1.
         -2   -1    0    0    0  501 -0.00000000000E+00 -0.00000000000E+00 -0.21627128832E+04  0.21627128832E+04  0.25500000000E-02 0.  1.
    8880023    1    1    2    0    0 -0.37085495622E+03 -0.15908368504E+04 -0.10914838451E+04  0.20720623720E+04  0.65864270000E+03 0.  0.
    8880022    1    1    2    0    0  0.37085495622E+03  0.15908368504E+04  0.57739326337E+03  0.17392728126E+04  0.15294330000E+03 0.  0.
<mgrwt>
<rscale>  0 0.17303114E+04</rscale>
<asrwt>0</asrwt>
<pdfrwt beam="1">  1        2 0.25363420E+00 0.17612795E+04</pdfrwt>
<pdfrwt beam="2">  1       -2 0.33272506E+00 0.17612795E+04</pdfrwt>
<totfact> 0.19122409E-01</totfact>
</mgrwt>
</event>
<event>
 4    5  0.3236371E-007  0.6613330E+03  0.7818608E-02  0.1022830E+00
         -2   -1    0    0    0  501 -0.00000000000E+00  0.00000000000E+00  0.16575109152E+04  0.16575109152E+04  0.25500000000E-02 0.  1.
          2   -1    0    0  501    0  0.00000000000E+00 -0.00000000000E+00 -0.20781536493E+04  0.20781536493E+04  0.25500000000E-02 0. -1.
    8880023    1    1    2    0    0  0.58845789106E+02  0.93963899162E+01  0.15880631592E+04  0.17202633295E+04  0.65864270000E+03 0.  1.
    8880022    1    1    2    0    0 -0.58845789106E+02 -0.93963899162E+01 -0.20087058934E+04  0.20154012350E+04  0.15294330000E+03 0.  0.
<mgrwt>
<rscale>  0 0.46678880E+03</rscale>
<asrwt>0</asrwt>
<pdfrwt beam="1">  1        2 0.31971594E+00 0.66133299E+03</pdfrwt>
<pdfrwt beam="2">  1       -2 0.25500168E+00 0.66133299E+03</pdfrwt>
<totfact> 0.39118497E-01</totfact>
</mgrwt>
</event>
<event>
 4    5  0.2295023E-007  0.8550897E+03  0.7818608E-02  0.9602358E-01
         -2   -1    0    0    0  501 -0.00000000000E+00  0.00000000000E+00  0.58729708447E+03  0.58729708447E+03  0.25500000000E-02 0.  1.
          2   -1    0    0  501    0  0.00000000000E+00 -0.00000000000E+00 -0.17889363192E+04  0.17889363192E+04  0.25500000000E-02 0. -1.
    8880023    1    1    2    0    0  0.42391585470E+03 -0.34302116215E+03  0.18808930959E+03  0.87553181792E+03  0.65864270000E+03 0.  1.
    8880022    1    1    2    0    0 -0.42391585470E+03  0.34302116215E+03 -0.13897285443E+04  0.15007015857E+04  0.15294330000E+03 0.  0.
<mgrwt>
<rscale>  0 0.77140287E+03</rscale>
<asrwt>0</asrwt>
<pdfrwt beam="1">  1        2 0.27522097E+00 0.85508969E+03</pdfrwt>
<pdfrwt beam="2">  1       -2 0.90353399E-01 0.85508969E+03</pdfrwt>
<totfact> 0.93111029E+00</totfact>
</mgrwt>
</event>
<event>
 4    5  0.2295023E-007  0.7280411E+03  0.7818608E-02  0.9896261E-01
          2   -1    0    0  501    0  0.00000000000E+00  0.00000000000E+00  0.15424111474E+04  0.15424111474E+04  0.25500000000E-02 0. -1.
         -2   -1    0    0    0  501 -0.00000000000E+00 -0.00000000000E+00 -0.70250019052E+03  0.70250019052E+03  0.25500000000E-02 0.  1.
    8880023    1    1    2    0    0  0.30556051664E+03  0.53539368115E+02 -0.48552765337E+03  0.87508913930E+03  0.65864270000E+03 0.  1.
    8880022    1    1    2    0    0 -0.30556051664E+03 -0.53539368115E+02  0.13254386103E+04  0.13698221986E+04  0.15294330000E+03 0.  0.
<mgrwt>
<rscale>  0 0.60442837E+03</rscale>
<asrwt>0</asrwt>
<pdfrwt beam="1">  1        2 0.23729402E+00 0.72804114E+03</pdfrwt>
<pdfrwt beam="2">  1       -2 0.10807695E+00 0.72804114E+03</pdfrwt>
<totfact> 0.84749592E+00</totfact>
</mgrwt>
</event>
<event>
 4    5  0.2295023E-007  0.1147966E+04  0.7818608E-02  0.9209441E-01
          2   -1    0    0  501    0  0.00000000000E+00  0.00000000000E+00  0.31042913145E+04  0.31042913145E+04  0.25500000000E-02 0. -1.
         -2   -1    0    0    0  501 -0.00000000000E+00 -0.00000000000E+00 -0.91515964404E+03  0.91515964405E+03  0.25500000000E-02 0.  1.
    8880023    1    1    2    0    0 -0.93676578758E+03 -0.80540174630E+02 -0.43511648177E+03  0.12276617692E+04  0.65864270000E+03 0.  0.
    8880022    1    1    2    0    0  0.93676578758E+03  0.80540174630E+02  0.26242481522E+04  0.27917891894E+04  0.15294330000E+03 0.  0.
<mgrwt>
<rscale>  0 0.10956511E+04</rscale>
<asrwt>0</asrwt>
<pdfrwt beam="1">  1        2 0.47758328E+00 0.11479665E+04</pdfrwt>
<pdfrwt beam="2">  1       -2 0.14079379E+00 0.11479665E+04</pdfrwt>
<totfact> 0.52670251E-01</totfact>
</mgrwt>
</event>
<event>
 4    5  0.2295023E-007  0.1348826E+04  0.7818608E-02  0.9024502E-01
          2   -1    0    0  501    0  0.00000000000E+00  0.00000000000E+00  0.46494189089E+04  0.46494189089E+04  0.25500000000E-02 0. -1.
         -2   -1    0    0    0  501 -0.00000000000E+00 -0.00000000000E+00 -0.93823557403E+03  0.93823557404E+03  0.25500000000E-02 0.  1.
    8880023    1    1    2    0    0 -0.11037713271E+04  0.40891322897E+03 -0.31923187874E+03  0.13860881538E+04  0.65864270000E+03 0.  0.
    8880022    1    1    2    0    0  0.11037713271E+04 -0.40891322897E+03  0.40304152136E+04  0.42015663292E+04  0.15294330000E+03 0.  0.
<mgrwt>
<rscale>  0 0.13064038E+04</rscale>
<asrwt>0</asrwt>
<pdfrwt beam="1">  1        2 0.71529522E+00 0.13488259E+04</pdfrwt>
<pdfrwt beam="2">  1       -2 0.14434393E+00 0.13488259E+04</pdfrwt>
<totfact> 0.28840560E-02</totfact>
</mgrwt>
</event>
<event>
 4    5  0.2295023E-007  0.2388999E+04  0.7818608E-02  0.8452032E-01
          2   -1    0    0  501    0  0.00000000000E+00  0.00000000000E+00  0.33110908617E+04  0.33110908617E+04  0.25500000000E-02 0. -1.
         -2   -1    0    0    0  501 -0.00000000000E+00 -0.00000000000E+00 -0.18134252303E+04  0.18134252303E+04  0.25500000000E-02 0.  1.
    8880023    1    1    2    0    0  0.22817936151E+04  0.25869380583E+03  0.15040156166E+04  0.28230086377E+04  0.65864270000E+03 0.  0.
    8880022    1    1    2    0    0 -0.22817936151E+04 -0.25869380583E+03 -0.63499853004E+01  0.23015074543E+04  0.15294330000E+03 0.  0.
<mgrwt>
<rscale>  0 0.23668167E+04</rscale>
<asrwt>0</asrwt>
<pdfrwt beam="1">  1        2 0.50939859E+00 0.23889987E+04</pdfrwt>
<pdfrwt beam="2">  1       -2 0.27898850E+00 0.23889987E+04</pdfrwt>
<totfact> 0.39862133E-02</totfact>
</mgrwt>
</event>
<event>
 4    5  0.2295023E-007  0.1250694E+04  0.7818608E-02  0.9109353E-01
         -2   -1    0    0    0  501 -0.00000000000E+00  0.00000000000E+00  0.17542309211E+04  0.17542309211E+04  0.25500000000E-02 0.  1.
          2   -1    0    0  501    0  0.00000000000E+00 -0.00000000000E+00 -0.10561497387E+04  0.10561497387E+04  0.25500000000E-02 0. -1.
    8880023    1    1    2    0    0  0.10631296299E+04 -0.13459127965E+02  0.10979074205E+04  0.16642225417E+04  0.65864270000E+03 0.  0.
    8880022    1    1    2    0    0 -0.10631296299E+04  0.13459127965E+02 -0.39982623807E+03  0.11461581181E+04  0.15294330000E+03 0.  0.
<mgrwt>
<rscale>  0 0.12040111E+04</rscale>
<asrwt>0</asrwt>
<pdfrwt beam="1">  1        2 0.16248458E+00 0.12506942E+04</pdfrwt>
<pdfrwt beam="2">  1       -2 0.26988167E+00 0.12506942E+04</pdfrwt>
<totfact> 0.10921615E+00</totfact>
</mgrwt>
</event>
<event>
 4    5  0.2295023E-007  0.7675447E+03  0.7818608E-02  0.9785953E-01
          2   -1    0    0  501    0  0.00000000000E+00  0.00000000000E+00  0.15761774816E+04  0.15761774816E+04  0.25500000000E-02 0. -1.
         -2   -1    0    0    0  501 -0.00000000000E+00 -0.00000000000E+00 -0.31862227172E+04  0.31862227172E+04  0.25500000000E-02 0.  1.
    8880023    1    1    2    0    0  0.38643275596E+03  0.77358930118E+02 -0.31103612002E+04  0.32036653510E+04  0.65864270000E+03 0.  1.
    8880022    1    1    2    0    0 -0.38643275596E+03 -0.77358930118E+02  0.15003159646E+04  0.15587348478E+04  0.15294330000E+03 0.  0.
<mgrwt>
<rscale>  0 0.66121890E+03</rscale>
<asrwt>0</asrwt>
<pdfrwt beam="1">  1        2 0.24248884E+00 0.76754471E+03</pdfrwt>
<pdfrwt beam="2">  1       -2 0.49018811E+00 0.76754471E+03</pdfrwt>
<totfact> 0.23407319E-02</totfact>
</mgrwt>
</event>
<event>
 4    5  0.2295023E-007  0.6943151E+03  0.7818608E-02  0.1002165E+00
         -2   -1    0    0    0  501 -0.00000000000E+00  0.00000000000E+00  0.65886195236E+03  0.65886195236E+03  0.25500000000E-02 0.  1.
          2   -1    0    0  501    0  0.00000000000E+00 -0.00000000000E+00 -0.87447387644E+03  0.87447387644E+03  0.25500000000E-02 0. -1.
    8880023    1    1    2    0    0 -0.21828409269E+03  0.24805748108E+02  0.44218043698E+03  0.82316281219E+03  0.65864270000E+03 0.  1.
    8880022    1    1    2    0    0  0.21828409269E+03 -0.24805748108E+02 -0.65779236106E+03  0.71017301662E+03  0.15294330000E+03 0.  0.
<mgrwt>
<rscale>  0 0.54710819E+03</rscale>
<asrwt>0</asrwt>
<pdfrwt beam="1">  1        2 0.13453444E+00 0.69431511E+03</pdfrwt>
<pdfrwt beam="2">  1       -2 0.10136338E+00 0.69431511E+03</pdfrwt>
<totfact> 0.24915896E+01</totfact>
</mgrwt>
</event>
<event>
 4    5  0.2295023E-007  0.8606581E+03  0.7818608E-02  0.9592394E-01
         -2   -1    0    0    0  501 -0.00000000000E+00  0.00000000000E+00  0.16812312840E+04  0.16812312840E+04  0.25500000000E-02 0.  1.
          2   -1    0    0  501    0  0.00000000000E+00 -0.00000000000E+00 -0.91926739636E+03  0.91926739637E+03  0.25500000000E-02 0. -1.
    8880023    1    1    2    0    0 -0.38631446082E+03 -0.39709346809E+03  0.14609232087E+04  0.16955910217E+04  0.65864270000E+03 0.  1.
    8880022    1    1    2    0    0  0.38631446082E+03  0.39709346809E+03 -0.69895932109E+03  0.90490765860E+03  0.15294330000E+03 0.  0.
<mgrwt>
<rscale>  0 0.77801650E+03</rscale>
<asrwt>0</asrwt>
<pdfrwt beam="1">  1        2 0.14142575E+00 0.86065806E+03</pdfrwt>
<pdfrwt beam="2">  1       -2 0.25865097E+00 0.86065806E+03</pdfrwt>
<totfact> 0.16459031E+00</totfact>
</mgrwt>
</event>
<event>
 4    5  0.2295023E-007  0.8368628E+03  0.7818608E-02  0.9636124E-01
         -2   -1    0    0    0  501 -0.00000000000E+00  0.00000000000E+00  0.10901383635E+04  0.10901383635E+04  0.25500000000E-02 0.  1.
          2   -1    0    0  501    0  0.00000000000E+00 -0.00000000000E+00 -0.74132450931E+03  0.74132450932E+03  0.25500000000E-02 0. -1.
    8880023    1    1    2    0    0 -0.11104817615E+03 -0.50417994041E+03  0.77819880246E+03  0.11427741212E+04  0.65864270000E+03 0.  0.
    8880022    1    1    2    0    0  0.11104817615E+03  0.50417994041E+03 -0.42938494828E+03  0.68868875159E+03  0.15294330000E+03 0.  0.
<mgrwt>
<rscale>  0 0.74950685E+03</rscale>
<asrwt>0</asrwt>
<pdfrwt beam="1">  1        2 0.11404992E+00 0.83686278E+03</pdfrwt>
<pdfrwt beam="2">  1       -2 0.16771359E+00 0.83686278E+03</pdfrwt>
<totfact> 0.84888796E+00</totfact>
</mgrwt>
</event>
<event>
 4    5  0.2295023E-007  0.1069052E+04  0.7818608E-02  0.9296322E-01
          2   -1    0    0  501    0  0.00000000000E+00  0.00000000000E+00  0.22534672763E+04  0.22534672763E+04  0.25500000000E-02 0. -1.
         -2   -1    0    0    0  501 -0.00000000000E+00 -0.00000000000E+00 -0.44063407102E+03  0.44063407103E+03  0.25500000000E-02 0.  1.
    8880023    1    1    2    0    0 -0.11824514541E+03  0.83371415557E+03  0.65306694918E+03  0.12527441295E+04  0.65864270000E+03 0.  0.
    8880022    1    1    2    0    0  0.11824514541E+03 -0.83371415557E+03  0.11597662561E+04  0.14413572179E+04  0.15294330000E+03 0.  0.
<mgrwt>
<rscale>  0 0.10112219E+04</rscale>
<asrwt>0</asrwt>
<pdfrwt beam="1">  1        2 0.34668728E+00 0.10690516E+04</pdfrwt>
<pdfrwt beam="2">  1       -2 0.67789856E-01 0.10690516E+04</pdfrwt>
<totfact> 0.95936652E+00</totfact>
</mgrwt>
</event>
<event>
 4    5  0.2295023E-007  0.9653968E+03  0.7818608E-02  0.9428299E-01
          2   -1    0    0  501    0  0.00000000000E+00  0.00000000000E+00  0.14026089415E+04  0.14026089415E+04  0.25500000000E-02 0. -1.
         -2   -1    0    0    0  501 -0.00000000000E+00 -0.00000000000E+00 -0.64745398254E+03  0.64745398254E+03  0.25500000000E-02 0.  1.
    8880023    1    1    2    0    0  0.29866044112E+02  0.70518702061E+03 -0.52228304227E+02  0.96680852119E+03  0.65864270000E+03 0.  0.
    8880022    1    1    2    0    0 -0.29866044112E+02 -0.70518702061E+03  0.80738326322E+03  0.10832544029E+04  0.15294330000E+03 0.  0.
<mgrwt>
<rscale>  0 0.89782915E+03</rscale>
<asrwt>0</asrwt>
<pdfrwt beam="1">  1        2 0.21578599E+00 0.96539677E+03</pdfrwt>
<pdfrwt beam="2">  1       -2 0.99608306E-01 0.96539677E+03</pdfrwt>
<totfact> 0.12002484E+01</totfact>
</mgrwt>
</event>
<event>
 4    5  0.2295023E-007  0.8720712E+03  0.7818608E-02  0.9572442E-01
          2   -1    0    0  501    0  0.00000000000E+00  0.00000000000E+00  0.23731119389E+04  0.23731119389E+04  0.25500000000E-02 0. -1.
         -2   -1    0    0    0  501 -0.00000000000E+00 -0.00000000000E+00 -0.46856358397E+03  0.46856358397E+03  0.25500000000E-02 0.  1.
    8880023    1    1    2    0    0 -0.47659642066E+02  0.56958452663E+03  0.26334918752E+02  0.87246874366E+03  0.65864270000E+03 0.  1.
    8880022    1    1    2    0    0  0.47659642066E+02 -0.56958452663E+03  0.18782134362E+04  0.19692067793E+04  0.15294330000E+03 0.  0.
<mgrwt>
<rscale>  0 0.79147347E+03</rscale>
<asrwt>0</asrwt>
<pdfrwt beam="1">  1        2 0.36509414E+00 0.87207120E+03</pdfrwt>
<pdfrwt beam="2">  1       -2 0.72086706E-01 0.87207120E+03</pdfrwt>
<totfact> 0.73649513E+00</totfact>
</mgrwt>
</event>
<event>
 4    5  0.2295023E-007  0.1438838E+04  0.7818608E-02  0.8954077E-01
          2   -1    0    0  501    0  0.00000000000E+00  0.00000000000E+00  0.23725427924E+04  0.23725427924E+04  0.25500000000E-02 0. -1.
         -2   -1    0    0    0  501 -0.00000000000E+00 -0.00000000000E+00 -0.10904846429E+04  0.10904846429E+04  0.25500000000E-02 0.  1.
    8880023    1    1    2    0    0 -0.12788021926E+04  0.33321004834E+02 -0.25093146808E+03  0.14605554235E+04  0.65864270000E+03 0.  1.
    8880022    1    1    2    0    0  0.12788021926E+04 -0.33321004834E+02  0.15329896176E+04  0.20024720118E+04  0.15294330000E+03 0.  0.
<mgrwt>
<rscale>  0 0.13996426E+04</rscale>
<asrwt>0</asrwt>
<pdfrwt beam="1">  1        2 0.36500658E+00 0.14388383E+04</pdfrwt>
<pdfrwt beam="2">  1       -2 0.16776687E+00 0.14388383E+04</pdfrwt>
<totfact> 0.86435964E-01</totfact>
</mgrwt>
</event>
<event>
 4    5  0.2295023E-007  0.8122107E+03  0.7818608E-02  0.9684990E-01
          2   -1    0    0  501    0  0.00000000000E+00  0.00000000000E+00  0.41620471770E+03  0.41620471771E+03  0.25500000000E-02 0. -1.
         -2   -1    0    0    0  501 -0.00000000000E+00 -0.00000000000E+00 -0.11393560269E+04  0.11393560269E+04  0.25500000000E-02 0.  1.
    8880023    1    1    2    0    0 -0.47353426133E+03  0.40513540790E+02 -0.67108698559E+03  0.10535862528E+04  0.65864270000E+03 0.  0.
    8880022    1    1    2    0    0  0.47353426133E+03 -0.40513540790E+02 -0.52064323649E+02  0.50197449184E+03  0.15294330000E+03 0.  0.
<mgrwt>
<rscale>  0 0.71917534E+03</rscale>
<asrwt>0</asrwt>
<pdfrwt beam="1">  1        2 0.64031496E-01 0.81221072E+03</pdfrwt>
<pdfrwt beam="2">  1       -2 0.17528554E+00 0.81221072E+03</pdfrwt>
<totfact> 0.15013588E+01</totfact>
</mgrwt>
</event>
<event>
 4    5  0.2295023E-007  0.1502994E+04  0.7818608E-02  0.8907525E-01
         -2   -1    0    0    0  501 -0.00000000000E+00  0.00000000000E+00  0.82581636839E+03  0.82581636840E+03  0.25500000000E-02 0.  1.
          2   -1    0    0  501    0  0.00000000000E+00 -0.00000000000E+00 -0.32672446777E+04  0.32672446777E+04  0.25500000000E-02 0. -1.
    8880023    1    1    2    0    0 -0.63522010876E+03 -0.11923402628E+04 -0.26399427449E+03  0.15260023172E+04  0.65864270000E+03 0.  0.
    8880022    1    1    2    0    0  0.63522010876E+03  0.11923402628E+04 -0.21774340348E+04  0.25670587289E+04  0.15294330000E+03 0.  0.
<mgrwt>
<rscale>  0 0.14657922E+04</rscale>
<asrwt>0</asrwt>
<pdfrwt beam="1">  1        2 0.50265302E+00 0.15029937E+04</pdfrwt>
<pdfrwt beam="2">  1       -2 0.12704867E+00 0.15029937E+04</pdfrwt>
<totfact> 0.51403401E-01</totfact>
</mgrwt>
</event>
<event>
 4    5  0.2295023E-007  0.6694853E+03  0.7818608E-02  0.1016035E+00
          2   -1    0    0  501    0  0.00000000000E+00  0.00000000000E+00  0.96954872113E+03  0.96954872113E+03  0.25500000000E-02 0. -1.
         -2   -1    0    0    0  501 -0.00000000000E+00 -0.00000000000E+00 -0.38266389450E+03  0.38266389451E+03  0.25500000000E-02 0.  1.
    8880023    1    1    2    0    0 -0.12566077074E+02 -0.11934195888E+03 -0.64359827220E+02  0.67257178283E+03  0.65864270000E+03 0.  1.
    8880022    1    1    2    0    0  0.12566077074E+02  0.11934195888E+03  0.65124465385E+03  0.67964083281E+03  0.15294330000E+03 0.  0.
<mgrwt>
<rscale>  0 0.49145174E+03</rscale>
<asrwt>0</asrwt>
<pdfrwt beam="1">  1        2 0.14916134E+00 0.66948534E+03</pdfrwt>
<pdfrwt beam="2">  1       -2 0.58871369E-01 0.66948534E+03</pdfrwt>
<totfact> 0.72571632E+01</totfact>
</mgrwt>
</event>
<event>
 4    5  0.2295023E-007  0.7336664E+03  0.7818608E-02  0.9878796E-01
         -2   -1    0    0    0  501 -0.00000000000E+00  0.00000000000E+00  0.10907915950E+04  0.10907915950E+04  0.25500000000E-02 0.  1.
          2   -1    0    0  501    0  0.00000000000E+00 -0.00000000000E+00 -0.48004048425E+03  0.48004048426E+03  0.25500000000E-02 0. -1.
    8880023    1    1    2    0    0 -0.20185434646E+03 -0.25241029471E+03  0.86340291840E+03  0.11330185082E+04  0.65864270000E+03 0.  1.
    8880022    1    1    2    0    0  0.20185434646E+03  0.25241029471E+03 -0.25265180769E+03  0.43781357106E+03  0.15294330000E+03 0.  0.
<mgrwt>
<rscale>  0 0.61300019E+03</rscale>
<asrwt>0</asrwt>
<pdfrwt beam="1">  1        2 0.73852383E-01 0.73366637E+03</pdfrwt>
<pdfrwt beam="2">  1       -2 0.16781409E+00 0.73366637E+03</pdfrwt>
<totfact> 0.14501890E+01</totfact>
</mgrwt>
</event>
<event>
 4    5  0.2295023E-007  0.1185296E+04  0.7818608E-02  0.9171550E-01
          2   -1    0    0  501    0  0.00000000000E+00  0.00000000000E+00  0.39217620638E+04  0.39217620638E+04  0.25500000000E-02 0. -1.
         -2   -1    0    0    0  501 -0.00000000000E+00 -0.00000000000E+00 -0.41688074421E+03  0.41688074422E+03  0.25500000000E-02 0.  1.
    8880023    1    1    2    0    0  0.59322717365E+03  0.78689152030E+03  0.73494886269E+03  0.13946600953E+04  0.65864270000E+03 0.  1.
    8880022    1    1    2    0    0 -0.59322717365E+03 -0.78689152030E+03  0.27699324569E+04  0.29439827128E+04  0.15294330000E+03 0.  0.
<mgrwt>
<rscale>  0 0.11351969E+04</rscale>
<asrwt>0</asrwt>
<pdfrwt beam="1">  1        2 0.60334800E+00 0.11852961E+04</pdfrwt>
<pdfrwt beam="2">  1       -2 0.64135501E-01 0.11852961E+04</pdfrwt>
<totfact> 0.90485856E-01</totfact>
</mgrwt>
</event>
<event>
 4    5  0.2295023E-007  0.7378941E+03  0.7818608E-02  0.9866124E-01
          2   -1    0    0  501    0  0.00000000000E+00  0.00000000000E+00  0.19027230629E+04  0.19027230629E+04  0.25500000000E-02 0. -1.
         -2   -1    0    0    0  501 -0.00000000000E+00 -0.00000000000E+00 -0.36371816343E+03  0.36371816344E+03  0.25500000000E-02 0.  1.
    8880023    1    1    2    0    0  0.35472131620E+02  0.33078577573E+03  0.57244424601E+02  0.74011122945E+03  0.65864270000E+03 0.  1.
    8880022    1    1    2    0    0 -0.35472131620E+02 -0.33078577573E+03  0.14817604749E+04  0.15263299969E+04  0.15294330000E+03 0.  0.
<mgrwt>
<rscale>  0 0.61931506E+03</rscale>
<asrwt>0</asrwt>
<pdfrwt beam="1">  1        2 0.29272663E+00 0.73789410E+03</pdfrwt>
<pdfrwt beam="2">  1       -2 0.55956640E-01 0.73789410E+03</pdfrwt>
<totfact> 0.23446743E+01</totfact>
</mgrwt>
</event>
<event>
 4    5  0.2295023E-007  0.8283431E+03  0.7818608E-02  0.9652565E-01
         -2   -1    0    0    0  501 -0.00000000000E+00  0.00000000000E+00  0.71189577522E+03  0.71189577523E+03  0.25500000000E-02 0.  1.
          2   -1    0    0  501    0  0.00000000000E+00 -0.00000000000E+00 -0.89758980317E+03  0.89758980317E+03  0.25500000000E-02 0. -1.
    8880023    1    1    2    0    0 -0.35755985159E+03  0.35283561099E+03  0.31281227686E+03  0.88543985830E+03  0.65864270000E+03 0.  1.
    8880022    1    1    2    0    0  0.35755985159E+03 -0.35283561099E+03 -0.49850630480E+03  0.72404572010E+03  0.15294330000E+03 0.  0.
<mgrwt>
<rscale>  0 0.73912672E+03</rscale>
<asrwt>0</asrwt>
<pdfrwt beam="1">  1        2 0.13809074E+00 0.82834306E+03</pdfrwt>
<pdfrwt beam="2">  1       -2 0.10952243E+00 0.82834306E+03</pdfrwt>
<totfact> 0.19695688E+01</totfact>
</mgrwt>
</event>
<event>
 4    5  0.2295023E-007  0.2773993E+04  0.7818608E-02  0.8317360E-01
          2   -1    0    0  501    0  0.00000000000E+00  0.00000000000E+00  0.42014943258E+04  0.42014943258E+04  0.25500000000E-02 0. -1.
         -2   -1    0    0    0  501 -0.00000000000E+00 -0.00000000000E+00 -0.19572093337E+04  0.19572093337E+04  0.25500000000E-02 0.  1.
    8880023    1    1    2    0    0 -0.26872781085E+04  0.19941421649E+03  0.21573662924E+03  0.27823698823E+04  0.65864270000E+03 0.  0.
    8880022    1    1    2    0    0  0.26872781085E+04 -0.19941421649E+03  0.20285483629E+04  0.33763337773E+04  0.15294330000E+03 0.  0.
<mgrwt>
<rscale>  0 0.27550530E+04</rscale>
<asrwt>0</asrwt>
<pdfrwt beam="1">  1        2 0.64638373E+00 0.27739935E+04</pdfrwt>
<pdfrwt beam="2">  1       -2 0.30110913E+00 0.27739935E+04</pdfrwt>
<totfact> 0.59222213E-03</totfact>
</mgrwt>
</event>
<event>
 4    5  0.2295023E-007  0.9319786E+03  0.7818608E-02  0.9476531E-01
         -2   -1    0    0    0  501 -0.00000000000E+00  0.00000000000E+00  0.16005889695E+04  0.16005889695E+04  0.25500000000E-02 0.  1.
          2   -1    0    0  501    0  0.00000000000E+00 -0.00000000000E+00 -0.10358369750E+04  0.10358369750E+04  0.25500000000E-02 0. -1.
    8880023    1    1    2    0    0  0.61449095634E+03  0.23911232128E+03  0.13240885469E+04  0.16191956410E+04  0.65864270000E+03 0.  0.
    8880022    1    1    2    0    0 -0.61449095634E+03 -0.23911232128E+03 -0.75933655241E+03  0.10172303035E+04  0.15294330000E+03 0.  0.
<mgrwt>
<rscale>  0 0.86036402E+03</rscale>
<asrwt>0</asrwt>
<pdfrwt beam="1">  1        2 0.15935954E+00 0.93197856E+03</pdfrwt>
<pdfrwt beam="2">  1       -2 0.24624446E+00 0.93197856E+03</pdfrwt>
<totfact> 0.16282246E+00</totfact>
</mgrwt>
</event>
<event>
 4    5  0.2295023E-007  0.6631223E+03  0.7818608E-02  0.1021163E+00
          2   -1    0    0  501    0  0.00000000000E+00  0.00000000000E+00  0.39540371903E+03  0.39540371903E+03  0.25500000000E-02 0. -1.
         -2   -1    0    0    0  501 -0.00000000000E+00 -0.00000000000E+00 -0.45128726325E+03  0.45128726325E+03  0.25500000000E-02 0.  1.
    8880023    1    1    2    0    0  0.66464891389E+02  0.38774389184E+02 -0.98136585964E+02  0.67034471044E+03  0.65864270000E+03 0.  0.
    8880022    1    1    2    0    0 -0.66464891389E+02 -0.38774389184E+02  0.42253041742E+02  0.17634627185E+03  0.15294330000E+03 0.  0.
<mgrwt>
<rscale>  0 0.47269086E+03</rscale>
<asrwt>0</asrwt>
<pdfrwt beam="1">  1        2 0.60831341E-01 0.66312234E+03</pdfrwt>
<pdfrwt beam="2">  1       -2 0.69428810E-01 0.66312234E+03</pdfrwt>
<totfact> 0.15454809E+02</totfact>
</mgrwt>
</event>
<event>
 4    5  0.2295023E-007  0.1331387E+04  0.7818608E-02  0.9038918E-01
          2   -1    0    0  501    0  0.00000000000E+00  0.00000000000E+00  0.26697657884E+04  0.26697657884E+04  0.25500000000E-02 0. -1.
         -2   -1    0    0    0  501 -0.00000000000E+00 -0.00000000000E+00 -0.61124852418E+03  0.61124852418E+03  0.25500000000E-02 0.  1.
    8880023    1    1    2    0    0 -0.89795798902E+03  0.72969386986E+03  0.75188609444E+03  0.15290273376E+04  0.65864270000E+03 0.  0.
    8880022    1    1    2    0    0  0.89795798902E+03 -0.72969386986E+03  0.13066311698E+04  0.17519869750E+04  0.15294330000E+03 0.  0.
<mgrwt>
<rscale>  0 0.12882713E+04</rscale>
<asrwt>0</asrwt>
<pdfrwt beam="1">  1        2 0.41073320E+00 0.13313872E+04</pdfrwt>
<pdfrwt beam="2">  1       -2 0.94038234E-01 0.13313872E+04</pdfrwt>
<totfact> 0.25674158E+00</totfact>
</mgrwt>
</event>
<event>
 4    5  0.2295023E-007  0.7571424E+03  0.7818608E-02  0.9812562E-01
          2   -1    0    0  501    0  0.00000000000E+00  0.00000000000E+00  0.65676843669E+03  0.65676843670E+03  0.25500000000E-02 0. -1.
         -2   -1    0    0    0  501 -0.00000000000E+00 -0.00000000000E+00 -0.10530929119E+04  0.10530929119E+04  0.25500000000E-02 0.  1.
    8880023    1    1    2    0    0  0.55211270473E+02  0.36933201149E+03 -0.82592417168E+03  0.11204531952E+04  0.65864270000E+03 0.  0.
    8880022    1    1    2    0    0 -0.55211270473E+02 -0.36933201149E+03  0.42959969644E+03  0.58940815340E+03  0.15294330000E+03 0. -1.
<mgrwt>
<rscale>  0 0.64692709E+03</rscale>
<asrwt>0</asrwt>
<pdfrwt beam="1">  1        2 0.10104130E+00 0.75714241E+03</pdfrwt>
<pdfrwt beam="2">  1       -2 0.16201429E+00 0.75714241E+03</pdfrwt>
<totfact> 0.10968470E+01</totfact>
</mgrwt>
</event>
<event>
 4    5  0.2295023E-007  0.7399695E+03  0.7818608E-02  0.9860036E-01
         -2   -1    0    0    0  501 -0.00000000000E+00  0.00000000000E+00  0.11585027064E+04  0.11585027065E+04  0.25500000000E-02 0.  1.
          2   -1    0    0  501    0  0.00000000000E+00 -0.00000000000E+00 -0.80847467892E+03  0.80847467893E+03  0.25500000000E-02 0. -1.
    8880023    1    1    2    0    0 -0.31902220433E+03  0.10940536775E+03  0.98495595542E+03  0.12319468908E+04  0.65864270000E+03 0.  0.
    8880022    1    1    2    0    0  0.31902220433E+03 -0.10940536775E+03 -0.63492792789E+03  0.73503049459E+03  0.15294330000E+03 0.  0.
<mgrwt>
<rscale>  0 0.62237832E+03</rscale>
<asrwt>0</asrwt>
<pdfrwt beam="1">  1        2 0.12438072E+00 0.73996953E+03</pdfrwt>
<pdfrwt beam="2">  1       -2 0.17823119E+00 0.73996953E+03</pdfrwt>
<totfact> 0.64634040E+00</totfact>
</mgrwt>
</event>
<event>
 4    5  0.2754125E-007  0.1402248E+04  0.7818608E-02  0.8981938E-01
          2   -1    0    0  501    0  0.00000000000E+00  0.00000000000E+00  0.26998319269E+04  0.26998319269E+04  0.25500000000E-02 0. -1.
         -2   -1    0    0    0  501 -0.00000000000E+00 -0.00000000000E+00 -0.13993534153E+04  0.13993534153E+04  0.25500000000E-02 0.  1.
    8880023    1    1    2    0    0 -0.12354865792E+04 -0.77865014942E+02 -0.83068327734E+03  0.16298266661E+04  0.65864270000E+03 0.  1.
    8880022    1    1    2    0    0  0.12354865792E+04  0.77865014942E+02  0.21311617889E+04  0.24693586762E+04  0.15294330000E+03 0.  0.
<mgrwt>
<rscale>  0 0.13618076E+04</rscale>
<asrwt>0</asrwt>
<pdfrwt beam="1">  1        2 0.41535876E+00 0.14022483E+04</pdfrwt>
<pdfrwt beam="2">  1       -2 0.21528514E+00 0.14022483E+04</pdfrwt>
<totfact> 0.26757165E-01</totfact>
</mgrwt>
</event>
<event>
 4    5  0.2295023E-007  0.1811156E+04  0.7818608E-02  0.8716390E-01
          2   -1    0    0  501    0  0.00000000000E+00  0.00000000000E+00  0.13360622515E+04  0.13360622515E+04  0.25500000000E-02 0. -1.
         -2   -1    0    0    0  501 -0.00000000000E+00 -0.00000000000E+00 -0.54412603374E+04  0.54412603374E+04  0.25500000000E-02 0.  1.
    8880023    1    1    2    0    0 -0.85911882728E+03  0.14520300209E+04 -0.46560805681E+04  0.49959356285E+04  0.65864270000E+03 0.  0.
    8880022    1    1    2    0    0  0.85911882728E+03 -0.14520300209E+04  0.55088248220E+03  0.17813869605E+04  0.15294330000E+03 0.  0.
<mgrwt>
<rscale>  0 0.17811466E+04</rscale>
<asrwt>0</asrwt>
<pdfrwt beam="1">  1        2 0.20554804E+00 0.18111561E+04</pdfrwt>
<pdfrwt beam="2">  1       -2 0.83711696E+00 0.18111561E+04</pdfrwt>
<totfact> 0.62476912E-04</totfact>
</mgrwt>
</event>
<event>
 4    5  0.2295023E-007  0.8538653E+03  0.7818608E-02  0.9604570E-01
         -2   -1    0    0    0  501 -0.00000000000E+00  0.00000000000E+00  0.54117029506E+03  0.54117029507E+03  0.25500000000E-02 0.  1.
          2   -1    0    0  501    0  0.00000000000E+00 -0.00000000000E+00 -0.29494966752E+04  0.29494966752E+04  0.25500000000E-02 0. -1.
    8880023    1    1    2    0    0 -0.14028093872E+03 -0.52497333716E+03  0.15335211723E+03  0.86752684375E+03  0.65864270000E+03 0.  1.
    8880022    1    1    2    0    0  0.14028093872E+03  0.52497333716E+03 -0.25616784974E+04  0.26231401265E+04  0.15294330000E+03 0.  0.
<mgrwt>
<rscale>  0 0.76994416E+03</rscale>
<asrwt>0</asrwt>
<pdfrwt beam="1">  1        2 0.45376871E+00 0.85386530E+03</pdfrwt>
<pdfrwt beam="2">  1       -2 0.83256970E-01 0.85386530E+03</pdfrwt>
<totfact> 0.24698537E+00</totfact>
</mgrwt>
</event>
<event>
 4    5  0.2295023E-007  0.8299735E+03  0.7818608E-02  0.9649384E-01
         -2   -1    0    0    0  501 -0.00000000000E+00  0.00000000000E+00  0.28977054356E+03  0.28977054357E+03  0.25500000000E-02 0.  1.
          2   -1    0    0  501    0  0.00000000000E+00 -0.00000000000E+00 -0.24903690320E+04  0.24903690320E+04  0.25500000000E-02 0. -1.
    8880023    1    1    2    0    0 -0.14798720437E+03  0.48285155017E+03 -0.43435898643E+03  0.93676238583E+03  0.65864270000E+03 0.  1.
    8880022    1    1    2    0    0  0.14798720437E+03 -0.48285155017E+03 -0.17662395020E+04  0.18433771897E+04  0.15294330000E+03 0.  0.
<mgrwt>
<rscale>  0 0.74112103E+03</rscale>
<asrwt>0</asrwt>
<pdfrwt beam="1">  1        2 0.38313368E+00 0.82997352E+03</pdfrwt>
<pdfrwt beam="2">  1       -2 0.44580085E-01 0.82997352E+03</pdfrwt>
<totfact> 0.17397463E+01</totfact>
</mgrwt>
</event>
<event>
 4    5  0.2295023E-007  0.1100315E+04  0.7818608E-02  0.9260706E-01
         -2   -1    0    0    0  501 -0.00000000000E+00  0.00000000000E+00  0.11299601367E+04  0.11299601367E+04  0.25500000000E-02 0.  1.
          2   -1    0    0  501    0  0.00000000000E+00 -0.00000000000E+00 -0.11662535217E+04  0.11662535217E+04  0.25500000000E-02 0. -1.
    8880023    1    1    2    0    0  0.78943673674E+03  0.39200976872E+03  0.54648442296E+03  0.12285509558E+04  0.65864270000E+03 0.  0.
    8880022    1    1    2    0    0 -0.78943673674E+03 -0.39200976872E+03 -0.58277780793E+03  0.10676627026E+04  0.15294330000E+03 0.  0.
<mgrwt>
<rscale>  0 0.10448224E+04</rscale>
<asrwt>0</asrwt>
<pdfrwt beam="1">  1        2 0.17942362E+00 0.11003146E+04</pdfrwt>
<pdfrwt beam="2">  1       -2 0.17384002E+00 0.11003146E+04</pdfrwt>
<totfact> 0.38980425E+00</totfact>
</mgrwt>
</event>
<event>
 4    5  0.2295023E-007  0.1240757E+04  0.7818608E-02  0.9118487E-01
         -2   -1    0    0    0  501 -0.00000000000E+00  0.00000000000E+00  0.71185425714E+03  0.71185425715E+03  0.25500000000E-02 0.  1.
          2   -1    0    0  501    0  0.00000000000E+00 -0.00000000000E+00 -0.28176582889E+04  0.28176582889E+04  0.25500000000E-02 0. -1.
    8880023    1    1    2    0    0 -0.98439944334E+03 -0.36962806235E+03 -0.81685388560E+02  0.12434427520E+04  0.65864270000E+03 0.  0.
    8880022    1    1    2    0    0  0.98439944334E+03  0.36962806235E+03 -0.20241186432E+04  0.22860697940E+04  0.15294330000E+03 0.  0.
<mgrwt>
<rscale>  0 0.11935883E+04</rscale>
<asrwt>0</asrwt>
<pdfrwt beam="1">  1        2 0.43348588E+00 0.12407568E+04</pdfrwt>
<pdfrwt beam="2">  1       -2 0.10951604E+00 0.12407568E+04</pdfrwt>
<totfact> 0.14701271E+00</totfact>
</mgrwt>
</event>
<event>
 4    5  0.2295023E-007  0.1699181E+04  0.7818608E-02  0.8780456E-01
         -2   -1    0    0    0  501 -0.00000000000E+00  0.00000000000E+00  0.15671076710E+04  0.15671076710E+04  0.25500000000E-02 0.  1.
          2   -1    0    0  501    0  0.00000000000E+00 -0.00000000000E+00 -0.18488743722E+04  0.18488743722E+04  0.25500000000E-02 0. -1.
    8880023    1    1    2    0    0  0.10625337908E+04 -0.11508381953E+04  0.32371408976E+03  0.17297420694E+04  0.65864270000E+03 0.  0.
    8880022    1    1    2    0    0 -0.10625337908E+04  0.11508381953E+04 -0.60548079094E+03  0.16862399739E+04  0.15294330000E+03 0.  0.
<mgrwt>
<rscale>  0 0.16669252E+04</rscale>
<asrwt>0</asrwt>
<pdfrwt beam="1">  1        2 0.28444221E+00 0.16991812E+04</pdfrwt>
<pdfrwt beam="2">  1       -2 0.24109349E+00 0.16991812E+04</pdfrwt>
<totfact> 0.54402446E-01</totfact>
</mgrwt>
</event>
<event>
 4    5  0.2295023E-007  0.7733784E+03  0.7818608E-02  0.9771628E-01
         -2   -1    0    0    0  501 -0.00000000000E+00  0.00000000000E+00  0.40399828364E+03  0.40399828365E+03  0.25500000000E-02 0.  1.
          2   -1    0    0  501    0  0.00000000000E+00 -0.00000000000E+00 -0.13101658769E+04  0.13101658769E+04  0.25500000000E-02 0. -1.
    8880023    1    1    2    0    0 -0.26382515874E+03 -0.30773398880E+03 -0.75182776703E+02  0.77702418136E+03  0.65864270000E+03 0.  1.
    8880022    1    1    2    0    0  0.26382515874E+03  0.30773398880E+03 -0.83098481659E+03  0.93713997923E+03  0.15294330000E+03 0.  0.
<mgrwt>
<rscale>  0 0.66907650E+03</rscale>
<asrwt>0</asrwt>
<pdfrwt beam="1">  1        2 0.20156398E+00 0.77337839E+03</pdfrwt>
<pdfrwt beam="2">  1       -2 0.62153583E-01 0.77337839E+03</pdfrwt>
<totfact> 0.39863802E+01</totfact>
</mgrwt>
</event>
<event>
 4    5  0.2295023E-007  0.1553856E+04  0.7818608E-02  0.8872514E-01
         -2   -1    0    0    0  501 -0.00000000000E+00  0.00000000000E+00  0.98632959129E+03  0.98632959130E+03  0.25500000000E-02 0.  1.
          2   -1    0    0  501    0  0.00000000000E+00 -0.00000000000E+00 -0.30645549825E+04  0.30645549825E+04  0.25500000000E-02 0. -1.
    8880023    1    1    2    0    0 -0.64760786745E+03  0.12495049958E+04 -0.21441012612E+02  0.15540040565E+04  0.65864270000E+03 0.  1.
    8880022    1    1    2    0    0  0.64760786745E+03 -0.12495049958E+04 -0.20567843786E+04  0.24968805173E+04  0.15294330000E+03 0.  0.
<mgrwt>
<rscale>  0 0.15180871E+04</rscale>
<asrwt>0</asrwt>
<pdfrwt beam="1">  1        2 0.47147000E+00 0.15538561E+04</pdfrwt>
<pdfrwt beam="2">  1       -2 0.15174301E+00 0.15538561E+04</pdfrwt>
<totfact> 0.43400922E-01</totfact>
</mgrwt>
</event>
<event>
 4    5  0.2295023E-007  0.8086295E+03  0.7818608E-02  0.9692439E-01
          2   -1    0    0  501    0  0.00000000000E+00  0.00000000000E+00  0.86367330508E+03  0.86367330508E+03  0.25500000000E-02 0. -1.
         -2   -1    0    0    0  501 -0.00000000000E+00 -0.00000000000E+00 -0.61586848163E+03  0.61586848164E+03  0.25500000000E-02 0.  1.
    8880023    1    1    2    0    0 -0.23410532228E+03  0.40652947105E+03 -0.17777741299E+03  0.82794113775E+03  0.65864270000E+03 0.  0.
    8880022    1    1    2    0    0  0.23410532228E+03 -0.40652947105E+03  0.42558223644E+03  0.65160064897E+03  0.15294330000E+03 0.  0.
<mgrwt>
<rscale>  0 0.71468778E+03</rscale>
<asrwt>0</asrwt>
<pdfrwt beam="1">  1        2 0.13287282E+00 0.80862953E+03</pdfrwt>
<pdfrwt beam="2">  1       -2 0.94748997E-01 0.80862953E+03</pdfrwt>
<totfact> 0.29395989E+01</totfact>
</mgrwt>
</event>
<event>
 4    5  0.3448561E-007  0.1015923E+04  0.7818608E-02  0.9361016E-01
         -2   -1    0    0    0  501 -0.00000000000E+00  0.00000000000E+00  0.24910386312E+04  0.24910386312E+04  0.25500000000E-02 0.  1.
          2   -1    0    0  501    0  0.00000000000E+00 -0.00000000000E+00 -0.14256514151E+04  0.14256514151E+04  0.25500000000E-02 0. -1.
    8880023    1    1    2    0    0 -0.77188213693E+03 -0.49867552079E+02  0.22642880161E+04  0.24817532577E+04  0.65864270000E+03 0.  1.
    8880022    1    1    2    0    0  0.77188213693E+03  0.49867552079E+02 -0.11989008000E+04  0.14349367886E+04  0.15294330000E+03 0.  0.
<mgrwt>
<rscale>  0 0.95354548E+03</rscale>
<asrwt>0</asrwt>
<pdfrwt beam="1">  1        2 0.21933099E+00 0.10159227E+04</pdfrwt>
<pdfrwt beam="2">  1       -2 0.38323671E+00 0.10159227E+04</pdfrwt>
<totfact> 0.13527754E-01</totfact>
</mgrwt>
</event>
<event>
 4    5  0.2295023E-007  0.9422148E+03  0.7818608E-02  0.9461405E-01
         -2   -1    0    0    0  501 -0.00000000000E+00  0.00000000000E+00  0.46340070053E+03  0.46340070054E+03  0.25500000000E-02 0.  1.
          2   -1    0    0  501    0  0.00000000000E+00 -0.00000000000E+00 -0.18590755706E+04  0.18590755706E+04  0.25500000000E-02 0. -1.
    8880023    1    1    2    0    0  0.40335498025E+03  0.53968807412E+03 -0.23394625873E+03  0.97082414251E+03  0.65864270000E+03 0.  0.
    8880022    1    1    2    0    0 -0.40335498025E+03 -0.53968807412E+03 -0.11617286114E+04  0.13516521287E+04  0.15294330000E+03 0.  0.
<mgrwt>
<rscale>  0 0.87190076E+03</rscale>
<asrwt>0</asrwt>
<pdfrwt beam="1">  1        2 0.28601162E+00 0.94221477E+03</pdfrwt>
<pdfrwt beam="2">  1       -2 0.71292417E-01 0.94221477E+03</pdfrwt>
<totfact> 0.14394025E+01</totfact>
</mgrwt>
</event>
<event>
 4    5  0.2295023E-007  0.8297183E+03  0.7818608E-02  0.9649881E-01
          2   -1    0    0  501    0  0.00000000000E+00  0.00000000000E+00  0.96759148410E+03  0.96759148410E+03  0.25500000000E-02 0. -1.
         -2   -1    0    0    0  501 -0.00000000000E+00 -0.00000000000E+00 -0.10896298606E+04  0.10896298606E+04  0.25500000000E-02 0.  1.
    8880023    1    1    2    0    0 -0.30895745161E+03 -0.39895805070E+03 -0.83058753646E+03  0.11740136691E+04  0.65864270000E+03 0.  0.
    8880022    1    1    2    0    0  0.30895745161E+03  0.39895805070E+03  0.70854916000E+03  0.88320767562E+03  0.15294330000E+03 0.  0.
<mgrwt>
<rscale>  0 0.74080910E+03</rscale>
<asrwt>0</asrwt>
<pdfrwt beam="1">  1        2 0.14886023E+00 0.82971829E+03</pdfrwt>
<pdfrwt beam="2">  1       -2 0.16763536E+00 0.82971829E+03</pdfrwt>
<totfact> 0.59140603E+00</totfact>
</mgrwt>
</event>
<event>
 4    5  0.2295023E-007  0.6594385E+03  0.7818608E-02  0.1024739E+00
          2   -1    0    0  501    0  0.00000000000E+00  0.00000000000E+00  0.16395855889E+04  0.16395855889E+04  0.25500000000E-02 0. -1.
         -2   -1    0    0    0  501 -0.00000000000E+00 -0.00000000000E+00 -0.10189100497E+03  0.10189100500E+03  0.25500000000E-02 0.  1.
    8880023    1    1    2    0    0 -0.25124492344E+02  0.20437127782E+02  0.11970328383E+04  0.13666553108E+04  0.65864270000E+03 0.  0.
    8880022    1    1    2    0    0  0.25124492344E+02 -0.20437127782E+02  0.34066174564E+03  0.37482128310E+03  0.15294330000E+03 0.  0.
<mgrwt>
<rscale>  0 0.46014492E+03</rscale>
<asrwt>0</asrwt>
<pdfrwt beam="1">  1        2 0.25224390E+00 0.65943849E+03</pdfrwt>
<pdfrwt beam="2">  1       -2 0.15675541E-01 0.65943849E+03</pdfrwt>
<totfact> 0.35209524E+02</totfact>
</mgrwt>
</event>
<event>
 4    5  0.2295023E-007  0.6888014E+03  0.7818608E-02  0.1004728E+00
          2   -1    0    0  501    0  0.00000000000E+00  0.00000000000E+00  0.17916958273E+04  0.17916958273E+04  0.25500000000E-02 0. -1.
         -2   -1    0    0    0  501 -0.00000000000E+00 -0.00000000000E+00 -0.23565992193E+03  0.23565992194E+03  0.25500000000E-02 0.  1.
    8880023    1    1    2    0    0  0.19925346650E+03 -0.30582152468E+02  0.30905197639E+03  0.75495731160E+03  0.65864270000E+03 0.  1.
    8880022    1    1    2    0    0 -0.19925346650E+03  0.30582152468E+02  0.12469839290E+04  0.12723984376E+04  0.15294330000E+03 0.  0.
<mgrwt>
<rscale>  0 0.53625025E+03</rscale>
<asrwt>0</asrwt>
<pdfrwt beam="1">  1        2 0.27564552E+00 0.68880144E+03</pdfrwt>
<pdfrwt beam="2">  1       -2 0.36255372E-01 0.68880144E+03</pdfrwt>
<totfact> 0.64434506E+01</totfact>
</mgrwt>
</event>
<event>
 4    5  0.2295023E-007  0.7903916E+03  0.7818608E-02  0.9731970E-01
         -2   -1    0    0    0  501 -0.00000000000E+00  0.00000000000E+00  0.20824242418E+03  0.20824242419E+03  0.25500000000E-02 0.  1.
          2   -1    0    0  501    0  0.00000000000E+00 -0.00000000000E+00 -0.37984043194E+04  0.37984043194E+04  0.25500000000E-02 0. -1.
    8880023    1    1    2    0    0  0.24439027399E+02 -0.43624702571E+03 -0.63067377872E+03  0.10111717732E+04  0.65864270000E+03 0.  1.
    8880022    1    1    2    0    0 -0.24439027399E+02  0.43624702571E+03 -0.29594881165E+04  0.29954749704E+04  0.15294330000E+03 0.  0.
<mgrwt>
<rscale>  0 0.69144815E+03</rscale>
<asrwt>0</asrwt>
<pdfrwt beam="1">  1        2 0.58436984E+00 0.79039164E+03</pdfrwt>
<pdfrwt beam="2">  1       -2 0.32037299E-01 0.79039164E+03</pdfrwt>
<totfact> 0.48494367E+00</totfact>
</mgrwt>
</event>
<event>
 4    5  0.2295023E-007  0.8759806E+03  0.7818608E-02  0.9565746E-01
          2   -1    0    0  501    0  0.00000000000E+00  0.00000000000E+00  0.17920703202E+04  0.17920703202E+04  0.25500000000E-02 0. -1.
         -2   -1    0    0    0  501 -0.00000000000E+00 -0.00000000000E+00 -0.78171419995E+03  0.78171419995E+03  0.25500000000E-02 0.  1.
    8880023    1    1    2    0    0  0.32032564914E+03  0.48054481891E+03 -0.45803990916E+03  0.98850523981E+03  0.65864270000E+03 0.  0.
    8880022    1    1    2    0    0 -0.32032564914E+03 -0.48054481891E+03  0.14683960294E+04  0.15852792804E+04  0.15294330000E+03 0.  0.
<mgrwt>
<rscale>  0 0.79605444E+03</rscale>
<asrwt>0</asrwt>
<pdfrwt beam="1">  1        2 0.27570312E+00 0.87598062E+03</pdfrwt>
<pdfrwt beam="2">  1       -2 0.12026372E+00 0.87598062E+03</pdfrwt>
<totfact> 0.46600951E+00</totfact>
</mgrwt>
</event>
<event>
 4    5  0.2295023E-007  0.6599032E+03  0.7818608E-02  0.1024256E+00
         -2   -1    0    0    0  501 -0.00000000000E+00  0.00000000000E+00  0.48421408103E+03  0.48421408104E+03  0.25500000000E-02 0.  1.
          2   -1    0    0  501    0  0.00000000000E+00 -0.00000000000E+00 -0.43143176709E+03  0.43143176709E+03  0.25500000000E-02 0. -1.
    8880023    1    1    2    0    0  0.39180074649E+02 -0.11266125114E+02  0.21003972601E+03  0.69252357114E+03  0.65864270000E+03 0.  1.
    8880022    1    1    2    0    0 -0.39180074649E+02  0.11266125114E+02 -0.15725741206E+03  0.22312227699E+03  0.15294330000E+03 0.  0.
<mgrwt>
<rscale>  0 0.46181609E+03</rscale>
<asrwt>0</asrwt>
<pdfrwt beam="1">  1        2 0.66374118E-01 0.65990318E+03</pdfrwt>
<pdfrwt beam="2">  1       -2 0.74494474E-01 0.65990318E+03</pdfrwt>
<totfact> 0.12006650E+02</totfact>
</mgrwt>
</event>
<event>
 4    5  0.2295023E-007  0.8365230E+03  0.7818608E-02  0.9636772E-01
          2   -1    0    0  501    0  0.00000000000E+00  0.00000000000E+00  0.18982650964E+04  0.18982650965E+04  0.25500000000E-02 0. -1.
         -2   -1    0    0    0  501 -0.00000000000E+00 -0.00000000000E+00 -0.40419305568E+03  0.40419305569E+03  0.25500000000E-02 0.  1.
    8880023    1    1    2    0    0 -0.48362410172E+03 -0.17907630939E+03  0.14354822731E+03  0.84875019657E+03  0.65864270000E+03 0.  0.
    8880022    1    1    2    0    0  0.48362410172E+03  0.17907630939E+03  0.13505238135E+04  0.14537079556E+04  0.15294330000E+03 0.  0.
<mgrwt>
<rscale>  0 0.74909481E+03</rscale>
<asrwt>0</asrwt>
<pdfrwt beam="1">  1        2 0.29204078E+00 0.83652304E+03</pdfrwt>
<pdfrwt beam="2">  1       -2 0.62183548E-01 0.83652304E+03</pdfrwt>
<totfact> 0.18643614E+01</totfact>
</mgrwt>
</event>
<event>
 4    5  0.2295023E-007  0.1266791E+04  0.7818608E-02  0.9094782E-01
          2   -1    0    0  501    0  0.00000000000E+00  0.00000000000E+00  0.17595356790E+04  0.17595356790E+04  0.25500000000E-02 0. -1.
         -2   -1    0    0    0  501 -0.00000000000E+00 -0.00000000000E+00 -0.85893021656E+03  0.85893021656E+03  0.25500000000E-02 0.  1.
    8880023    1    1    2    0    0 -0.90330174885E+03  0.59581471248E+03  0.11390739564E+03  0.12719018524E+04  0.65864270000E+03 0.  0.
    8880022    1    1    2    0    0  0.90330174885E+03 -0.59581471248E+03  0.78669806685E+03  0.13465640432E+04  0.15294330000E+03 0.  0.
<mgrwt>
<rscale>  0 0.12208710E+04</rscale>
<asrwt>0</asrwt>
<pdfrwt beam="1">  1        2 0.27069779E+00 0.12667910E+04</pdfrwt>
<pdfrwt beam="2">  1       -2 0.13214311E+00 0.12667910E+04</pdfrwt>
<totfact> 0.36632492E+00</totfact>
</mgrwt>
</event>
<event>
 4    5  0.2295023E-007  0.8008649E+03  0.7818608E-02  0.9708929E-01
         -2   -1    0    0    0  501 -0.00000000000E+00  0.00000000000E+00  0.49913795614E+03  0.49913795615E+03  0.25500000000E-02 0.  1.
          2   -1    0    0  501    0  0.00000000000E+00 -0.00000000000E+00 -0.19339667570E+04  0.19339667570E+04  0.25500000000E-02 0. -1.
    8880023    1    1    2    0    0  0.34623893568E+02  0.45428576954E+03  0.11626860819E+03  0.80926075521E+03  0.65864270000E+03 0.  1.
    8880022    1    1    2    0    0 -0.34623893568E+02 -0.45428576954E+03 -0.15510974091E+04  0.16238439580E+04  0.15294330000E+03 0.  0.
<mgrwt>
<rscale>  0 0.70487638E+03</rscale>
<asrwt>0</asrwt>
<pdfrwt beam="1">  1        2 0.29753334E+00 0.80086490E+03</pdfrwt>
<pdfrwt beam="2">  1       -2 0.76790456E-01 0.80086490E+03</pdfrwt>
<totfact> 0.11305091E+01</totfact>
</mgrwt>
</event>
<event>
 4    5  0.2295023E-007  0.6875247E+03  0.7818608E-02  0.1005352E+00
         -2   -1    0    0    0  501 -0.00000000000E+00  0.00000000000E+00  0.18459487743E+03  0.18459487745E+03  0.25500000000E-02 0.  1.
          2   -1    0    0  501    0  0.00000000000E+00 -0.00000000000E+00 -0.13990876737E+04  0.13990876737E+04  0.25500000000E-02 0. -1.
    8880023    1    1    2    0    0  0.13931975046E+03  0.13953502688E+03 -0.57174914468E+03  0.89419645901E+03  0.65864270000E+03 0.  1.
    8880022    1    1    2    0    0 -0.13931975046E+03 -0.13953502688E+03 -0.64274365162E+03  0.68948609218E+03  0.15294330000E+03 0.  0.
<mgrwt>
<rscale>  0 0.53364512E+03</rscale>
<asrwt>0</asrwt>
<pdfrwt beam="1">  1        2 0.21524425E+00 0.68752471E+03</pdfrwt>
<pdfrwt beam="2">  1       -2 0.28399213E-01 0.68752471E+03</pdfrwt>
<totfact> 0.16763338E+02</totfact>
</mgrwt>
</event>
<event>
 4    5  0.2295023E-007  0.9028657E+03  0.7818608E-02  0.9521447E-01
          2   -1    0    0  501    0  0.00000000000E+00  0.00000000000E+00  0.34866979964E+04  0.34866979964E+04  0.25500000000E-02 0. -1.
         -2   -1    0    0    0  501 -0.00000000000E+00 -0.00000000000E+00 -0.28011194301E+03  0.28011194302E+03  0.25500000000E-02 0.  1.
    8880023    1    1    2    0    0 -0.16644190700E+03  0.59468768613E+03  0.60082235722E+03  0.10845063686E+04  0.65864270000E+03 0.  0.
    8880022    1    1    2    0    0  0.16644190700E+03 -0.59468768613E+03  0.26057636962E+04  0.26823035708E+04  0.15294330000E+03 0.  0.
<mgrwt>
<rscale>  0 0.82720942E+03</rscale>
<asrwt>0</asrwt>
<pdfrwt beam="1">  1        2 0.53641512E+00 0.90286575E+03</pdfrwt>
<pdfrwt beam="2">  1       -2 0.43094142E-01 0.90286575E+03</pdfrwt>
<totfact> 0.44656645E+00</totfact>
</mgrwt>
</event>
<event>
 4    5  0.2295023E-007  0.7091622E+03  0.7818608E-02  0.9961125E-01
         -2   -1    0    0    0  501 -0.00000000000E+00  0.00000000000E+00  0.26533621172E+03  0.26533621173E+03  0.25500000000E-02 0.  1.
          2   -1    0    0  501    0  0.00000000000E+00 -0.00000000000E+00 -0.34701605515E+04  0.34701605515E+04  0.25500000000E-02 0. -1.
    8880023    1    1    2    0    0 -0.19160098282E+03 -0.17997199083E+03 -0.23052539532E+03  0.74568962595E+03  0.65864270000E+03 0.  1.
    8880022    1    1    2    0    0  0.19160098282E+03  0.17997199083E+03 -0.29742989444E+04  0.29898071373E+04  0.15294330000E+03 0.  0.
<mgrwt>
<rscale>  0 0.57388188E+03</rscale>
<asrwt>0</asrwt>
<pdfrwt beam="1">  1        2 0.53387082E+00 0.70916222E+03</pdfrwt>
<pdfrwt beam="2">  1       -2 0.40820958E-01 0.70916222E+03</pdfrwt>
<totfact> 0.52918183E+00</totfact>
</mgrwt>
</event>
<event>
 4    5  0.2295023E-007  0.1019261E+04  0.7818608E-02  0.9356782E-01
         -2   -1    0    0    0  501 -0.00000000000E+00  0.00000000000E+00  0.25002751820E+04  0.25002751820E+04  0.25500000000E-02 0.  1.
          2   -1    0    0  501    0  0.00000000000E+00 -0.00000000000E+00 -0.73241754835E+03  0.73241754835E+03  0.25500000000E-02 0. -1.
    8880023    1    1    2    0    0 -0.72161028666E+03  0.29044913042E+03  0.21298625109E+04  0.23611875454E+04  0.65864270000E+03 0.  1.
    8880022    1    1    2    0    0  0.72161028666E+03 -0.29044913042E+03 -0.36200487724E+03  0.87150518492E+03  0.15294330000E+03 0.  0.
<mgrwt>
<rscale>  0 0.95719372E+03</rscale>
<asrwt>0</asrwt>
<pdfrwt beam="1">  1        2 0.11267962E+00 0.10192607E+04</pdfrwt>
<pdfrwt beam="2">  1       -2 0.38465773E+00 0.10192607E+04</pdfrwt>
<totfact> 0.36617808E-01</totfact>
</mgrwt>
</event>
<event>
 4    5  0.2295023E-007  0.7457412E+03  0.7818608E-02  0.9843528E-01
         -2   -1    0    0    0  501 -0.00000000000E+00  0.00000000000E+00  0.53621503165E+03  0.53621503166E+03  0.25500000000E-02 0.  1.
          2   -1    0    0  501    0  0.00000000000E+00 -0.00000000000E+00 -0.75616084966E+03  0.75616084966E+03  0.25500000000E-02 0. -1.
    8880023    1    1    2    0    0  0.28108917737E+03 -0.20810735155E+03  0.15013896624E+03  0.76070474617E+03  0.65864270000E+03 0.  0.
    8880022    1    1    2    0    0 -0.28108917737E+03  0.20810735155E+03 -0.37008478424E+03  0.53167113515E+03  0.15294330000E+03 0.  0.
<mgrwt>
<rscale>  0 0.63077988E+03</rscale>
<asrwt>0</asrwt>
<pdfrwt beam="1">  1        2 0.11633244E+00 0.74574124E+03</pdfrwt>
<pdfrwt beam="2">  1       -2 0.82494620E-01 0.74574124E+03</pdfrwt>
<totfact> 0.48505391E+01</totfact>
</mgrwt>
</event>
<event>
 4    5  0.2295023E-007  0.6812932E+03  0.7818608E-02  0.1008601E+00
         -2   -1    0    0    0  501 -0.00000000000E+00  0.00000000000E+00  0.40769382286E+03  0.40769382287E+03  0.25500000000E-02 0.  1.
          2   -1    0    0  501    0  0.00000000000E+00 -0.00000000000E+00 -0.79185022347E+03  0.79185022348E+03  0.25500000000E-02 0. -1.
    8880023    1    1    2    0    0  0.82331256970E+02 -0.15353121653E+03  0.74775181590E+02  0.68538442087E+03  0.65864270000E+03 0.  1.
    8880022    1    1    2    0    0 -0.82331256970E+02  0.15353121653E+03 -0.45893158220E+03  0.51415962548E+03  0.15294330000E+03 0.  1.
<mgrwt>
<rscale>  0 0.52034299E+03</rscale>
<asrwt>0</asrwt>
<pdfrwt beam="1">  1        2 0.12182311E+00 0.68129324E+03</pdfrwt>
<pdfrwt beam="2">  1       -2 0.62722126E-01 0.68129324E+03</pdfrwt>
<totfact> 0.83757340E+01</totfact>
</mgrwt>
</event>
<event>
 4    5  0.2295023E-007  0.2048151E+04  0.7818608E-02  0.8596422E-01
          2   -1    0    0  501    0  0.00000000000E+00  0.00000000000E+00  0.27014001588E+04  0.27014001588E+04  0.25500000000E-02 0. -1.
         -2   -1    0    0    0  501 -0.00000000000E+00 -0.00000000000E+00 -0.16179104553E+04  0.16179104553E+04  0.25500000000E-02 0.  1.
    8880023    1    1    2    0    0  0.18471892082E+04  0.59076563693E+03  0.11940402552E+04  0.23707919238E+04  0.65864270000E+03 0.  0.
    8880022    1    1    2    0    0 -0.18471892082E+04 -0.59076563693E+03 -0.11055055176E+03  0.19485186903E+04  0.15294330000E+03 0.  0.
<mgrwt>
<rscale>  0 0.20219601E+04</rscale>
<asrwt>0</asrwt>
<pdfrwt beam="1">  1        2 0.41560003E+00 0.20481509E+04</pdfrwt>
<pdfrwt beam="2">  1       -2 0.24890930E+00 0.20481509E+04</pdfrwt>
<totfact> 0.15311856E-01</totfact>
</mgrwt>
</event>
<event>
 4    5  0.2295023E-007  0.7435508E+03  0.7818608E-02  0.9849722E-01
         -2   -1    0    0    0  501 -0.00000000000E+00  0.00000000000E+00  0.10444779655E+04  0.10444779655E+04  0.25500000000E-02 0.  1.
          2   -1    0    0  501    0  0.00000000000E+00 -0.00000000000E+00 -0.86218626094E+03  0.86218626095E+03  0.25500000000E-02 0. -1.
    8880023    1    1    2    0    0 -0.32298035946E+03 -0.12141340584E+03  0.85636508079E+03  0.11341203135E+04  0.65864270000E+03 0.  1.
    8880022    1    1    2    0    0  0.32298035946E+03  0.12141340584E+03 -0.67407337627E+03  0.77254391288E+03  0.15294330000E+03 0.  0.
<mgrwt>
<rscale>  0 0.62761088E+03</rscale>
<asrwt>0</asrwt>
<pdfrwt beam="1">  1        2 0.13264404E+00 0.74355076E+03</pdfrwt>
<pdfrwt beam="2">  1       -2 0.16068892E+00 0.74355076E+03</pdfrwt>
<totfact> 0.78919338E+00</totfact>
</mgrwt>
</event>
<event>
 4    5  0.2295023E-007  0.8895085E+03  0.7818608E-02  0.9543088E-01
         -2   -1    0    0    0  501 -0.00000000000E+00  0.00000000000E+00  0.76524612914E+03  0.76524612914E+03  0.25500000000E-02 0.  1.
          2   -1    0    0  501    0  0.00000000000E+00 -0.00000000000E+00 -0.30954112084E+04  0.30954112084E+04  0.25500000000E-02 0. -1.
    8880023    1    1    2    0    0 -0.39454963919E+03 -0.44916112849E+03  0.46115189670E+03  0.10019413232E+04  0.65864270000E+03 0.  1.
    8880022    1    1    2    0    0  0.39454963919E+03  0.44916112849E+03 -0.27913169760E+04  0.28587160143E+04  0.15294330000E+03 0.  0.
<mgrwt>
<rscale>  0 0.81180301E+03</rscale>
<asrwt>0</asrwt>
<pdfrwt beam="1">  1        2 0.47621710E+00 0.88950848E+03</pdfrwt>
<pdfrwt beam="2">  1       -2 0.11773018E+00 0.88950848E+03</pdfrwt>
<totfact> 0.87806609E-01</totfact>
</mgrwt>
</event>
<event>
 4    5  0.2295023E-007  0.6898655E+03  0.7818608E-02  0.1004217E+00
         -2   -1    0    0    0  501 -0.00000000000E+00  0.00000000000E+00  0.13029011489E+03  0.13029011491E+03  0.25500000000E-02 0.  1.
          2   -1    0    0  501    0  0.00000000000E+00 -0.00000000000E+00 -0.18831193390E+04  0.18831193390E+04  0.25500000000E-02 0. -1.
    8880023    1    1    2    0    0  0.17026931673E+03  0.11450986267E+03 -0.97364052348E+03  0.11932687141E+04  0.65864270000E+03 0.  0.
    8880022    1    1    2    0    0 -0.17026931673E+03 -0.11450986267E+03 -0.77918870061E+03  0.82014073978E+03  0.15294330000E+03 0.  0.
<mgrwt>
<rscale>  0 0.53839372E+03</rscale>
<asrwt>0</asrwt>
<pdfrwt beam="1">  1        2 0.28971065E+00 0.68986546E+03</pdfrwt>
<pdfrwt beam="2">  1       -2 0.20044634E-01 0.68986546E+03</pdfrwt>
<totfact> 0.16949827E+02</totfact>
</mgrwt>
</event>
<event>
 4    5  0.2295023E-007  0.7604949E+03  0.7818608E-02  0.9803828E-01
          2   -1    0    0  501    0  0.00000000000E+00  0.00000000000E+00  0.71205465122E+03  0.71205465123E+03  0.25500000000E-02 0. -1.
         -2   -1    0    0    0  501 -0.00000000000E+00 -0.00000000000E+00 -0.14727078685E+04  0.14727078685E+04  0.25500000000E-02 0.  1.
    8880023    1    1    2    0    0  0.31965490665E+03 -0.20582285752E+03 -0.13007762569E+04  0.15067751607E+04  0.65864270000E+03 0.  1.
    8880022    1    1    2    0    0 -0.31965490665E+03  0.20582285752E+03  0.54012303966E+03  0.67798735903E+03  0.15294330000E+03 0.  0.
<mgrwt>
<rscale>  0 0.65157521E+03</rscale>
<asrwt>0</asrwt>
<pdfrwt beam="1">  1        2 0.10954687E+00 0.76049491E+03</pdfrwt>
<pdfrwt beam="2">  1       -2 0.22657044E+00 0.76049491E+03</pdfrwt>
<totfact> 0.36896106E+00</totfact>
</mgrwt>
</event>
<event>
 4    5  0.2295023E-007  0.1210330E+04  0.7818608E-02  0.9147146E-01
          2   -1    0    0  501    0  0.00000000000E+00  0.00000000000E+00  0.11931264030E+04  0.11931264030E+04  0.25500000000E-02 0. -1.
         -2   -1    0    0    0  501 -0.00000000000E+00 -0.00000000000E+00 -0.18874819522E+04  0.18874819522E+04  0.25500000000E-02 0.  1.
    8880023    1    1    2    0    0  0.14547246273E+03 -0.10049509623E+04 -0.13878620017E+04  0.18414830480E+04  0.65864270000E+03 0.  1.
    8880022    1    1    2    0    0 -0.14547246273E+03  0.10049509623E+04  0.69350645252E+03  0.12391253071E+04  0.15294330000E+03 0.  0.
<mgrwt>
<rscale>  0 0.11616029E+04</rscale>
<asrwt>0</asrwt>
<pdfrwt beam="1">  1        2 0.18355791E+00 0.12103301E+04</pdfrwt>
<pdfrwt beam="2">  1       -2 0.29038184E+00 0.12103301E+04</pdfrwt>
<totfact> 0.67819718E-01</totfact>
</mgrwt>
</event>
<event>
 4    5  0.2295023E-007  0.1123796E+04  0.7818608E-02  0.9235014E-01
         -2   -1    0    0    0  501 -0.00000000000E+00  0.00000000000E+00  0.15691551675E+04  0.15691551675E+04  0.25500000000E-02 0.  1.
          2   -1    0    0  501    0  0.00000000000E+00 -0.00000000000E+00 -0.80212051937E+03  0.80212051938E+03  0.25500000000E-02 0. -1.
    8880023    1    1    2    0    0  0.43114037355E+03  0.80201328918E+03 -0.68713285252E+02  0.11258947817E+04  0.65864270000E+03 0. -1.
    8880022    1    1    2    0    0 -0.43114037355E+03 -0.80201328918E+03  0.83574793340E+03  0.12453809052E+04  0.15294330000E+03 0.  0.
<mgrwt>
<rscale>  0 0.10699226E+04</rscale>
<asrwt>0</asrwt>
<pdfrwt beam="1">  1        2 0.12340316E+00 0.11237960E+04</pdfrwt>
<pdfrwt beam="2">  1       -2 0.24140848E+00 0.11237960E+04</pdfrwt>
<totfact> 0.24506907E+00</totfact>
</mgrwt>
</event>
<event>
 4    5  0.2693739E-007  0.1078658E+04  0.7818608E-02  0.9285198E-01
         -2   -1    0    0    0  501 -0.00000000000E+00  0.00000000000E+00  0.17583173941E+04  0.17583173941E+04  0.25500000000E-02 0.  1.
          2   -1    0    0  501    0  0.00000000000E+00 -0.00000000000E+00 -0.45523861119E+04  0.45523861119E+04  0.25500000000E-02 0. -1.
    8880023    1    1    2    0    0 -0.16332245396E+03 -0.83846267169E+03  0.15457893179E+04  0.18849320140E+04  0.65864270000E+03 0.  0.
    8880022    1    1    2    0    0  0.16332245396E+03  0.83846267169E+03 -0.43398580358E+04  0.44257714920E+04  0.15294330000E+03 0.  0.
<mgrwt>
<rscale>  0 0.10215709E+04</rscale>
<asrwt>0</asrwt>
<pdfrwt beam="1">  1        2 0.70036709E+00 0.10786585E+04</pdfrwt>
<pdfrwt beam="2">  1       -2 0.27051037E+00 0.10786585E+04</pdfrwt>
<totfact> 0.55611325E-03</totfact>
</mgrwt>
</event>
<event>
 4    5  0.2295023E-007  0.1084645E+04  0.7818608E-02  0.9278347E-01
         -2   -1    0    0    0  501 -0.00000000000E+00  0.00000000000E+00  0.91052313034E+03  0.91052313034E+03  0.25500000000E-02 0.  1.
          2   -1    0    0  501    0  0.00000000000E+00 -0.00000000000E+00 -0.19394287354E+04  0.19394287354E+04  0.25500000000E-02 0. -1.
    8880023    1    1    2    0    0 -0.85916574013E+03 -0.66928509634E+02  0.41513521347E+03  0.11613753253E+04  0.65864270000E+03 0.  0.
    8880022    1    1    2    0    0  0.85916574013E+03  0.66928509634E+02 -0.14440408186E+04  0.16885765405E+04  0.15294330000E+03 0.  0.
<mgrwt>
<rscale>  0 0.10280092E+04</rscale>
<asrwt>0</asrwt>
<pdfrwt beam="1">  1        2 0.29837365E+00 0.10846453E+04</pdfrwt>
<pdfrwt beam="2">  1       -2 0.14008048E+00 0.10846453E+04</pdfrwt>
<totfact> 0.25548569E+00</totfact>
</mgrwt>
</event>
<event>
 4    5  0.2295023E-007  0.9747867E+03  0.7818608E-02  0.9415314E-01
         -2   -1    0    0    0  501 -0.00000000000E+00  0.00000000000E+00  0.45239457160E+03  0.45239457161E+03  0.25500000000E-02 0.  1.
          2   -1    0    0  501    0  0.00000000000E+00 -0.00000000000E+00 -0.19476206568E+04  0.19476206568E+04  0.25500000000E-02 0. -1.
    8880023    1    1    2    0    0 -0.16830312287E+03  0.69862219687E+03 -0.34278705409E+03  0.10333015464E+04  0.65864270000E+03 0. -1.
    8880022    1    1    2    0    0  0.16830312287E+03 -0.69862219687E+03 -0.11524390311E+04  0.13667136820E+04  0.15294330000E+03 0.  0.
<mgrwt>
<rscale>  0 0.90826036E+03</rscale>
<asrwt>0</asrwt>
<pdfrwt beam="1">  1        2 0.29963394E+00 0.97478671E+03</pdfrwt>
<pdfrwt beam="2">  1       -2 0.69599166E-01 0.97478671E+03</pdfrwt>
<totfact> 0.13517223E+01</totfact>
</mgrwt>
</event>
<event>
 4    5  0.2295023E-007  0.7763071E+03  0.7818608E-02  0.9764584E-01
          2   -1    0    0  501    0  0.00000000000E+00  0.00000000000E+00  0.32641793996E+04  0.32641793996E+04  0.25500000000E-02 0. -1.
         -2   -1    0    0    0  501 -0.00000000000E+00 -0.00000000000E+00 -0.12189091859E+03  0.12189091861E+03  0.25500000000E-02 0.  1.
    8880023    1    1    2    0    0 -0.26853218750E+03  0.31101931485E+03  0.15361745668E+04  0.17211871066E+04  0.65864270000E+03 0.  0.
    8880022    1    1    2    0    0  0.26853218750E+03 -0.31101931485E+03  0.16061139142E+04  0.16648832117E+04  0.15294330000E+03 0.  1.
<mgrwt>
<rscale>  0 0.67298287E+03</rscale>
<asrwt>0</asrwt>
<pdfrwt beam="1">  1        2 0.50218141E+00 0.77630713E+03</pdfrwt>
<pdfrwt beam="2">  1       -2 0.18752450E-01 0.77630713E+03</pdfrwt>
<totfact> 0.29844895E+01</totfact>
</mgrwt>
</event>
<event>
 4    5  0.2295023E-007  0.7691950E+03  0.7818608E-02  0.9781859E-01
         -2   -1    0    0    0  501 -0.00000000000E+00  0.00000000000E+00  0.13912298075E+04  0.13912298075E+04  0.25500000000E-02 0.  1.
          2   -1    0    0  501    0  0.00000000000E+00 -0.00000000000E+00 -0.48611464872E+03  0.48611464873E+03  0.25500000000E-02 0. -1.
    8880023    1    1    2    0    0  0.10476800175E+03 -0.38324188749E+03  0.11520127546E+04  0.13852054979E+04  0.65864270000E+03 0.  1.
    8880022    1    1    2    0    0 -0.10476800175E+03  0.38324188749E+03 -0.24689759575E+03  0.49213895834E+03  0.15294330000E+03 0.  0.
<mgrwt>
<rscale>  0 0.66345241E+03</rscale>
<asrwt>0</asrwt>
<pdfrwt beam="1">  1        2 0.74786871E-01 0.76919496E+03</pdfrwt>
<pdfrwt beam="2">  1       -2 0.21403535E+00 0.76919496E+03</pdfrwt>
<totfact> 0.69970931E+00</totfact>
</mgrwt>
</event>
<event>
 4    5  0.2295023E-007  0.7506886E+03  0.7818608E-02  0.9829839E-01
          2   -1    0    0  501    0  0.00000000000E+00  0.00000000000E+00  0.54422892634E+03  0.54422892635E+03  0.25500000000E-02 0. -1.
         -2   -1    0    0    0  501 -0.00000000000E+00 -0.00000000000E+00 -0.67609557626E+03  0.67609557627E+03  0.25500000000E-02 0.  1.
    8880023    1    1    2    0    0 -0.33790952312E+03 -0.12466084691E+03 -0.28101730917E+03  0.80156353889E+03  0.65864270000E+03 0.  1.
    8880022    1    1    2    0    0  0.33790952312E+03  0.12466084691E+03  0.14915065925E+03  0.41876096372E+03  0.15294330000E+03 0. -1.
<mgrwt>
<rscale>  0 0.63785509E+03</rscale>
<asrwt>0</asrwt>
<pdfrwt beam="1">  1        2 0.83727527E-01 0.75068860E+03</pdfrwt>
<pdfrwt beam="2">  1       -2 0.10401470E+00 0.75068860E+03</pdfrwt>
<totfact> 0.42420737E+01</totfact>
</mgrwt>
</event>
<event>
 4    5  0.2295023E-007  0.1091783E+04  0.7818608E-02  0.9270261E-01
          2   -1    0    0  501    0  0.00000000000E+00  0.00000000000E+00  0.14062305779E+04  0.14062305780E+04  0.25500000000E-02 0. -1.
         -2   -1    0    0    0  501 -0.00000000000E+00 -0.00000000000E+00 -0.17319020233E+04  0.17319020233E+04  0.25500000000E-02 0.  1.
    8880023    1    1    2    0    0 -0.86991746609E+03 -0.37717299691E+02 -0.13816429247E+04  0.17609447380E+04  0.65864270000E+03 0.  0.
    8880022    1    1    2    0    0  0.86991746609E+03  0.37717299691E+02  0.10559714794E+04  0.13771878633E+04  0.15294330000E+03 0.  0.
<mgrwt>
<rscale>  0 0.10356742E+04</rscale>
<asrwt>0</asrwt>
<pdfrwt beam="1">  1        2 0.21634316E+00 0.10917826E+04</pdfrwt>
<pdfrwt beam="2">  1       -2 0.26644647E+00 0.10917826E+04</pdfrwt>
<totfact> 0.72158461E-01</totfact>
</mgrwt>
</event>
<event>
 4    5  0.2295023E-007  0.1030247E+04  0.7818608E-02  0.9343013E-01
          2   -1    0    0  501    0  0.00000000000E+00  0.00000000000E+00  0.17629139588E+04  0.17629139588E+04  0.25500000000E-02 0. -1.
         -2   -1    0    0    0  501 -0.00000000000E+00 -0.00000000000E+00 -0.75834992789E+03  0.75834992789E+03  0.25500000000E-02 0.  1.
    8880023    1    1    2    0    0 -0.71118679263E+03 -0.34901486398E+03 -0.22125914067E+03  0.10537380333E+04  0.65864270000E+03 0.  0.
    8880022    1    1    2    0    0  0.71118679263E+03  0.34901486398E+03  0.12258231716E+04  0.14675258533E+04  0.15294330000E+03 0.  0.
<mgrwt>
<rscale>  0 0.96917607E+03</rscale>
<asrwt>0</asrwt>
<pdfrwt beam="1">  1        2 0.27121753E+00 0.10302467E+04</pdfrwt>
<pdfrwt beam="2">  1       -2 0.11666922E+00 0.10302467E+04</pdfrwt>
<totfact> 0.51141910E+00</totfact>
</mgrwt>
</event>
<event>
 4    5  0.2295023E-007  0.7355921E+03  0.7818608E-02  0.9872978E-01
          2   -1    0    0  501    0  0.00000000000E+00  0.00000000000E+00  0.27358047684E+04  0.27358047684E+04  0.25500000000E-02 0. -1.
         -2   -1    0    0    0  501 -0.00000000000E+00 -0.00000000000E+00 -0.36545902668E+03  0.36545902668E+03  0.25500000000E-02 0.  1.
    8880023    1    1    2    0    0 -0.25664346367E+03 -0.20351816340E+03  0.33215063037E+02  0.73634160344E+03  0.65864270000E+03 0.  1.
    8880022    1    1    2    0    0  0.25664346367E+03  0.20351816340E+03  0.23371306787E+04  0.23649221917E+04  0.15294330000E+03 0.  0.
<mgrwt>
<rscale>  0 0.61588943E+03</rscale>
<asrwt>0</asrwt>
<pdfrwt beam="1">  1        2 0.42089305E+00 0.73559209E+03</pdfrwt>
<pdfrwt beam="2">  1       -2 0.56224465E-01 0.73559209E+03</pdfrwt>
<totfact> 0.79475965E+00</totfact>
</mgrwt>
</event>
<event>
 4    5  0.2295023E-007  0.9158172E+03  0.7818608E-02  0.9501102E-01
          2   -1    0    0  501    0  0.00000000000E+00  0.00000000000E+00  0.39490994151E+04  0.39490994151E+04  0.25500000000E-02 0. -1.
         -2   -1    0    0    0  501 -0.00000000000E+00 -0.00000000000E+00 -0.64858736263E+03  0.64858736263E+03  0.25500000000E-02 0.  1.
    8880023    1    1    2    0    0  0.63422836485E+03  0.51626641729E+02 -0.28015001261E+03  0.95770828792E+03  0.65864270000E+03 0.  1.
    8880022    1    1    2    0    0 -0.63422836485E+03 -0.51626641729E+02  0.35806620651E+04  0.36399784898E+04  0.15294330000E+03 0.  0.
<mgrwt>
<rscale>  0 0.84202586E+03</rscale>
<asrwt>0</asrwt>
<pdfrwt beam="1">  1        2 0.60755376E+00 0.91581720E+03</pdfrwt>
<pdfrwt beam="2">  1       -2 0.99782671E-01 0.91581720E+03</pdfrwt>
<totfact> 0.33324587E-01</totfact>
</mgrwt>
</event>
<event>
 4    5  0.2295023E-007  0.8616851E+03  0.7818608E-02  0.9590573E-01
         -2   -1    0    0    0  501 -0.00000000000E+00  0.00000000000E+00  0.10619898743E+04  0.10619898743E+04  0.25500000000E-02 0.  1.
          2   -1    0    0  501    0  0.00000000000E+00 -0.00000000000E+00 -0.12227504168E+04  0.12227504168E+04  0.25500000000E-02 0. -1.
    8880023    1    1    2    0    0  0.39817360448E+03 -0.38749033172E+03  0.79258183407E+03  0.11707634887E+04  0.65864270000E+03 0.  1.
    8880022    1    1    2    0    0 -0.39817360448E+03  0.38749033172E+03 -0.95334237654E+03  0.11139768025E+04  0.15294330000E+03 0.  0.
<mgrwt>
<rscale>  0 0.77923276E+03</rscale>
<asrwt>0</asrwt>
<pdfrwt beam="1">  1        2 0.18811545E+00 0.86168508E+03</pdfrwt>
<pdfrwt beam="2">  1       -2 0.16338306E+00 0.86168508E+03</pdfrwt>
<totfact> 0.43992012E+00</totfact>
</mgrwt>
</event>
<event>
 4    5  0.2295023E-007  0.1108823E+04  0.7818608E-02  0.9251296E-01
          2   -1    0    0  501    0  0.00000000000E+00  0.00000000000E+00  0.12212740530E+04  0.12212740530E+04  0.25500000000E-02 0. -1.
         -2   -1    0    0    0  501 -0.00000000000E+00 -0.00000000000E+00 -0.28916305515E+04  0.28916305515E+04  0.25500000000E-02 0.  1.
    8880023    1    1    2    0    0 -0.88028713002E+03  0.14412508588E+03 -0.25932189234E+04  0.28203319064E+04  0.65864270000E+03 0.  1.
    8880022    1    1    2    0    0  0.88028713002E+03 -0.14412508588E+03  0.92286242479E+03  0.12925726981E+04  0.15294330000E+03 0.  0.
<mgrwt>
<rscale>  0 0.10539297E+04</rscale>
<asrwt>0</asrwt>
<pdfrwt beam="1">  1        2 0.18788832E+00 0.11088227E+04</pdfrwt>
<pdfrwt beam="2">  1       -2 0.44486624E+00 0.11088227E+04</pdfrwt>
<totfact> 0.68934017E-02</totfact>
</mgrwt>
</event>
<event>
 4    5  0.2295023E-007  0.8091394E+03  0.7818608E-02  0.9691372E-01
         -2   -1    0    0    0  501 -0.00000000000E+00  0.00000000000E+00  0.99950918666E+03  0.99950918666E+03  0.25500000000E-02 0.  1.
          2   -1    0    0  501    0  0.00000000000E+00 -0.00000000000E+00 -0.13558559102E+04  0.13558559103E+04  0.25500000000E-02 0. -1.
    8880023    1    1    2    0    0  0.39554263086E+03 -0.25385508481E+03  0.77521813750E+03  0.11205667066E+04  0.65864270000E+03 0.  0.
    8880022    1    1    2    0    0 -0.39554263086E+03  0.25385508481E+03 -0.11315648611E+04  0.12347983903E+04  0.15294330000E+03 0.  0.
<mgrwt>
<rscale>  0 0.71532811E+03</rscale>
<asrwt>0</asrwt>
<pdfrwt beam="1">  1        2 0.20859322E+00 0.80913941E+03</pdfrwt>
<pdfrwt beam="2">  1       -2 0.15377064E+00 0.80913941E+03</pdfrwt>
<totfact> 0.43693022E+00</totfact>
</mgrwt>
</event>
<event>
 4    5  0.2295023E-007  0.1144791E+04  0.7818608E-02  0.9212752E-01
         -2   -1    0    0    0  501 -0.00000000000E+00  0.00000000000E+00  0.90743717288E+03  0.90743717288E+03  0.25500000000E-02 0.  1.
          2   -1    0    0  501    0  0.00000000000E+00 -0.00000000000E+00 -0.17580433302E+04  0.17580433302E+04  0.25500000000E-02 0. -1.
    8880023    1    1    2    0    0  0.11696221943E+03 -0.92900815651E+03  0.29090162402E+03  0.11811732628E+04  0.65864270000E+03 0.  0.
    8880022    1    1    2    0    0 -0.11696221943E+03  0.92900815651E+03 -0.11415077813E+04  0.14843072403E+04  0.15294330000E+03 0.  0.
<mgrwt>
<rscale>  0 0.10922768E+04</rscale>
<asrwt>0</asrwt>
<pdfrwt beam="1">  1        2 0.27046820E+00 0.11447910E+04</pdfrwt>
<pdfrwt beam="2">  1       -2 0.13960572E+00 0.11447910E+04</pdfrwt>
<totfact> 0.32242232E+00</totfact>
</mgrwt>
</event>
<event>
 4    5  0.2295023E-007  0.1077688E+04  0.7818608E-02  0.9286314E-01
         -2   -1    0    0    0  501 -0.00000000000E+00  0.00000000000E+00  0.15000421854E+04  0.15000421854E+04  0.25500000000E-02 0.  1.
          2   -1    0    0  501    0  0.00000000000E+00 -0.00000000000E+00 -0.16711496339E+04  0.16711496339E+04  0.25500000000E-02 0. -1.
    8880023    1    1    2    0    0 -0.80579122851E+03  0.27982428934E+03  0.11596767861E+04  0.15831176809E+04  0.65864270000E+03 0.  1.
    8880022    1    1    2    0    0  0.80579122851E+03 -0.27982428934E+03 -0.13307842347E+04  0.15880741384E+04  0.15294330000E+03 0.  0.
<mgrwt>
<rscale>  0 0.10205264E+04</rscale>
<asrwt>0</asrwt>
<pdfrwt beam="1">  1        2 0.25709994E+00 0.10776880E+04</pdfrwt>
<pdfrwt beam="2">  1       -2 0.23077572E+00 0.10776880E+04</pdfrwt>
<totfact> 0.84866932E-01</totfact>
</mgrwt>
</event>
<event>
 4    5  0.2295023E-007  0.8953056E+03  0.7818608E-02  0.9533610E-01
         -2   -1    0    0    0  501 -0.00000000000E+00  0.00000000000E+00  0.59505746309E+03  0.59505746309E+03  0.25500000000E-02 0.  1.
          2   -1    0    0  501    0  0.00000000000E+00 -0.00000000000E+00 -0.20251350210E+04  0.20251350210E+04  0.25500000000E-02 0. -1.
    8880023    1    1    2    0    0  0.23725460881E+03 -0.55809691588E+03  0.16184902472E+03  0.90981714096E+03  0.65864270000E+03 0.  1.
    8880022    1    1    2    0    0 -0.23725460881E+03  0.55809691588E+03 -0.15919265827E+04  0.17103753432E+04  0.15294330000E+03 0.  0.
<mgrwt>
<rscale>  0 0.81850604E+03</rscale>
<asrwt>0</asrwt>
<pdfrwt beam="1">  1        2 0.31155923E+00 0.89530560E+03</pdfrwt>
<pdfrwt beam="2">  1       -2 0.91547303E-01 0.89530560E+03</pdfrwt>
<totfact> 0.66691963E+00</totfact>
</mgrwt>
</event>
<event>
 4    5  0.2295023E-007  0.1050291E+04  0.7818608E-02  0.9318532E-01
          2   -1    0    0  501    0  0.00000000000E+00  0.00000000000E+00  0.15733859636E+04  0.15733859636E+04  0.25500000000E-02 0. -1.
         -2   -1    0    0    0  501 -0.00000000000E+00 -0.00000000000E+00 -0.18572857693E+04  0.18572857693E+04  0.25500000000E-02 0.  1.
    8880023    1    1    2    0    0  0.44646058057E+03 -0.68554587485E+03 -0.15758889307E+04  0.18938152826E+04  0.65864270000E+03 0.  1.
    8880022    1    1    2    0    0 -0.44646058057E+03  0.68554587485E+03  0.12919891250E+04  0.15368564502E+04  0.15294330000E+03 0.  0.
<mgrwt>
<rscale>  0 0.99094517E+03</rscale>
<asrwt>0</asrwt>
<pdfrwt beam="1">  1        2 0.24205938E+00 0.10502906E+04</pdfrwt>
<pdfrwt beam="2">  1       -2 0.28573627E+00 0.10502906E+04</pdfrwt>
<totfact> 0.44643143E-01</totfact>
</mgrwt>
</event>
<event>
 4    5  0.2295023E-007  0.8061344E+03  0.7818608E-02  0.9697686E-01
          2   -1    0    0  501    0  0.00000000000E+00  0.00000000000E+00  0.12096751560E+04  0.12096751560E+04  0.25500000000E-02 0. -1.
         -2   -1    0    0    0  501 -0.00000000000E+00 -0.00000000000E+00 -0.36335449042E+03  0.36335449043E+03  0.25500000000E-02 0.  1.
    8880023    1    1    2    0    0 -0.16249991482E+03  0.43547238802E+03  0.35906661042E+03  0.88248595458E+03  0.65864270000E+03 0.  0.
    8880022    1    1    2    0    0  0.16249991482E+03 -0.43547238802E+03  0.48725405512E+03  0.69054369180E+03  0.15294330000E+03 0.  0.
<mgrwt>
<rscale>  0 0.71154738E+03</rscale>
<asrwt>0</asrwt>
<pdfrwt beam="1">  1        2 0.18610387E+00 0.80613437E+03</pdfrwt>
<pdfrwt beam="2">  1       -2 0.55900690E-01 0.80613437E+03</pdfrwt>
<totfact> 0.56869219E+01</totfact>
</mgrwt>
</event>
<event>
 4    5  0.2772695E-007  0.1015306E+04  0.7818608E-02  0.9361801E-01
         -2   -1    0    0    0  501 -0.00000000000E+00  0.00000000000E+00  0.14560770698E+04  0.14560770698E+04  0.25500000000E-02 0.  1.
          2   -1    0    0  501    0  0.00000000000E+00 -0.00000000000E+00 -0.34966870406E+04  0.34966870406E+04  0.25500000000E-02 0. -1.
    8880023    1    1    2    0    0 -0.35988136254E+03  0.68375595235E+03  0.12264020567E+04  0.15921397578E+04  0.65864270000E+03 0.  0.
    8880022    1    1    2    0    0  0.35988136254E+03 -0.68375595235E+03 -0.32670120276E+04  0.33606243525E+04  0.15294330000E+03 0.  0.
<mgrwt>
<rscale>  0 0.95287140E+03</rscale>
<asrwt>0</asrwt>
<pdfrwt beam="1">  1        2 0.53795185E+00 0.10153064E+04</pdfrwt>
<pdfrwt beam="2">  1       -2 0.22401186E+00 0.10153064E+04</pdfrwt>
<totfact> 0.78477352E-02</totfact>
</mgrwt>
</event>
<event>
 4    5  0.2295023E-007  0.7751557E+03  0.7818608E-02  0.9767342E-01
          2   -1    0    0  501    0  0.00000000000E+00  0.00000000000E+00  0.44933673247E+03  0.44933673248E+03  0.25500000000E-02 0. -1.
         -2   -1    0    0    0  501 -0.00000000000E+00 -0.00000000000E+00 -0.14312665772E+04  0.14312665772E+04  0.25500000000E-02 0.  1.
    8880023    1    1    2    0    0 -0.36534714777E+02 -0.40708898712E+03 -0.11715567069E+04  0.14047816743E+04  0.65864270000E+03 0.  0.
    8880022    1    1    2    0    0  0.36534714777E+02  0.40708898712E+03  0.18962686215E+03  0.47582163537E+03  0.15294330000E+03 0.  0.
<mgrwt>
<rscale>  0 0.67145011E+03</rscale>
<asrwt>0</asrwt>
<pdfrwt beam="1">  1        2 0.69128729E-01 0.77515575E+03</pdfrwt>
<pdfrwt beam="2">  1       -2 0.22019486E+00 0.77515575E+03</pdfrwt>
<totfact> 0.70005082E+00</totfact>
</mgrwt>
</event>
<event>
 4    5  0.2295023E-007  0.7082389E+03  0.7818608E-02  0.9964600E-01
         -2   -1    0    0    0  501 -0.00000000000E+00  0.00000000000E+00  0.68743707584E+03  0.68743707585E+03  0.25500000000E-02 0.  1.
          2   -1    0    0  501    0  0.00000000000E+00 -0.00000000000E+00 -0.55014921545E+03  0.55014921546E+03  0.25500000000E-02 0. -1.
    8880023    1    1    2    0    0 -0.20952614860E+03  0.15456689516E+03  0.42043797706E+03  0.82363246102E+03  0.65864270000E+03 0.  1.
    8880022    1    1    2    0    0  0.20952614860E+03 -0.15456689516E+03 -0.28315011667E+03  0.41395383029E+03  0.15294330000E+03 0.  0.
<mgrwt>
<rscale>  0 0.57230104E+03</rscale>
<asrwt>0</asrwt>
<pdfrwt beam="1">  1        2 0.84638341E-01 0.70823890E+03</pdfrwt>
<pdfrwt beam="2">  1       -2 0.10575955E+00 0.70823890E+03</pdfrwt>
<totfact> 0.40371638E+01</totfact>
</mgrwt>
</event>
<event>
 4    5  0.2295023E-007  0.1565925E+04  0.7818608E-02  0.8864434E-01
         -2   -1    0    0    0  501 -0.00000000000E+00  0.00000000000E+00  0.17762602889E+04  0.17762602889E+04  0.25500000000E-02 0.  1.
          2   -1    0    0  501    0  0.00000000000E+00 -0.00000000000E+00 -0.17573950318E+04  0.17573950318E+04  0.25500000000E-02 0. -1.
    8880023    1    1    2    0    0  0.10618266451E+04 -0.94383988417E+03  0.94680088869E+03  0.18299048282E+04  0.65864270000E+03 0.  1.
    8880022    1    1    2    0    0 -0.10618266451E+04  0.94383988417E+03 -0.92793563160E+03  0.17037504925E+04  0.15294330000E+03 0.  0.
<mgrwt>
<rscale>  0 0.15304782E+04</rscale>
<asrwt>0</asrwt>
<pdfrwt beam="1">  1        2 0.27036847E+00 0.15659246E+04</pdfrwt>
<pdfrwt beam="2">  1       -2 0.27327081E+00 0.15659246E+04</pdfrwt>
<totfact> 0.39309749E-01</totfact>
</mgrwt>
</event>
<event>
 4    5  0.2295023E-007  0.6672490E+03  0.7818608E-02  0.1017717E+00
          2   -1    0    0  501    0  0.00000000000E+00  0.00000000000E+00  0.10736364672E+04  0.10736364672E+04  0.25500000000E-02 0. -1.
         -2   -1    0    0    0  501 -0.00000000000E+00 -0.00000000000E+00 -0.20897930367E+03  0.20897930368E+03  0.25500000000E-02 0.  1.
    8880023    1    1    2    0    0 -0.67011676629E+02 -0.83189581616E+02  0.39059185035E+03  0.77316445283E+03  0.65864270000E+03 0.  0.
    8880022    1    1    2    0    0  0.67011676629E+02  0.83189581616E+02  0.47406531318E+03  0.50945131806E+03  0.15294330000E+03 0. -1.
<mgrwt>
<rscale>  0 0.48519646E+03</rscale>
<asrwt>0</asrwt>
<pdfrwt beam="1">  1        2 0.16517484E+00 0.66724904E+03</pdfrwt>
<pdfrwt beam="2">  1       -2 0.32150662E-01 0.66724904E+03</pdfrwt>
<totfact> 0.20686578E+02</totfact>
</mgrwt>
</event>
<event>
 4    5  0.2295023E-007  0.9511831E+03  0.7818608E-02  0.9448414E-01
         -2   -1    0    0    0  501 -0.00000000000E+00  0.00000000000E+00  0.51930606490E+03  0.51930606491E+03  0.25500000000E-02 0.  1.
          2   -1    0    0  501    0  0.00000000000E+00 -0.00000000000E+00 -0.17585576007E+04  0.17585576007E+04  0.25500000000E-02 0. -1.
    8880023    1    1    2    0    0  0.67629214837E+03  0.11648220377E+03 -0.12364370375E+03  0.95918566789E+03  0.65864270000E+03 0.  0.
    8880022    1    1    2    0    0 -0.67629214837E+03 -0.11648220377E+03 -0.11156078321E+04  0.13186779978E+04  0.15294330000E+03 0.  0.
<mgrwt>
<rscale>  0 0.88196291E+03</rscale>
<asrwt>0</asrwt>
<pdfrwt beam="1">  1        2 0.27054732E+00 0.95118315E+03</pdfrwt>
<pdfrwt beam="2">  1       -2 0.79893242E-01 0.95118315E+03</pdfrwt>
<totfact> 0.12671536E+01</totfact>
</mgrwt>
</event>
<event>
 4    5  0.2295023E-007  0.8088709E+03  0.7818608E-02  0.9691934E-01
          2   -1    0    0  501    0  0.00000000000E+00  0.00000000000E+00  0.24558546246E+04  0.24558546246E+04  0.25500000000E-02 0. -1.
         -2   -1    0    0    0  501 -0.00000000000E+00 -0.00000000000E+00 -0.55364545223E+03  0.55364545224E+03  0.25500000000E-02 0.  1.
    8880023    1    1    2    0    0 -0.45835502588E+03  0.10184612718E+03 -0.21378701245E+03  0.83664631495E+03  0.65864270000E+03 0.  1.
    8880022    1    1    2    0    0  0.45835502588E+03 -0.10184612718E+03  0.21159961848E+04  0.21728537619E+04  0.15294330000E+03 0.  0.
<mgrwt>
<rscale>  0 0.71499099E+03</rscale>
<asrwt>0</asrwt>
<pdfrwt beam="1">  1        2 0.37782379E+00 0.80887092E+03</pdfrwt>
<pdfrwt beam="2">  1       -2 0.85176223E-01 0.80887092E+03</pdfrwt>
<totfact> 0.45958223E+00</totfact>
</mgrwt>
</event>
<event>
 4    5  0.2295023E-007  0.8164499E+03  0.7818608E-02  0.9676295E-01
          2   -1    0    0  501    0  0.00000000000E+00  0.00000000000E+00  0.63870629765E+03  0.63870629765E+03  0.25500000000E-02 0. -1.
         -2   -1    0    0    0  501 -0.00000000000E+00 -0.00000000000E+00 -0.84530957714E+03  0.84530957715E+03  0.25500000000E-02 0.  1.
    8880023    1    1    2    0    0  0.25365812656E+03  0.41041169497E+03 -0.43909789468E+03  0.92703687732E+03  0.65864270000E+03 0.  1.
    8880022    1    1    2    0    0 -0.25365812656E+03 -0.41041169497E+03  0.23249461518E+03  0.55697899748E+03  0.15294330000E+03 0.  0.
<mgrwt>
<rscale>  0 0.72445861E+03</rscale>
<asrwt>0</asrwt>
<pdfrwt beam="1">  1        2 0.98262507E-01 0.81644988E+03</pdfrwt>
<pdfrwt beam="2">  1       -2 0.13004763E+00 0.81644988E+03</pdfrwt>
<totfact> 0.20090822E+01</totfact>
</mgrwt>
</event>
