<event>
 4    5  0.1074803E-007  0.1192275E+04  0.7818608E-02  0.9164668E-01
         -1   -1    0    0    0  501 -0.00000000000E+00  0.00000000000E+00  0.90746463815E+03  0.90746463817E+03  0.50400000000E-02 0.  1.
          1   -1    0    0  501    0  0.00000000000E+00 -0.00000000000E+00 -0.27907597427E+04  0.27907597427E+04  0.50400000000E-02 0. -1.
    8880023    1    1    2    0    0  0.53876836103E+03  0.83512767871E+03 -0.23149596160E+04  0.26039504252E+04  0.65864270000E+03 0.  0.
    8880022    1    1    2    0    0 -0.53876836103E+03 -0.83512767871E+03  0.43166451150E+03  0.10942739557E+04  0.15294330000E+03 0.  0.
<mgrwt>
<rscale>  0 0.11425670E+04</rscale>
<asrwt>0</asrwt>
<pdfrwt beam="1">  1        1 0.42934765E+00 0.11922750E+04</pdfrwt>
<pdfrwt beam="2">  1       -1 0.13960995E+00 0.11922750E+04</pdfrwt>
<totfact> 0.35431704E-01</totfact>
</mgrwt>
</event>
<event>
 4    5  0.1074803E-007  0.6840084E+03  0.7818608E-02  0.1007141E+00
          1   -1    0    0  501    0  0.00000000000E+00  0.00000000000E+00  0.27369562678E+04  0.27369562678E+04  0.50400000000E-02 0. -1.
         -1   -1    0    0    0  501 -0.00000000000E+00 -0.00000000000E+00 -0.89894742434E+03  0.89894742436E+03  0.50400000000E-02 0.  1.
    8880023    1    1    2    0    0 -0.82273954801E+02 -0.16519152833E+03  0.26771772172E+04  0.27631766688E+04  0.65864270000E+03 0. -1.
    8880022    1    1    2    0    0  0.82273954801E+02  0.16519152833E+03 -0.83916837376E+03  0.87272702330E+03  0.15294330000E+03 0.  0.
<mgrwt>
<rscale>  0 0.52626717E+03</rscale>
<asrwt>0</asrwt>
<pdfrwt beam="1">  1        1 0.42107018E+00 0.68400837E+03</pdfrwt>
<pdfrwt beam="2">  1       -1 0.13829961E+00 0.68400837E+03</pdfrwt>
<totfact> 0.43812704E-01</totfact>
</mgrwt>
</event>
<event>
 4    5  0.1074803E-007  0.6755581E+03  0.7818608E-02  0.1011957E+00
          1   -1    0    0  501    0  0.00000000000E+00  0.00000000000E+00  0.60557580821E+03  0.60557580823E+03  0.50400000000E-02 0. -1.
         -1   -1    0    0    0  501 -0.00000000000E+00 -0.00000000000E+00 -0.52230363818E+03  0.52230363820E+03  0.50400000000E-02 0.  1.
    8880023    1    1    2    0    0 -0.12674119243E+03  0.80655113330E+02  0.36970400493E+03  0.77010378177E+03  0.65864270000E+03 0.  0.
    8880022    1    1    2    0    0  0.12674119243E+03 -0.80655113330E+02 -0.28643183490E+03  0.35777566466E+03  0.15294330000E+03 0.  0.
<mgrwt>
<rscale>  0 0.50704303E+03</rscale>
<asrwt>0</asrwt>
<pdfrwt beam="1">  1        1 0.93165509E-01 0.67555813E+03</pdfrwt>
<pdfrwt beam="2">  1       -1 0.80354406E-01 0.67555813E+03</pdfrwt>
<totfact> 0.53700376E+01</totfact>
</mgrwt>
</event>
<event>
 4    5  0.1074803E-007  0.6912646E+03  0.7818608E-02  0.1003557E+00
         -1   -1    0    0    0  501 -0.00000000000E+00  0.00000000000E+00  0.56670462862E+03  0.56670462864E+03  0.50400000000E-02 0.  1.
          1   -1    0    0  501    0  0.00000000000E+00 -0.00000000000E+00 -0.41774381833E+03  0.41774381836E+03  0.50400000000E-02 0. -1.
    8880023    1    1    2    0    0  0.50213268802E+01 -0.20978863522E+03  0.20041339911E+03  0.71973065934E+03  0.65864270000E+03 0.  0.
    8880022    1    1    2    0    0 -0.50213268802E+01  0.20978863522E+03 -0.51452588819E+02  0.26471778766E+03  0.15294330000E+03 0.  0.
<mgrwt>
<rscale>  0 0.54117580E+03</rscale>
<asrwt>0</asrwt>
<pdfrwt beam="1">  1        1 0.64268280E-01 0.69126456E+03</pdfrwt>
<pdfrwt beam="2">  1       -1 0.87185327E-01 0.69126456E+03</pdfrwt>
<totfact> 0.75046986E+01</totfact>
</mgrwt>
</event>
<event>
 4    5  0.1074803E-007  0.7130499E+03  0.7818608E-02  0.9946845E-01
          1   -1    0    0  501    0  0.00000000000E+00  0.00000000000E+00  0.68215096803E+03  0.68215096805E+03  0.50400000000E-02 0. -1.
         -1   -1    0    0    0  501 -0.00000000000E+00 -0.00000000000E+00 -0.84249644891E+03  0.84249644893E+03  0.50400000000E-02 0.  1.
    8880023    1    1    2    0    0 -0.13155260426E+03  0.23942411480E+03  0.44684390674E+03  0.84149252979E+03  0.65864270000E+03 0. -1.
    8880022    1    1    2    0    0  0.13155260426E+03 -0.23942411480E+03 -0.60718938762E+03  0.68315488719E+03  0.15294330000E+03 0.  0.
<mgrwt>
<rscale>  0 0.58043716E+03</rscale>
<asrwt>0</asrwt>
<pdfrwt beam="1">  1        1 0.10494630E+00 0.71304993E+03</pdfrwt>
<pdfrwt beam="2">  1       -1 0.12961484E+00 0.71304993E+03</pdfrwt>
<totfact> 0.14954801E+01</totfact>
</mgrwt>
</event>
<event>
 4    5  0.1074803E-007  0.7860388E+03  0.7818608E-02  0.9741838E-01
          1   -1    0    0  501    0  0.00000000000E+00  0.00000000000E+00  0.13124332677E+04  0.13124332677E+04  0.50400000000E-02 0. -1.
         -1   -1    0    0    0  501 -0.00000000000E+00 -0.00000000000E+00 -0.54350626674E+03  0.54350626677E+03  0.50400000000E-02 0.  1.
    8880023    1    1    2    0    0 -0.42813566037E+03 -0.27325282935E+02  0.10568465129E+04  0.13171110709E+04  0.65864270000E+03 0. -1.
    8880022    1    1    2    0    0  0.42813566037E+03  0.27325282935E+02 -0.28791951201E+03  0.53882846360E+03  0.15294330000E+03 0.  0.
<mgrwt>
<rscale>  0 0.68579475E+03</rscale>
<asrwt>0</asrwt>
<pdfrwt beam="1">  1        1 0.20191281E+00 0.78603882E+03</pdfrwt>
<pdfrwt beam="2">  1       -1 0.83616351E-01 0.78603882E+03</pdfrwt>
<totfact> 0.12945224E+01</totfact>
</mgrwt>
</event>
<event>
 4    5  0.1074803E-007  0.6608954E+03  0.7818608E-02  0.1023257E+00
          1   -1    0    0  501    0  0.00000000000E+00  0.00000000000E+00  0.42638307004E+03  0.42638307007E+03  0.50400000000E-02 0. -1.
         -1   -1    0    0    0  501 -0.00000000000E+00 -0.00000000000E+00 -0.10096755006E+04  0.10096755006E+04  0.50400000000E-02 0.  1.
    8880023    1    1    2    0    0 -0.48469748004E+01 -0.54304634330E+02  0.15607315709E+03  0.67907401887E+03  0.65864270000E+03 0. -1.
    8880022    1    1    2    0    0  0.48469748004E+01  0.54304634330E+02 -0.73936558762E+03  0.75698455179E+03  0.15294330000E+03 0.  0.
<mgrwt>
<rscale>  0 0.46529269E+03</rscale>
<asrwt>0</asrwt>
<pdfrwt beam="1">  1        1 0.65597396E-01 0.66089537E+03</pdfrwt>
<pdfrwt beam="2">  1       -1 0.15533469E+00 0.66089537E+03</pdfrwt>
<totfact> 0.18120323E+01</totfact>
</mgrwt>
</event>
<event>
 4    5  0.1074803E-007  0.1091377E+04  0.7818608E-02  0.9270718E-01
         -1   -1    0    0    0  501 -0.00000000000E+00  0.00000000000E+00  0.41641601850E+04  0.41641601850E+04  0.50400000000E-02 0.  1.
          1   -1    0    0  501    0  0.00000000000E+00 -0.00000000000E+00 -0.61880471898E+03  0.61880471900E+03  0.50400000000E-02 0. -1.
    8880023    1    1    2    0    0  0.16604216577E+03  0.85423848614E+03 -0.38244849981E+02  0.10920468245E+04  0.65864270000E+03 0.  0.
    8880022    1    1    2    0    0 -0.16604216577E+03 -0.85423848614E+03  0.35836003160E+04  0.36909180796E+04  0.15294330000E+03 0.  0.
<mgrwt>
<rscale>  0 0.10352388E+04</rscale>
<asrwt>0</asrwt>
<pdfrwt beam="1">  1        1 0.95200725E-01 0.10913769E+04</pdfrwt>
<pdfrwt beam="2">  1       -1 0.64064003E+00 0.10913769E+04</pdfrwt>
<totfact> 0.10039257E-02</totfact>
</mgrwt>
</event>
<event>
 4    5  0.1074803E-007  0.6741185E+03  0.7818608E-02  0.1012868E+00
          1   -1    0    0  501    0  0.00000000000E+00  0.00000000000E+00  0.30319897728E+04  0.30319897728E+04  0.50400000000E-02 0. -1.
         -1   -1    0    0    0  501 -0.00000000000E+00 -0.00000000000E+00 -0.21442074407E+03  0.21442074412E+03  0.50400000000E-02 0.  1.
    8880023    1    1    2    0    0 -0.40228741568E+02  0.13786645118E+03  0.29312647373E+04  0.30077813545E+04  0.65864270000E+03 0. -1.
    8880022    1    1    2    0    0  0.40228741568E+02 -0.13786645118E+03 -0.11369570856E+03  0.23862916245E+03  0.15294330000E+03 0.  0.
<mgrwt>
<rscale>  0 0.50350632E+03</rscale>
<asrwt>0</asrwt>
<pdfrwt beam="1">  1        1 0.46645995E+00 0.67411847E+03</pdfrwt>
<pdfrwt beam="2">  1       -1 0.32987808E-01 0.67411847E+03</pdfrwt>
<totfact> 0.52953101E+00</totfact>
</mgrwt>
</event>
<event>
 4    5  0.1074803E-007  0.6834194E+03  0.7818608E-02  0.1007452E+00
         -1   -1    0    0    0  501 -0.00000000000E+00  0.00000000000E+00  0.53855130945E+03  0.53855130948E+03  0.50400000000E-02 0.  1.
          1   -1    0    0  501    0  0.00000000000E+00 -0.00000000000E+00 -0.12472272332E+04  0.12472272332E+04  0.50400000000E-02 0. -1.
    8880023    1    1    2    0    0  0.18132640688E+03 -0.19302126679E+02 -0.11191370912E+04  0.13113084584E+04  0.65864270000E+03 0. -1.
    8880022    1    1    2    0    0 -0.18132640688E+03  0.19302126679E+02  0.41046116742E+03  0.47447008431E+03  0.15294330000E+03 0.  0.
<mgrwt>
<rscale>  0 0.52499990E+03</rscale>
<asrwt>0</asrwt>
<pdfrwt beam="1">  1        1 0.19188111E+00 0.68341938E+03</pdfrwt>
<pdfrwt beam="2">  1       -1 0.82854048E-01 0.68341938E+03</pdfrwt>
<totfact> 0.14898868E+01</totfact>
</mgrwt>
</event>
<event>
 4    5  0.1074803E-007  0.7025569E+03  0.7818608E-02  0.9986755E-01
          1   -1    0    0  501    0  0.00000000000E+00  0.00000000000E+00  0.13210731551E+04  0.13210731551E+04  0.50400000000E-02 0. -1.
         -1   -1    0    0    0  501 -0.00000000000E+00 -0.00000000000E+00 -0.41529936511E+03  0.41529936514E+03  0.50400000000E-02 0.  1.
    8880023    1    1    2    0    0 -0.51111321529E+02  0.23908921813E+03  0.11572004347E+04  0.13537721647E+04  0.65864270000E+03 0.  0.
    8880022    1    1    2    0    0  0.51111321529E+02 -0.23908921813E+03 -0.25142664472E+03  0.38260035560E+03  0.15294330000E+03 0.  0.
<mgrwt>
<rscale>  0 0.56234839E+03</rscale>
<asrwt>0</asrwt>
<pdfrwt beam="1">  1        1 0.20324203E+00 0.70255692E+03</pdfrwt>
<pdfrwt beam="2">  1       -1 0.63892209E-01 0.70255692E+03</pdfrwt>
<totfact> 0.22535432E+01</totfact>
</mgrwt>
</event>
<event>
 4    5  0.1074803E-007  0.1056835E+04  0.7818608E-02  0.9310709E-01
          1   -1    0    0  501    0  0.00000000000E+00  0.00000000000E+00  0.21817387425E+04  0.21817387425E+04  0.50400000000E-02 0. -1.
         -1   -1    0    0    0  501 -0.00000000000E+00 -0.00000000000E+00 -0.67502781169E+03  0.67502781171E+03  0.50400000000E-02 0.  1.
    8880023    1    1    2    0    0 -0.82039246188E+03  0.10023281874E+03  0.16930584037E+04  0.19958325015E+04  0.65864270000E+03 0. -1.
    8880022    1    1    2    0    0  0.82039246188E+03 -0.10023281874E+03 -0.18634747288E+03  0.86093405272E+03  0.15294330000E+03 0.  0.
<mgrwt>
<rscale>  0 0.99802884E+03</rscale>
<asrwt>0</asrwt>
<pdfrwt beam="1">  1        1 0.33565212E+00 0.10568352E+04</pdfrwt>
<pdfrwt beam="2">  1       -1 0.10385043E+00 0.10568352E+04</pdfrwt>
<totfact> 0.19688451E+00</totfact>
</mgrwt>
</event>
<event>
 4    5  0.1074803E-007  0.7681923E+03  0.7818608E-02  0.9784342E-01
         -1   -1    0    0    0  501 -0.00000000000E+00  0.00000000000E+00  0.92207774885E+03  0.92207774886E+03  0.50400000000E-02 0.  1.
          1   -1    0    0  501    0  0.00000000000E+00 -0.00000000000E+00 -0.16046588063E+04  0.16046588063E+04  0.50400000000E-02 0. -1.
    8880023    1    1    2    0    0  0.31072577933E+03 -0.24445588374E+03 -0.14551700062E+04  0.16454905476E+04  0.65864270000E+03 0. -1.
    8880022    1    1    2    0    0 -0.31072577933E+03  0.24445588374E+03  0.77258894877E+03  0.88124600754E+03  0.15294330000E+03 0.  0.
<mgrwt>
<rscale>  0 0.66209639E+03</rscale>
<asrwt>0</asrwt>
<pdfrwt beam="1">  1        1 0.24687059E+00 0.76819229E+03</pdfrwt>
<pdfrwt beam="2">  1       -1 0.14185811E+00 0.76819229E+03</pdfrwt>
<totfact> 0.23414739E+00</totfact>
</mgrwt>
</event>
<event>
 4    5  0.1074803E-007  0.7719730E+03  0.7818608E-02  0.9775042E-01
          1   -1    0    0  501    0  0.00000000000E+00  0.00000000000E+00  0.17095593814E+04  0.17095593814E+04  0.50400000000E-02 0. -1.
         -1   -1    0    0    0  501 -0.00000000000E+00 -0.00000000000E+00 -0.45939010037E+03  0.45939010040E+03  0.50400000000E-02 0.  1.
    8880023    1    1    2    0    0 -0.96759559760E+02  0.39085759281E+03  0.14884336737E+04  0.16767161589E+04  0.65864270000E+03 0. -1.
    8880022    1    1    2    0    0  0.96759559760E+02 -0.39085759281E+03 -0.23826439273E+03  0.49223332285E+03  0.15294330000E+03 0.  0.
<mgrwt>
<rscale>  0 0.66719304E+03</rscale>
<asrwt>0</asrwt>
<pdfrwt beam="1">  1        1 0.26300913E+00 0.77197298E+03</pdfrwt>
<pdfrwt beam="2">  1       -1 0.70675401E-01 0.77197298E+03</pdfrwt>
<totfact> 0.98587706E+00</totfact>
</mgrwt>
</event>
<event>
 4    5  0.1074804E-007  0.1199302E+04  0.7818608E-02  0.9157801E-01
         -1   -1    0    0    0  501 -0.00000000000E+00  0.00000000000E+00  0.11947028978E+04  0.11947028978E+04  0.50400000000E-02 0.  1.
          1   -1    0    0  501    0  0.00000000000E+00 -0.00000000000E+00 -0.27650046375E+04  0.27650046375E+04  0.50400000000E-02 0. -1.
    8880023    1    1    2    0    0  0.97263992996E+03 -0.24183907219E+03 -0.23780939851E+04  0.26633917809E+04  0.65864270000E+03 0.  0.
    8880022    1    1    2    0    0 -0.97263992996E+03  0.24183907219E+03  0.80779224551E+03  0.12963157544E+04  0.15294330000E+03 0.  0.
<mgrwt>
<rscale>  0 0.11499807E+04</rscale>
<asrwt>0</asrwt>
<pdfrwt beam="1">  1        1 0.42538533E+00 0.11993018E+04</pdfrwt>
<pdfrwt beam="2">  1       -1 0.18380045E+00 0.11993018E+04</pdfrwt>
<totfact> 0.17060095E-01</totfact>
</mgrwt>
</event>
<event>
 4    5  0.1074803E-007  0.1328789E+04  0.7818608E-02  0.9041089E-01
         -1   -1    0    0    0  501 -0.00000000000E+00  0.00000000000E+00  0.15125437833E+04  0.15125437833E+04  0.50400000000E-02 0.  1.
          1   -1    0    0  501    0  0.00000000000E+00 -0.00000000000E+00 -0.23574075587E+04  0.23574075587E+04  0.50400000000E-02 0. -1.
    8880023    1    1    2    0    0 -0.35874096278E+03  0.10968933315E+04 -0.18867117689E+04  0.23076744927E+04  0.65864270000E+03 0.  0.
    8880022    1    1    2    0    0  0.35874096278E+03 -0.10968933315E+04  0.10418479935E+04  0.15622768492E+04  0.15294330000E+03 0.  0.
<mgrwt>
<rscale>  0 0.12855676E+04</rscale>
<asrwt>0</asrwt>
<pdfrwt beam="1">  1        1 0.36267808E+00 0.13287890E+04</pdfrwt>
<pdfrwt beam="2">  1       -1 0.23269905E+00 0.13287890E+04</pdfrwt>
<totfact> 0.14869449E-01</totfact>
</mgrwt>
</event>
<event>
 4    5  0.1074803E-007  0.1870652E+04  0.7818608E-02  0.8684429E-01
         -1   -1    0    0    0  501 -0.00000000000E+00  0.00000000000E+00  0.17285786139E+04  0.17285786139E+04  0.50400000000E-02 0.  1.
          1   -1    0    0  501    0  0.00000000000E+00 -0.00000000000E+00 -0.19776759317E+04  0.19776759317E+04  0.50400000000E-02 0. -1.
    8880023    1    1    2    0    0  0.16515273304E+04 -0.58136425702E+03 -0.48619561372E+03  0.19328019307E+04  0.65864270000E+03 0.  0.
    8880022    1    1    2    0    0 -0.16515273304E+04  0.58136425702E+03  0.23709829593E+03  0.17734526149E+04  0.15294330000E+03 0.  0.
<mgrwt>
<rscale>  0 0.18417067E+04</rscale>
<asrwt>0</asrwt>
<pdfrwt beam="1">  1        1 0.30425783E+00 0.18706515E+04</pdfrwt>
<pdfrwt beam="2">  1       -1 0.26593517E+00 0.18706515E+04</pdfrwt>
<totfact> 0.15345981E-01</totfact>
</mgrwt>
</event>
<event>
 4    5  0.1074803E-007  0.7332572E+03  0.7818608E-02  0.9880042E-01
         -1   -1    0    0    0  501 -0.00000000000E+00  0.00000000000E+00  0.30168464259E+03  0.30168464263E+03  0.50400000000E-02 0.  1.
          1   -1    0    0  501    0  0.00000000000E+00 -0.00000000000E+00 -0.11796338200E+04  0.11796338200E+04  0.50400000000E-02 0. -1.
    8880023    1    1    2    0    0 -0.90164930387E+02  0.30939646626E+03 -0.85137436468E+03  0.11236122121E+04  0.65864270000E+03 0.  0.
    8880022    1    1    2    0    0  0.90164930387E+02 -0.30939646626E+03 -0.26574812718E+02  0.35770625056E+03  0.15294330000E+03 0.  0.
<mgrwt>
<rscale>  0 0.61238341E+03</rscale>
<asrwt>0</asrwt>
<pdfrwt beam="1">  1        1 0.18148212E+00 0.73325718E+03</pdfrwt>
<pdfrwt beam="2">  1       -1 0.46413022E-01 0.73325718E+03</pdfrwt>
<totfact> 0.52482563E+01</totfact>
</mgrwt>
</event>
<event>
 4    5  0.1074803E-007  0.7542964E+03  0.7818608E-02  0.9820104E-01
         -1   -1    0    0    0  501 -0.00000000000E+00  0.00000000000E+00  0.14003489452E+04  0.14003489452E+04  0.50400000000E-02 0.  1.
          1   -1    0    0  501    0  0.00000000000E+00 -0.00000000000E+00 -0.26478438215E+03  0.26478438220E+03  0.50400000000E-02 0. -1.
    8880023    1    1    2    0    0  0.23829277878E+03  0.27994531284E+03  0.46754088785E+03  0.88744437272E+03  0.65864270000E+03 0. -1.
    8880022    1    1    2    0    0 -0.23829277878E+03 -0.27994531284E+03  0.66802367517E+03  0.77768895466E+03  0.15294330000E+03 0.  0.
<mgrwt>
<rscale>  0 0.64294735E+03</rscale>
<asrwt>0</asrwt>
<pdfrwt beam="1">  1        1 0.40736059E-01 0.75429638E+03</pdfrwt>
<pdfrwt beam="2">  1       -1 0.21543830E+00 0.75429638E+03</pdfrwt>
<totfact> 0.12551765E+01</totfact>
</mgrwt>
</event>
<event>
 4    5  0.1074803E-007  0.9592587E+03  0.7818608E-02  0.9436916E-01
         -1   -1    0    0    0  501 -0.00000000000E+00  0.00000000000E+00  0.46402840062E+03  0.46402840064E+03  0.50400000000E-02 0.  1.
          1   -1    0    0  501    0  0.00000000000E+00 -0.00000000000E+00 -0.18678075028E+04  0.18678075028E+04  0.50400000000E-02 0. -1.
    8880023    1    1    2    0    0 -0.58225777817E+03 -0.38385264890E+03 -0.12919860502E+04  0.16091628683E+04  0.65864270000E+03 0.  0.
    8880022    1    1    2    0    0  0.58225777817E+03  0.38385264890E+03 -0.11179305195E+03  0.72267303519E+03  0.15294330000E+03 0.  0.
<mgrwt>
<rscale>  0 0.89098906E+03</rscale>
<asrwt>0</asrwt>
<pdfrwt beam="1">  1        1 0.28735500E+00 0.95925866E+03</pdfrwt>
<pdfrwt beam="2">  1       -1 0.71388986E-01 0.95925866E+03</pdfrwt>
<totfact> 0.73667630E+00</totfact>
</mgrwt>
</event>
<event>
 4    5  0.1074803E-007  0.7659227E+03  0.7818608E-02  0.9790009E-01
         -1   -1    0    0    0  501 -0.00000000000E+00  0.00000000000E+00  0.22207177164E+03  0.22207177170E+03  0.50400000000E-02 0.  1.
          1   -1    0    0  501    0  0.00000000000E+00 -0.00000000000E+00 -0.21365091061E+04  0.21365091061E+04  0.50400000000E-02 0. -1.
    8880023    1    1    2    0    0  0.33336081494E+03 -0.20420059412E+03 -0.17453673722E+04  0.19060285375E+04  0.65864270000E+03 0.  1.
    8880022    1    1    2    0    0 -0.33336081494E+03  0.20420059412E+03 -0.16906996229E+03  0.45255234033E+03  0.15294330000E+03 0.  0.
<mgrwt>
<rscale>  0 0.65901496E+03</rscale>
<asrwt>0</asrwt>
<pdfrwt beam="1">  1        1 0.32869369E+00 0.76592266E+03</pdfrwt>
<pdfrwt beam="2">  1       -1 0.34164889E-01 0.76592266E+03</pdfrwt>
<totfact> 0.20285358E+01</totfact>
</mgrwt>
</event>
<event>
 4    5  0.1074803E-007  0.8227276E+03  0.7818608E-02  0.9663652E-01
         -1   -1    0    0    0  501 -0.00000000000E+00  0.00000000000E+00  0.45938025607E+03  0.45938025609E+03  0.50400000000E-02 0.  1.
          1   -1    0    0  501    0  0.00000000000E+00 -0.00000000000E+00 -0.15356463811E+04  0.15356463812E+04  0.50400000000E-02 0. -1.
    8880023    1    1    2    0    0 -0.49235142562E+03 -0.25700107558E+02 -0.12086769443E+04  0.14621151062E+04  0.65864270000E+03 0. -1.
    8880022    1    1    2    0    0  0.49235142562E+03  0.25700107558E+02  0.13241081924E+03  0.53291153103E+03  0.15294330000E+03 0.  0.
<mgrwt>
<rscale>  0 0.73222821E+03</rscale>
<asrwt>0</asrwt>
<pdfrwt beam="1">  1        1 0.23625329E+00 0.82272755E+03</pdfrwt>
<pdfrwt beam="2">  1       -1 0.70673886E-01 0.82272755E+03</pdfrwt>
<totfact> 0.12843452E+01</totfact>
</mgrwt>
</event>
<event>
 4    5  0.1074803E-007  0.9303125E+03  0.7818608E-02  0.9479025E-01
         -1   -1    0    0    0  501 -0.00000000000E+00  0.00000000000E+00  0.30790669315E+03  0.30790669319E+03  0.50400000000E-02 0.  1.
          1   -1    0    0  501    0  0.00000000000E+00 -0.00000000000E+00 -0.36563895798E+04  0.36563895798E+04  0.50400000000E-02 0. -1.
    8880023    1    1    2    0    0 -0.31444982764E+03  0.57688161666E+03 -0.31141991211E+04  0.32501872970E+04  0.65864270000E+03 0.  0.
    8880022    1    1    2    0    0  0.31444982764E+03 -0.57688161666E+03 -0.23428376558E+03  0.71410897598E+03  0.15294330000E+03 0.  0.
<mgrwt>
<rscale>  0 0.85848072E+03</rscale>
<asrwt>0</asrwt>
<pdfrwt beam="1">  1        1 0.56252144E+00 0.93031247E+03</pdfrwt>
<pdfrwt beam="2">  1       -1 0.47370263E-01 0.93031247E+03</pdfrwt>
<totfact> 0.87991828E-01</totfact>
</mgrwt>
</event>
<event>
 4    5  0.1074803E-007  0.6873116E+03  0.7818608E-02  0.1005457E+00
          1   -1    0    0  501    0  0.00000000000E+00  0.00000000000E+00  0.24724396412E+03  0.24724396417E+03  0.50400000000E-02 0. -1.
         -1   -1    0    0    0  501 -0.00000000000E+00 -0.00000000000E+00 -0.10606383574E+04  0.10606383574E+04  0.50400000000E-02 0.  1.
    8880023    1    1    2    0    0  0.50570408111E+02  0.18981478968E+03 -0.32625672392E+03  0.76081579684E+03  0.65864270000E+03 0. -1.
    8880022    1    1    2    0    0 -0.50570408111E+02 -0.18981478968E+03 -0.48713766932E+03  0.54706652469E+03  0.15294330000E+03 0.  0.
<mgrwt>
<rscale>  0 0.53320663E+03</rscale>
<asrwt>0</asrwt>
<pdfrwt beam="1">  1        1 0.38037533E-01 0.68731159E+03</pdfrwt>
<pdfrwt beam="2">  1       -1 0.16317513E+00 0.68731159E+03</pdfrwt>
<totfact> 0.32086713E+01</totfact>
</mgrwt>
</event>
<event>
 4    5  0.1074803E-007  0.1649087E+04  0.7818608E-02  0.8810957E-01
         -1   -1    0    0    0  501 -0.00000000000E+00  0.00000000000E+00  0.19755628313E+04  0.19755628313E+04  0.50400000000E-02 0.  1.
          1   -1    0    0  501    0  0.00000000000E+00 -0.00000000000E+00 -0.20820938789E+04  0.20820938789E+04  0.50400000000E-02 0. -1.
    8880023    1    1    2    0    0 -0.10771896967E+04  0.10608203273E+04 -0.13205693612E+04  0.21126739109E+04  0.65864270000E+03 0.  0.
    8880022    1    1    2    0    0  0.10771896967E+04 -0.10608203273E+04  0.12140383137E+04  0.19449827993E+04  0.15294330000E+03 0.  0.
<mgrwt>
<rscale>  0 0.16157058E+04</rscale>
<asrwt>0</asrwt>
<pdfrwt beam="1">  1        1 0.32032214E+00 0.16490869E+04</pdfrwt>
<pdfrwt beam="2">  1       -1 0.30393274E+00 0.16490869E+04</pdfrwt>
<totfact> 0.75551300E-02</totfact>
</mgrwt>
</event>
<event>
 4    5  0.1074803E-007  0.6613420E+03  0.7818608E-02  0.1022822E+00
          1   -1    0    0  501    0  0.00000000000E+00  0.00000000000E+00  0.28164400229E+04  0.28164400230E+04  0.50400000000E-02 0. -1.
         -1   -1    0    0    0  501 -0.00000000000E+00 -0.00000000000E+00 -0.70153761362E+02  0.70153761543E+02  0.50400000000E-02 0.  1.
    8880023    1    1    2    0    0 -0.59657591985E+02 -0.20128724621E+01  0.25302548375E+04  0.26152557866E+04  0.65864270000E+03 0. -1.
    8880022    1    1    2    0    0  0.59657591985E+02  0.20128724621E+01  0.21603142404E+03  0.27133799793E+03  0.15294330000E+03 0. -1.
<mgrwt>
<rscale>  0 0.46681948E+03</rscale>
<asrwt>0</asrwt>
<pdfrwt beam="1">  1        1 0.43329850E+00 0.66134203E+03</pdfrwt>
<pdfrwt beam="2">  1       -1 0.10792886E-01 0.66134203E+03</pdfrwt>
<totfact> 0.48266433E+01</totfact>
</mgrwt>
</event>
<event>
 4    5  0.1074803E-007  0.6971412E+03  0.7818608E-02  0.1000927E+00
          1   -1    0    0  501    0  0.00000000000E+00  0.00000000000E+00  0.10929172319E+04  0.10929172319E+04  0.50400000000E-02 0. -1.
         -1   -1    0    0    0  501 -0.00000000000E+00 -0.00000000000E+00 -0.36564584841E+03  0.36564584844E+03  0.50400000000E-02 0.  1.
    8880023    1    1    2    0    0  0.19816548553E+03 -0.11369293730E+03  0.89654992618E+03  0.11356969754E+04  0.65864270000E+03 0. -1.
    8880022    1    1    2    0    0 -0.19816548553E+03  0.11369293730E+03 -0.16927854271E+03  0.32286610488E+03  0.15294330000E+03 0.  0.
<mgrwt>
<rscale>  0 0.55245469E+03</rscale>
<asrwt>0</asrwt>
<pdfrwt beam="1">  1        1 0.16814111E+00 0.69714120E+03</pdfrwt>
<pdfrwt beam="2">  1       -1 0.56253209E-01 0.69714120E+03</pdfrwt>
<totfact> 0.42346382E+01</totfact>
</mgrwt>
</event>
<event>
 4    5  0.1074803E-007  0.1161533E+04  0.7818608E-02  0.9195454E-01
         -1   -1    0    0    0  501 -0.00000000000E+00  0.00000000000E+00  0.70842325543E+03  0.70842325545E+03  0.50400000000E-02 0.  1.
          1   -1    0    0  501    0  0.00000000000E+00 -0.00000000000E+00 -0.17507238533E+04  0.17507238533E+04  0.50400000000E-02 0. -1.
    8880023    1    1    2    0    0 -0.52502099776E+03 -0.79981300468E+03 -0.92167341189E+03  0.14827811622E+04  0.65864270000E+03 0.  0.
    8880022    1    1    2    0    0  0.52502099776E+03  0.79981300468E+03 -0.12062718596E+03  0.97636594653E+03  0.15294330000E+03 0.  0.
<mgrwt>
<rscale>  0 0.11100479E+04</rscale>
<asrwt>0</asrwt>
<pdfrwt beam="1">  1        1 0.26934213E+00 0.11615326E+04</pdfrwt>
<pdfrwt beam="2">  1       -1 0.10898819E+00 0.11615326E+04</pdfrwt>
<totfact> 0.33933804E+00</totfact>
</mgrwt>
</event>
<event>
 4    5  0.1074803E-007  0.8847955E+03  0.7818608E-02  0.9550894E-01
         -1   -1    0    0    0  501 -0.00000000000E+00  0.00000000000E+00  0.84022317799E+03  0.84022317800E+03  0.50400000000E-02 0.  1.
          1   -1    0    0  501    0  0.00000000000E+00 -0.00000000000E+00 -0.12324295844E+04  0.12324295844E+04  0.50400000000E-02 0. -1.
    8880023    1    1    2    0    0 -0.53838319106E+03  0.24330307749E+03 -0.91224803217E+03  0.12708499228E+04  0.65864270000E+03 0. -1.
    8880022    1    1    2    0    0  0.53838319106E+03 -0.24330307749E+03  0.52004162578E+03  0.80180283954E+03  0.15294330000E+03 0.  0.
<mgrwt>
<rscale>  0 0.80633381E+03</rscale>
<asrwt>0</asrwt>
<pdfrwt beam="1">  1        1 0.18960455E+00 0.88479549E+03</pdfrwt>
<pdfrwt beam="2">  1       -1 0.12926510E+00 0.88479549E+03</pdfrwt>
<totfact> 0.52996933E+00</totfact>
</mgrwt>
</event>
<event>
 4    5  0.1074803E-007  0.1481746E+04  0.7818608E-02  0.8922635E-01
          1   -1    0    0  501    0  0.00000000000E+00  0.00000000000E+00  0.32738540847E+04  0.32738540847E+04  0.50400000000E-02 0. -1.
         -1   -1    0    0    0  501 -0.00000000000E+00 -0.00000000000E+00 -0.11956371936E+04  0.11956371936E+04  0.50400000000E-02 0.  1.
    8880023    1    1    2    0    0 -0.13220832973E+04  0.11771154660E+03  0.26341884596E+04  0.30223367285E+04  0.65864270000E+03 0.  0.
    8880022    1    1    2    0    0  0.13220832973E+04 -0.11771154660E+03 -0.55597156845E+03  0.14471545498E+04  0.15294330000E+03 0.  0.
<mgrwt>
<rscale>  0 0.14439085E+04</rscale>
<asrwt>0</asrwt>
<pdfrwt beam="1">  1        1 0.50366986E+00 0.14817457E+04</pdfrwt>
<pdfrwt beam="2">  1       -1 0.18394418E+00 0.14817457E+04</pdfrwt>
<totfact> 0.69493633E-02</totfact>
</mgrwt>
</event>
<event>
 4    5  0.1074803E-007  0.6919799E+03  0.7818608E-02  0.1003225E+00
         -1   -1    0    0    0  501 -0.00000000000E+00  0.00000000000E+00  0.48890614831E+03  0.48890614833E+03  0.50400000000E-02 0.  1.
          1   -1    0    0  501    0  0.00000000000E+00 -0.00000000000E+00 -0.13180525397E+04  0.13180525397E+04  0.50400000000E-02 0. -1.
    8880023    1    1    2    0    0  0.70013520630E+01 -0.21207758080E+03 -0.11808422502E+04  0.13686579359E+04  0.65864270000E+03 0. -1.
    8880022    1    1    2    0    0 -0.70013520630E+01  0.21207758080E+03  0.35169585884E+03  0.43830075217E+03  0.15294330000E+03 0.  0.
<mgrwt>
<rscale>  0 0.54258283E+03</rscale>
<asrwt>0</asrwt>
<pdfrwt beam="1">  1        1 0.20277731E+00 0.69197986E+03</pdfrwt>
<pdfrwt beam="2">  1       -1 0.75216331E-01 0.69197986E+03</pdfrwt>
<totfact> 0.16260329E+01</totfact>
</mgrwt>
</event>
<event>
 4    5  0.1074803E-007  0.1650654E+04  0.7818608E-02  0.8809985E-01
          1   -1    0    0  501    0  0.00000000000E+00  0.00000000000E+00  0.26063774778E+04  0.26063774778E+04  0.50400000000E-02 0. -1.
         -1   -1    0    0    0  501 -0.00000000000E+00 -0.00000000000E+00 -0.11826498174E+04  0.11826498174E+04  0.50400000000E-02 0.  1.
    8880023    1    1    2    0    0  0.14720802580E+04 -0.35189005932E+03 -0.76545810692E+02  0.16524274167E+04  0.65864270000E+03 0.  0.
    8880022    1    1    2    0    0 -0.14720802580E+04  0.35189005932E+03  0.15002734712E+04  0.21365998786E+04  0.15294330000E+03 0.  0.
<mgrwt>
<rscale>  0 0.16173088E+04</rscale>
<asrwt>0</asrwt>
<pdfrwt beam="1">  1        1 0.40098114E+00 0.16506535E+04</pdfrwt>
<pdfrwt beam="2">  1       -1 0.18194613E+00 0.16506535E+04</pdfrwt>
<totfact> 0.21423451E-01</totfact>
</mgrwt>
</event>
<event>
 4    5  0.1074803E-007  0.2024805E+04  0.7818608E-02  0.8607424E-01
          1   -1    0    0  501    0  0.00000000000E+00  0.00000000000E+00  0.28695129298E+04  0.28695129298E+04  0.50400000000E-02 0. -1.
         -1   -1    0    0    0  501 -0.00000000000E+00 -0.00000000000E+00 -0.24137326990E+04  0.24137326990E+04  0.50400000000E-02 0.  1.
    8880023    1    1    2    0    0  0.14872466370E+04  0.12058698248E+04 -0.15168399139E+04  0.25299482453E+04  0.65864270000E+03 0.  0.
    8880022    1    1    2    0    0 -0.14872466370E+04 -0.12058698248E+04  0.19726201447E+04  0.27532973835E+04  0.15294330000E+03 0.  0.
<mgrwt>
<rscale>  0 0.19982834E+04</rscale>
<asrwt>0</asrwt>
<pdfrwt beam="1">  1        1 0.44146353E+00 0.20248049E+04</pdfrwt>
<pdfrwt beam="2">  1       -1 0.37134349E+00 0.20248049E+04</pdfrwt>
<totfact> 0.73186302E-03</totfact>
</mgrwt>
</event>
<event>
 4    5  0.1074803E-007  0.9469178E+03  0.7818608E-02  0.9454563E-01
          1   -1    0    0  501    0  0.00000000000E+00  0.00000000000E+00  0.14242213190E+04  0.14242213190E+04  0.50400000000E-02 0. -1.
         -1   -1    0    0    0  501 -0.00000000000E+00 -0.00000000000E+00 -0.50348861499E+03  0.50348861502E+03  0.50400000000E-02 0.  1.
    8880023    1    1    2    0    0 -0.18563883738E+03  0.65450850959E+03  0.75478259474E+03  0.12109294524E+04  0.65864270000E+03 0.  0.
    8880022    1    1    2    0    0  0.18563883738E+03 -0.65450850959E+03  0.16595010925E+03  0.71678048163E+03  0.15294330000E+03 0.  0.
<mgrwt>
<rscale>  0 0.87718254E+03</rscale>
<asrwt>0</asrwt>
<pdfrwt beam="1">  1        1 0.21911097E+00 0.94691783E+03</pdfrwt>
<pdfrwt beam="2">  1       -1 0.77459789E-01 0.94691783E+03</pdfrwt>
<totfact> 0.12477389E+01</totfact>
</mgrwt>
</event>
<event>
 4    5  0.1074803E-007  0.7025645E+03  0.7818608E-02  0.9986724E-01
          1   -1    0    0  501    0  0.00000000000E+00  0.00000000000E+00  0.78222175530E+03  0.78222175531E+03  0.50400000000E-02 0. -1.
         -1   -1    0    0    0  501 -0.00000000000E+00 -0.00000000000E+00 -0.66318361127E+03  0.66318361129E+03  0.50400000000E-02 0.  1.
    8880023    1    1    2    0    0  0.23851591461E+03  0.53822452423E+02  0.57366059859E+03  0.90701895600E+03  0.65864270000E+03 0. -1.
    8880022    1    1    2    0    0 -0.23851591461E+03 -0.53822452423E+02 -0.45462245457E+03  0.53838641060E+03  0.15294330000E+03 0.  0.
<mgrwt>
<rscale>  0 0.56236198E+03</rscale>
<asrwt>0</asrwt>
<pdfrwt beam="1">  1        1 0.12034181E+00 0.70256452E+03</pdfrwt>
<pdfrwt beam="2">  1       -1 0.10202825E+00 0.70256452E+03</pdfrwt>
<totfact> 0.21541809E+01</totfact>
</mgrwt>
</event>
<event>
 4    5  0.1074803E-007  0.1370232E+04  0.7818608E-02  0.9007165E-01
         -1   -1    0    0    0  501 -0.00000000000E+00  0.00000000000E+00  0.19116896451E+04  0.19116896451E+04  0.50400000000E-02 0.  1.
          1   -1    0    0  501    0  0.00000000000E+00 -0.00000000000E+00 -0.13943987951E+04  0.13943987951E+04  0.50400000000E-02 0. -1.
    8880023    1    1    2    0    0 -0.47414556123E+03  0.11040432907E+04 -0.74249164600E+03  0.15584702922E+04  0.65864270000E+03 0. -1.
    8880022    1    1    2    0    0  0.47414556123E+03 -0.11040432907E+04  0.12597824960E+04  0.17476181480E+04  0.15294330000E+03 0.  0.
<mgrwt>
<rscale>  0 0.13286289E+04</rscale>
<asrwt>0</asrwt>
<pdfrwt beam="1">  1        1 0.21452289E+00 0.13702320E+04</pdfrwt>
<pdfrwt beam="2">  1       -1 0.29410610E+00 0.13702320E+04</pdfrwt>
<totfact> 0.26878363E-01</totfact>
</mgrwt>
</event>
<event>
 4    5  0.1074803E-007  0.9366360E+03  0.7818608E-02  0.9469608E-01
          1   -1    0    0  501    0  0.00000000000E+00  0.00000000000E+00  0.10908489897E+04  0.10908489897E+04  0.50400000000E-02 0. -1.
         -1   -1    0    0    0  501 -0.00000000000E+00 -0.00000000000E+00 -0.15494412356E+04  0.15494412357E+04  0.50400000000E-02 0.  1.
    8880023    1    1    2    0    0 -0.26196209260E+02 -0.66542509004E+03  0.78451083646E+03  0.12217791333E+04  0.65864270000E+03 0. -1.
    8880022    1    1    2    0    0  0.26196209260E+02  0.66542509004E+03 -0.12431030824E+04  0.14185110921E+04  0.15294330000E+03 0.  0.
<mgrwt>
<rscale>  0 0.86562033E+03</rscale>
<asrwt>0</asrwt>
<pdfrwt beam="1">  1        1 0.16782292E+00 0.93663600E+03</pdfrwt>
<pdfrwt beam="2">  1       -1 0.23837558E+00 0.93663600E+03</pdfrwt>
<totfact> 0.10887394E+00</totfact>
</mgrwt>
</event>
<event>
 4    5  0.1074803E-007  0.7930047E+03  0.7818608E-02  0.9726130E-01
          1   -1    0    0  501    0  0.00000000000E+00  0.00000000000E+00  0.69195792461E+03  0.69195792463E+03  0.50400000000E-02 0. -1.
         -1   -1    0    0    0  501 -0.00000000000E+00 -0.00000000000E+00 -0.95742906920E+03  0.95742906922E+03  0.50400000000E-02 0.  1.
    8880023    1    1    2    0    0  0.33694279949E+03 -0.28550981870E+03  0.35809632758E+03  0.87010889709E+03  0.65864270000E+03 0. -1.
    8880022    1    1    2    0    0 -0.33694279949E+03  0.28550981870E+03 -0.62356747217E+03  0.77927809675E+03  0.15294330000E+03 0.  0.
<mgrwt>
<rscale>  0 0.69482086E+03</rscale>
<asrwt>0</asrwt>
<pdfrwt beam="1">  1        1 0.10645507E+00 0.79300474E+03</pdfrwt>
<pdfrwt beam="2">  1       -1 0.14729678E+00 0.79300474E+03</pdfrwt>
<totfact> 0.10412086E+01</totfact>
</mgrwt>
</event>
<event>
 4    5  0.1074803E-007  0.1083061E+04  0.7818608E-02  0.9280154E-01
         -1   -1    0    0    0  501 -0.00000000000E+00  0.00000000000E+00  0.12292038167E+04  0.12292038167E+04  0.50400000000E-02 0.  1.
          1   -1    0    0  501    0  0.00000000000E+00 -0.00000000000E+00 -0.10810446165E+04  0.10810446165E+04  0.50400000000E-02 0. -1.
    8880023    1    1    2    0    0  0.12020711911E+03  0.85132901779E+03 -0.52885347420E+03  0.12052829757E+04  0.65864270000E+03 0.  0.
    8880022    1    1    2    0    0 -0.12020711911E+03 -0.85132901779E+03  0.67701267440E+03  0.11049654575E+04  0.15294330000E+03 0.  0.
<mgrwt>
<rscale>  0 0.10263062E+04</rscale>
<asrwt>0</asrwt>
<pdfrwt beam="1">  1        1 0.16631456E+00 0.10830610E+04</pdfrwt>
<pdfrwt beam="2">  1       -1 0.18910828E+00 0.10830610E+04</pdfrwt>
<totfact> 0.23343720E+00</totfact>
</mgrwt>
</event>
<event>
 4    5  0.1074803E-007  0.1602443E+04  0.7818608E-02  0.8840492E-01
         -1   -1    0    0    0  501 -0.00000000000E+00  0.00000000000E+00  0.22043575913E+04  0.22043575913E+04  0.50400000000E-02 0.  1.
          1   -1    0    0  501    0  0.00000000000E+00 -0.00000000000E+00 -0.15931457005E+04  0.15931457006E+04  0.50400000000E-02 0. -1.
    8880023    1    1    2    0    0 -0.87390818557E+03  0.11705976126E+04 -0.77307199574E+03  0.17791753158E+04  0.65864270000E+03 0.  0.
    8880022    1    1    2    0    0  0.87390818557E+03 -0.11705976126E+04  0.13842838865E+04  0.20183279761E+04  0.15294330000E+03 0.  0.
<mgrwt>
<rscale>  0 0.15679366E+04</rscale>
<asrwt>0</asrwt>
<pdfrwt beam="1">  1        1 0.24509934E+00 0.16024433E+04</pdfrwt>
<pdfrwt beam="2">  1       -1 0.33913194E+00 0.16024433E+04</pdfrwt>
<totfact> 0.96583592E-02</totfact>
</mgrwt>
</event>
<event>
 4    5  0.1074803E-007  0.1060193E+04  0.7818608E-02  0.9306727E-01
         -1   -1    0    0    0  501 -0.00000000000E+00  0.00000000000E+00  0.85116854392E+03  0.85116854394E+03  0.50400000000E-02 0.  1.
          1   -1    0    0  501    0  0.00000000000E+00 -0.00000000000E+00 -0.13181509212E+04  0.13181509212E+04  0.50400000000E-02 0. -1.
    8880023    1    1    2    0    0  0.61365720682E+03  0.56002159270E+03 -0.72694552297E+03  0.12854802027E+04  0.65864270000E+03 0. -1.
    8880022    1    1    2    0    0 -0.61365720682E+03 -0.56002159270E+03  0.25996314571E+03  0.88383926249E+03  0.15294330000E+03 0.  0.
<mgrwt>
<rscale>  0 0.10016591E+04</rscale>
<asrwt>0</asrwt>
<pdfrwt beam="1">  1        1 0.20279245E+00 0.10601932E+04</pdfrwt>
<pdfrwt beam="2">  1       -1 0.13094901E+00 0.10601932E+04</pdfrwt>
<totfact> 0.43575385E+00</totfact>
</mgrwt>
</event>
<event>
 4    5  0.1074803E-007  0.8301020E+03  0.7818608E-02  0.9649134E-01
          1   -1    0    0  501    0  0.00000000000E+00  0.00000000000E+00  0.30295861317E+04  0.30295861317E+04  0.50400000000E-02 0. -1.
         -1   -1    0    0    0  501 -0.00000000000E+00 -0.00000000000E+00 -0.37738089533E+03  0.37738089536E+03  0.50400000000E-02 0.  1.
    8880023    1    1    2    0    0  0.45448373191E+03 -0.22068898136E+03  0.27478518015E+04  0.28704980088E+04  0.65864270000E+03 0.  0.
    8880022    1    1    2    0    0 -0.45448373191E+03  0.22068898136E+03 -0.95646565196E+02  0.53646901823E+03  0.15294330000E+03 0.  0.
<mgrwt>
<rscale>  0 0.74127800E+03</rscale>
<asrwt>0</asrwt>
<pdfrwt beam="1">  1        1 0.46609018E+00 0.83010198E+03</pdfrwt>
<pdfrwt beam="2">  1       -1 0.58058599E-01 0.83010198E+03</pdfrwt>
<totfact> 0.18098852E+00</totfact>
</mgrwt>
</event>
<event>
 4    5  0.1074803E-007  0.9134719E+03  0.7818608E-02  0.9504742E-01
          1   -1    0    0  501    0  0.00000000000E+00  0.00000000000E+00  0.10916920081E+04  0.10916920081E+04  0.50400000000E-02 0. -1.
         -1   -1    0    0    0  501 -0.00000000000E+00 -0.00000000000E+00 -0.22300403287E+04  0.22300403287E+04  0.50400000000E-02 0.  1.
    8880023    1    1    2    0    0  0.22079911949E+03 -0.59318500045E+03  0.83876791807E+03  0.12401461698E+04  0.65864270000E+03 0.  0.
    8880022    1    1    2    0    0 -0.22079911949E+03  0.59318500045E+03 -0.19771162387E+04  0.20815861669E+04  0.15294330000E+03 0.  0.
<mgrwt>
<rscale>  0 0.83935118E+03</rscale>
<asrwt>0</asrwt>
<pdfrwt beam="1">  1        1 0.16795262E+00 0.91347189E+03</pdfrwt>
<pdfrwt beam="2">  1       -1 0.34308313E+00 0.91347189E+03</pdfrwt>
<totfact> 0.23019562E-01</totfact>
</mgrwt>
</event>
<event>
 4    5  0.1074803E-007  0.1529430E+04  0.7818608E-02  0.8889129E-01
         -1   -1    0    0    0  501 -0.00000000000E+00  0.00000000000E+00  0.12903575164E+04  0.12903575164E+04  0.50400000000E-02 0.  1.
          1   -1    0    0  501    0  0.00000000000E+00 -0.00000000000E+00 -0.19731477599E+04  0.19731477599E+04  0.50400000000E-02 0. -1.
    8880023    1    1    2    0    0 -0.62483462625E+03 -0.12308242544E+04  0.30462570864E+03  0.15594722453E+04  0.65864270000E+03 0.  1.
    8880022    1    1    2    0    0  0.62483462625E+03  0.12308242544E+04 -0.98741595207E+03  0.17040330310E+04  0.15294330000E+03 0.  0.
<mgrwt>
<rscale>  0 0.14929883E+04</rscale>
<asrwt>0</asrwt>
<pdfrwt beam="1">  1        1 0.30356119E+00 0.15294302E+04</pdfrwt>
<pdfrwt beam="2">  1       -1 0.19851654E+00 0.15294302E+04</pdfrwt>
<totfact> 0.45138300E-01</totfact>
</mgrwt>
</event>
<event>
 4    5  0.1074803E-007  0.1016409E+04  0.7818608E-02  0.9360398E-01
          1   -1    0    0  501    0  0.00000000000E+00  0.00000000000E+00  0.18147349170E+04  0.18147349170E+04  0.50400000000E-02 0. -1.
         -1   -1    0    0    0  501 -0.00000000000E+00 -0.00000000000E+00 -0.21670347169E+04  0.21670347170E+04  0.50400000000E-02 0.  1.
    8880023    1    1    2    0    0  0.56116285672E+03  0.53326612351E+03  0.15889748000E+04  0.18862469699E+04  0.65864270000E+03 0.  0.
    8880022    1    1    2    0    0 -0.56116285672E+03 -0.53326612351E+03 -0.19412745999E+04  0.20955226641E+04  0.15294330000E+03 0.  1.
<mgrwt>
<rscale>  0 0.95407689E+03</rscale>
<asrwt>0</asrwt>
<pdfrwt beam="1">  1        1 0.27918998E+00 0.10164087E+04</pdfrwt>
<pdfrwt beam="2">  1       -1 0.33338996E+00 0.10164087E+04</pdfrwt>
<totfact> 0.81320165E-02</totfact>
</mgrwt>
</event>
<event>
 4    5  0.1074803E-007  0.6727602E+03  0.7818608E-02  0.1013757E+00
          1   -1    0    0  501    0  0.00000000000E+00  0.00000000000E+00  0.14932159567E+04  0.14932159567E+04  0.50400000000E-02 0. -1.
         -1   -1    0    0    0  501 -0.00000000000E+00 -0.00000000000E+00 -0.13453928102E+03  0.13453928112E+03  0.50400000000E-02 0.  1.
    8880023    1    1    2    0    0 -0.13499003942E+03 -0.23954647244E+02  0.11658098061E+04  0.13460010573E+04  0.65864270000E+03 0. -1.
    8880022    1    1    2    0    0  0.13499003942E+03  0.23954647244E+02  0.19286686953E+03  0.28175418052E+03  0.15294330000E+03 0.  1.
<mgrwt>
<rscale>  0 0.50008472E+03</rscale>
<asrwt>0</asrwt>
<pdfrwt beam="1">  1        1 0.22972553E+00 0.67276024E+03</pdfrwt>
<pdfrwt beam="2">  1       -1 0.20698351E-01 0.67276024E+03</pdfrwt>
<totfact> 0.13119857E+02</totfact>
</mgrwt>
</event>
<event>
 4    5  0.1074803E-007  0.7776929E+03  0.7818608E-02  0.9761285E-01
          1   -1    0    0  501    0  0.00000000000E+00  0.00000000000E+00  0.46055733335E+04  0.46055733335E+04  0.50400000000E-02 0. -1.
         -1   -1    0    0    0  501 -0.00000000000E+00 -0.00000000000E+00 -0.13467992152E+03  0.13467992161E+03  0.50400000000E-02 0.  1.
    8880023    1    1    2    0    0 -0.13102377507E+03  0.39221016640E+03  0.40722973632E+04  0.41458909856E+04  0.65864270000E+03 0. -1.
    8880022    1    1    2    0    0  0.13102377507E+03 -0.39221016640E+03  0.39859604881E+03  0.59436226950E+03  0.15294330000E+03 0.  0.
<mgrwt>
<rscale>  0 0.67482272E+03</rscale>
<asrwt>0</asrwt>
<pdfrwt beam="1">  1        1 0.70854969E+00 0.77769290E+03</pdfrwt>
<pdfrwt beam="2">  1       -1 0.20719990E-01 0.77769290E+03</pdfrwt>
<totfact> 0.54149677E-01</totfact>
</mgrwt>
</event>
<event>
 4    5  0.1074803E-007  0.9945994E+03  0.7818608E-02  0.9388658E-01
          1   -1    0    0  501    0  0.00000000000E+00  0.00000000000E+00  0.21426991587E+04  0.21426991587E+04  0.50400000000E-02 0. -1.
         -1   -1    0    0    0  501 -0.00000000000E+00 -0.00000000000E+00 -0.11003823126E+04  0.11003823126E+04  0.50400000000E-02 0.  1.
    8880023    1    1    2    0    0 -0.27257585298E+03 -0.69362832816E+03  0.18705027369E+04  0.21184920458E+04  0.65864270000E+03 0. -1.
    8880022    1    1    2    0    0  0.27257585298E+03  0.69362832816E+03 -0.82818589082E+03  0.11245894255E+04  0.15294330000E+03 0.  0.
<mgrwt>
<rscale>  0 0.93015027E+03</rscale>
<asrwt>0</asrwt>
<pdfrwt beam="1">  1        1 0.32964603E+00 0.99459945E+03</pdfrwt>
<pdfrwt beam="2">  1       -1 0.16928959E+00 0.99459945E+03</pdfrwt>
<totfact> 0.60212474E-01</totfact>
</mgrwt>
</event>
<event>
 4    5  0.1074803E-007  0.7984557E+03  0.7818608E-02  0.9714145E-01
         -1   -1    0    0    0  501 -0.00000000000E+00  0.00000000000E+00  0.40191510478E+03  0.40191510481E+03  0.50400000000E-02 0.  1.
          1   -1    0    0  501    0  0.00000000000E+00 -0.00000000000E+00 -0.21579147201E+04  0.21579147201E+04  0.50400000000E-02 0. -1.
    8880023    1    1    2    0    0 -0.16316390272E+03  0.42083120217E+03 -0.19008509365E+04  0.20617385501E+04  0.65864270000E+03 0. -1.
    8880022    1    1    2    0    0  0.16316390272E+03 -0.42083120217E+03  0.14485132112E+03  0.49809127489E+03  0.15294330000E+03 0.  0.
<mgrwt>
<rscale>  0 0.70180812E+03</rscale>
<asrwt>0</asrwt>
<pdfrwt beam="1">  1        1 0.33198687E+00 0.79845574E+03</pdfrwt>
<pdfrwt beam="2">  1       -1 0.61833094E-01 0.79845574E+03</pdfrwt>
<totfact> 0.64381717E+00</totfact>
</mgrwt>
</event>
<event>
 4    5  0.1074803E-007  0.9225788E+03  0.7818608E-02  0.9490716E-01
          1   -1    0    0  501    0  0.00000000000E+00  0.00000000000E+00  0.20013320854E+04  0.20013320854E+04  0.50400000000E-02 0. -1.
         -1   -1    0    0    0  501 -0.00000000000E+00 -0.00000000000E+00 -0.10518015349E+04  0.10518015349E+04  0.50400000000E-02 0.  1.
    8880023    1    1    2    0    0 -0.43741718362E+03  0.47540266836E+03  0.17710265063E+04  0.19969192728E+04  0.65864270000E+03 0.  0.
    8880022    1    1    2    0    0  0.43741718362E+03 -0.47540266836E+03 -0.82149595583E+03  0.10562143476E+04  0.15294330000E+03 0.  0.
<mgrwt>
<rscale>  0 0.84971753E+03</rscale>
<asrwt>0</asrwt>
<pdfrwt beam="1">  1        1 0.30789724E+00 0.92257883E+03</pdfrwt>
<pdfrwt beam="2">  1       -1 0.16181562E+00 0.92257883E+03</pdfrwt>
<totfact> 0.86262930E-01</totfact>
</mgrwt>
</event>
<event>
 4    5  0.1074803E-007  0.9759829E+03  0.7818608E-02  0.9413677E-01
         -1   -1    0    0    0  501 -0.00000000000E+00  0.00000000000E+00  0.67964040184E+03  0.67964040186E+03  0.50400000000E-02 0.  1.
          1   -1    0    0  501    0  0.00000000000E+00 -0.00000000000E+00 -0.17664979299E+04  0.17664979299E+04  0.50400000000E-02 0. -1.
    8880023    1    1    2    0    0 -0.24096951985E+03  0.67872385237E+03 -0.13485970182E+04  0.16647091341E+04  0.65864270000E+03 0.  0.
    8880022    1    1    2    0    0  0.24096951985E+03 -0.67872385237E+03  0.26173949016E+03  0.78142919768E+03  0.15294330000E+03 0.  0.
<mgrwt>
<rscale>  0 0.90958645E+03</rscale>
<asrwt>0</asrwt>
<pdfrwt beam="1">  1        1 0.27176891E+00 0.97598288E+03</pdfrwt>
<pdfrwt beam="2">  1       -1 0.10456006E+00 0.97598288E+03</pdfrwt>
<totfact> 0.37337373E+00</totfact>
</mgrwt>
</event>
<event>
 4    5  0.1074803E-007  0.8245727E+03  0.7818608E-02  0.9659986E-01
          1   -1    0    0  501    0  0.00000000000E+00  0.00000000000E+00  0.14912048071E+04  0.14912048071E+04  0.50400000000E-02 0. -1.
         -1   -1    0    0    0  501 -0.00000000000E+00 -0.00000000000E+00 -0.35218698618E+03  0.35218698622E+03  0.50400000000E-02 0.  1.
    8880023    1    1    2    0    0  0.22243960266E+03 -0.44343048164E+03  0.10185129573E+04  0.13104536693E+04  0.65864270000E+03 0.  0.
    8880022    1    1    2    0    0 -0.22243960266E+03  0.44343048164E+03  0.12050486362E+03  0.53293812404E+03  0.15294330000E+03 0.  0.
<mgrwt>
<rscale>  0 0.73450016E+03</rscale>
<asrwt>0</asrwt>
<pdfrwt beam="1">  1        1 0.22941612E+00 0.82457272E+03</pdfrwt>
<pdfrwt beam="2">  1       -1 0.54182614E-01 0.82457272E+03</pdfrwt>
<totfact> 0.23369820E+01</totfact>
</mgrwt>
</event>
<event>
 4    5  0.1074803E-007  0.8446603E+03  0.7818608E-02  0.9621455E-01
         -1   -1    0    0    0  501 -0.00000000000E+00  0.00000000000E+00  0.39645382449E+03  0.39645382452E+03  0.50400000000E-02 0.  1.
          1   -1    0    0  501    0  0.00000000000E+00 -0.00000000000E+00 -0.20264298276E+04  0.20264298276E+04  0.50400000000E-02 0. -1.
    8880023    1    1    2    0    0 -0.79471336387E+02  0.52280498029E+03 -0.16694710208E+04  0.18709848841E+04  0.65864270000E+03 0. -1.
    8880022    1    1    2    0    0  0.79471336387E+02 -0.52280498029E+03  0.39495017741E+02  0.55189876804E+03  0.15294330000E+03 0.  0.
<mgrwt>
<rscale>  0 0.75892293E+03</rscale>
<asrwt>0</asrwt>
<pdfrwt beam="1">  1        1 0.31175843E+00 0.84466026E+03</pdfrwt>
<pdfrwt beam="2">  1       -1 0.60992897E-01 0.84466026E+03</pdfrwt>
<totfact> 0.80484211E+00</totfact>
</mgrwt>
</event>
<event>
 4    5  0.1074803E-007  0.1200037E+04  0.7818608E-02  0.9157087E-01
         -1   -1    0    0    0  501 -0.00000000000E+00  0.00000000000E+00  0.17920201164E+04  0.17920201164E+04  0.50400000000E-02 0.  1.
          1   -1    0    0  501    0  0.00000000000E+00 -0.00000000000E+00 -0.73767987129E+03  0.73767987130E+03  0.50400000000E-02 0. -1.
    8880023    1    1    2    0    0 -0.94902280206E+03  0.32501258408E+03  0.22897230969E+03  0.12216857139E+04  0.65864270000E+03 0.  0.
    8880022    1    1    2    0    0  0.94902280206E+03 -0.32501258408E+03  0.82536793538E+03  0.13080142738E+04  0.15294330000E+03 0.  0.
<mgrwt>
<rscale>  0 0.11507555E+04</rscale>
<asrwt>0</asrwt>
<pdfrwt beam="1">  1        1 0.11348921E+00 0.12000365E+04</pdfrwt>
<pdfrwt beam="2">  1       -1 0.27569540E+00 0.12000365E+04</pdfrwt>
<totfact> 0.11759684E+00</totfact>
</mgrwt>
</event>
<event>
 4    5  0.1074803E-007  0.9608124E+03  0.7818608E-02  0.9434725E-01
          1   -1    0    0  501    0  0.00000000000E+00  0.00000000000E+00  0.82040836844E+03  0.82040836846E+03  0.50400000000E-02 0. -1.
         -1   -1    0    0    0  501 -0.00000000000E+00 -0.00000000000E+00 -0.17211040829E+04  0.17211040829E+04  0.50400000000E-02 0.  1.
    8880023    1    1    2    0    0 -0.63895025843E+03  0.28476786243E+03  0.41262502074E+03  0.10456671470E+04  0.65864270000E+03 0.  0.
    8880022    1    1    2    0    0  0.63895025843E+03 -0.28476786243E+03 -0.13133207352E+04  0.14958453044E+04  0.15294330000E+03 0.  0.
<mgrwt>
<rscale>  0 0.89272208E+03</rscale>
<asrwt>0</asrwt>
<pdfrwt beam="1">  1        1 0.12621667E+00 0.96081235E+03</pdfrwt>
<pdfrwt beam="2">  1       -1 0.26478524E+00 0.96081235E+03</pdfrwt>
<totfact> 0.12037102E+00</totfact>
</mgrwt>
</event>
<event>
 4    5  0.1074803E-007  0.1079980E+04  0.7818608E-02  0.9283681E-01
         -1   -1    0    0    0  501 -0.00000000000E+00  0.00000000000E+00  0.19502294875E+04  0.19502294875E+04  0.50400000000E-02 0.  1.
          1   -1    0    0  501    0  0.00000000000E+00 -0.00000000000E+00 -0.11886162897E+04  0.11886162897E+04  0.50400000000E-02 0. -1.
    8880023    1    1    2    0    0 -0.81929712231E+03  0.24758405291E+03 -0.80510133284E+03  0.13470501105E+04  0.65864270000E+03 0. -1.
    8880022    1    1    2    0    0  0.81929712231E+03 -0.24758405291E+03  0.15667145306E+04  0.17917956667E+04  0.15294330000E+03 0.  0.
<mgrwt>
<rscale>  0 0.10229923E+04</rscale>
<asrwt>0</asrwt>
<pdfrwt beam="1">  1        1 0.18286405E+00 0.10799796E+04</pdfrwt>
<pdfrwt beam="2">  1       -1 0.30003530E+00 0.10799796E+04</pdfrwt>
<totfact> 0.36021112E-01</totfact>
</mgrwt>
</event>
<event>
 4    5  0.1074803E-007  0.7837469E+03  0.7818608E-02  0.9747108E-01
         -1   -1    0    0    0  501 -0.00000000000E+00  0.00000000000E+00  0.84164819655E+03  0.84164819656E+03  0.50400000000E-02 0.  1.
          1   -1    0    0  501    0  0.00000000000E+00 -0.00000000000E+00 -0.10056573614E+04  0.10056573614E+04  0.50400000000E-02 0. -1.
    8880023    1    1    2    0    0  0.17765588853E+03 -0.38585919875E+03 -0.76527418372E+03  0.10954011678E+04  0.65864270000E+03 0. -1.
    8880022    1    1    2    0    0 -0.17765588853E+03  0.38585919875E+03  0.60126501886E+03  0.75190439013E+03  0.15294330000E+03 0.  0.
<mgrwt>
<rscale>  0 0.68279950E+03</rscale>
<asrwt>0</asrwt>
<pdfrwt beam="1">  1        1 0.15471652E+00 0.78374686E+03</pdfrwt>
<pdfrwt beam="2">  1       -1 0.12948434E+00 0.78374686E+03</pdfrwt>
<totfact> 0.78950309E+00</totfact>
</mgrwt>
</event>
<event>
 4    5  0.1074803E-007  0.8610501E+03  0.7818608E-02  0.9591698E-01
          1   -1    0    0  501    0  0.00000000000E+00  0.00000000000E+00  0.19340320380E+04  0.19340320380E+04  0.50400000000E-02 0. -1.
         -1   -1    0    0    0  501 -0.00000000000E+00 -0.00000000000E+00 -0.36896554722E+03  0.36896554725E+03  0.50400000000E-02 0.  1.
    8880023    1    1    2    0    0 -0.44951981169E+03 -0.32485241125E+03  0.29752769964E+03  0.91100498820E+03  0.65864270000E+03 0.  0.
    8880022    1    1    2    0    0  0.44951981169E+03  0.32485241125E+03  0.12675387911E+04  0.13919925970E+04  0.15294330000E+03 0.  0.
<mgrwt>
<rscale>  0 0.77848096E+03</rscale>
<asrwt>0</asrwt>
<pdfrwt beam="1">  1        1 0.29754339E+00 0.86105015E+03</pdfrwt>
<pdfrwt beam="2">  1       -1 0.56763930E-01 0.86105015E+03</pdfrwt>
<totfact> 0.10667261E+01</totfact>
</mgrwt>
</event>
<event>
 4    5  0.1074803E-007  0.7857101E+03  0.7818608E-02  0.9742591E-01
         -1   -1    0    0    0  501 -0.00000000000E+00  0.00000000000E+00  0.56916072931E+03  0.56916072933E+03  0.50400000000E-02 0.  1.
          1   -1    0    0  501    0  0.00000000000E+00 -0.00000000000E+00 -0.25729416385E+04  0.25729416386E+04  0.50400000000E-02 0. -1.
    8880023    1    1    2    0    0 -0.35439379853E+03 -0.24069716805E+03 -0.24083860989E+04  0.25333108571E+04  0.65864270000E+03 0. -1.
    8880022    1    1    2    0    0  0.35439379853E+03  0.24069716805E+03  0.40460518962E+03  0.60879151080E+03  0.15294330000E+03 0.  0.
<mgrwt>
<rscale>  0 0.68536591E+03</rscale>
<asrwt>0</asrwt>
<pdfrwt beam="1">  1        1 0.39583717E+00 0.78571006E+03</pdfrwt>
<pdfrwt beam="2">  1       -1 0.87563190E-01 0.78571006E+03</pdfrwt>
<totfact> 0.16375313E+00</totfact>
</mgrwt>
</event>
<event>
 4    5  0.1074803E-007  0.9494053E+03  0.7818608E-02  0.9450970E-01
         -1   -1    0    0    0  501 -0.00000000000E+00  0.00000000000E+00  0.43773388302E+03  0.43773388305E+03  0.50400000000E-02 0.  1.
          1   -1    0    0  501    0  0.00000000000E+00 -0.00000000000E+00 -0.25809524396E+04  0.25809524396E+04  0.50400000000E-02 0. -1.
    8880023    1    1    2    0    0 -0.63685456524E+03 -0.24895078738E+03 -0.21139915907E+04  0.23173974376E+04  0.65864270000E+03 0.  0.
    8880022    1    1    2    0    0  0.63685456524E+03  0.24895078738E+03 -0.29226965888E+02  0.70128888509E+03  0.15294330000E+03 0.  0.
<mgrwt>
<rscale>  0 0.87997150E+03</rscale>
<asrwt>0</asrwt>
<pdfrwt beam="1">  1        1 0.39706960E+00 0.94940531E+03</pdfrwt>
<pdfrwt beam="2">  1       -1 0.67343676E-01 0.94940531E+03</pdfrwt>
<totfact> 0.27313936E+00</totfact>
</mgrwt>
</event>
<event>
 4    5  0.1074803E-007  0.1319693E+04  0.7818608E-02  0.9048738E-01
          1   -1    0    0  501    0  0.00000000000E+00  0.00000000000E+00  0.34621904823E+04  0.34621904823E+04  0.50400000000E-02 0. -1.
         -1   -1    0    0    0  501 -0.00000000000E+00 -0.00000000000E+00 -0.69455375244E+03  0.69455375246E+03  0.50400000000E-02 0.  1.
    8880023    1    1    2    0    0  0.50953038338E+03 -0.10237960302E+04  0.26949127012E+04  0.30006906199E+04  0.65864270000E+03 0.  0.
    8880022    1    1    2    0    0 -0.50953038338E+03  0.10237960302E+04  0.72724028621E+02  0.11560536148E+04  0.15294330000E+03 0.  0.
<mgrwt>
<rscale>  0 0.12760977E+04</rscale>
<asrwt>0</asrwt>
<pdfrwt beam="1">  1        1 0.53264468E+00 0.13196930E+04</pdfrwt>
<pdfrwt beam="2">  1       -1 0.10685442E+00 0.13196930E+04</pdfrwt>
<totfact> 0.21541969E-01</totfact>
</mgrwt>
</event>
<event>
 4    5  0.1074803E-007  0.7476131E+03  0.7818608E-02  0.9838301E-01
          1   -1    0    0  501    0  0.00000000000E+00  0.00000000000E+00  0.30295832488E+04  0.30295832488E+04  0.50400000000E-02 0. -1.
         -1   -1    0    0    0  501 -0.00000000000E+00 -0.00000000000E+00 -0.37724136745E+03  0.37724136749E+03  0.50400000000E-02 0.  1.
    8880023    1    1    2    0    0 -0.34027664077E+03 -0.96576179246E+02  0.28689465873E+04  0.29647562932E+04  0.65864270000E+03 0. -1.
    8880022    1    1    2    0    0  0.34027664077E+03  0.96576179246E+02 -0.21660470597E+03  0.44206832313E+03  0.15294330000E+03 0.  0.
<mgrwt>
<rscale>  0 0.63346989E+03</rscale>
<asrwt>0</asrwt>
<pdfrwt beam="1">  1        1 0.46608973E+00 0.74761311E+03</pdfrwt>
<pdfrwt beam="2">  1       -1 0.58037133E-01 0.74761311E+03</pdfrwt>
<totfact> 0.18411722E+00</totfact>
</mgrwt>
</event>
<event>
 4    5  0.1074803E-007  0.7114730E+03  0.7818608E-02  0.9952571E-01
         -1   -1    0    0    0  501 -0.00000000000E+00  0.00000000000E+00  0.10437487883E+04  0.10437487883E+04  0.50400000000E-02 0.  1.
          1   -1    0    0  501    0  0.00000000000E+00 -0.00000000000E+00 -0.49693952614E+03  0.49693952617E+03  0.50400000000E-02 0. -1.
    8880023    1    1    2    0    0 -0.26864461311E+03 -0.14620320349E+02 -0.19432597511E+03  0.73753404856E+03  0.65864270000E+03 0. -1.
    8880022    1    1    2    0    0  0.26864461311E+03  0.14620320349E+02  0.74113523731E+03  0.80315426595E+03  0.15294330000E+03 0.  0.
<mgrwt>
<rscale>  0 0.57779735E+03</rscale>
<asrwt>0</asrwt>
<pdfrwt beam="1">  1        1 0.76452235E-01 0.71147304E+03</pdfrwt>
<pdfrwt beam="2">  1       -1 0.16057674E+00 0.71147304E+03</pdfrwt>
<totfact> 0.13363964E+01</totfact>
</mgrwt>
</event>
<event>
 4    5  0.1074803E-007  0.9152471E+03  0.7818608E-02  0.9501985E-01
          1   -1    0    0  501    0  0.00000000000E+00  0.00000000000E+00  0.26730317099E+04  0.26730317099E+04  0.50400000000E-02 0. -1.
         -1   -1    0    0    0  501 -0.00000000000E+00 -0.00000000000E+00 -0.83308200269E+03  0.83308200270E+03  0.50400000000E-02 0.  1.
    8880023    1    1    2    0    0 -0.51876978780E+03 -0.36707616881E+03  0.24479223674E+04  0.26134270851E+04  0.65864270000E+03 0. -1.
    8880022    1    1    2    0    0  0.51876978780E+03  0.36707616881E+03 -0.60797266012E+03  0.89268662749E+03  0.15294330000E+03 0.  0.
<mgrwt>
<rscale>  0 0.84137600E+03</rscale>
<asrwt>0</asrwt>
<pdfrwt beam="1">  1        1 0.41123565E+00 0.91524708E+03</pdfrwt>
<pdfrwt beam="2">  1       -1 0.12816646E+00 0.91524708E+03</pdfrwt>
<totfact> 0.55904871E-01</totfact>
</mgrwt>
</event>
<event>
 4    5  0.1074803E-007  0.1218180E+04  0.7818608E-02  0.9139649E-01
         -1   -1    0    0    0  501 -0.00000000000E+00  0.00000000000E+00  0.21873216184E+04  0.21873216184E+04  0.50400000000E-02 0.  1.
          1   -1    0    0  501    0  0.00000000000E+00 -0.00000000000E+00 -0.67101619429E+03  0.67101619430E+03  0.50400000000E-02 0. -1.
    8880023    1    1    2    0    0  0.85608038102E+03  0.56327603432E+03  0.28869530792E+03  0.12519220010E+04  0.65864270000E+03 0.  0.
    8880022    1    1    2    0    0 -0.85608038102E+03 -0.56327603432E+03  0.12276101162E+04  0.16064158117E+04  0.15294330000E+03 0.  0.
<mgrwt>
<rscale>  0 0.11698664E+04</rscale>
<asrwt>0</asrwt>
<pdfrwt beam="1">  1        1 0.10323326E+00 0.12181805E+04</pdfrwt>
<pdfrwt beam="2">  1       -1 0.33651101E+00 0.12181805E+04</pdfrwt>
<totfact> 0.54795351E-01</totfact>
</mgrwt>
</event>
<event>
 4    5  0.1074803E-007  0.1334481E+04  0.7818608E-02  0.9036341E-01
         -1   -1    0    0    0  501 -0.00000000000E+00  0.00000000000E+00  0.34861663849E+04  0.34861663849E+04  0.50400000000E-02 0.  1.
          1   -1    0    0  501    0  0.00000000000E+00 -0.00000000000E+00 -0.50013882882E+03  0.50013882885E+03  0.50400000000E-02 0. -1.
    8880023    1    1    2    0    0  0.10727702094E+04  0.44293596629E+03  0.95127213457E+03  0.16388279570E+04  0.65864270000E+03 0.  0.
    8880022    1    1    2    0    0 -0.10727702094E+04 -0.44293596629E+03  0.20347554215E+04  0.23474772567E+04  0.15294330000E+03 0.  0.
<mgrwt>
<rscale>  0 0.12914896E+04</rscale>
<asrwt>0</asrwt>
<pdfrwt beam="1">  1        1 0.76944438E-01 0.13344806E+04</pdfrwt>
<pdfrwt beam="2">  1       -1 0.53633327E+00 0.13344806E+04</pdfrwt>
<totfact> 0.38132044E-02</totfact>
</mgrwt>
</event>
<event>
 4    5  0.1074803E-007  0.9525484E+03  0.7818608E-02  0.9446457E-01
          1   -1    0    0  501    0  0.00000000000E+00  0.00000000000E+00  0.42676719152E+03  0.42676719155E+03  0.50400000000E-02 0. -1.
         -1   -1    0    0    0  501 -0.00000000000E+00 -0.00000000000E+00 -0.22967846548E+04  0.22967846548E+04  0.50400000000E-02 0.  1.
    8880023    1    1    2    0    0  0.67120772334E+03  0.15171845785E+03 -0.29371461992E+03  0.99680328177E+03  0.65864270000E+03 0.  0.
    8880022    1    1    2    0    0 -0.67120772334E+03 -0.15171845785E+03 -0.15763028433E+04  0.17267485646E+04  0.15294330000E+03 0.  0.
<mgrwt>
<rscale>  0 0.88349113E+03</rscale>
<asrwt>0</asrwt>
<pdfrwt beam="1">  1        1 0.65656493E-01 0.95254843E+03</pdfrwt>
<pdfrwt beam="2">  1       -1 0.35335148E+00 0.95254843E+03</pdfrwt>
<totfact> 0.83513063E-01</totfact>
</mgrwt>
</event>
<event>
 4    5  0.1074803E-007  0.7119275E+03  0.7818608E-02  0.9950912E-01
          1   -1    0    0  501    0  0.00000000000E+00  0.00000000000E+00  0.15660633289E+04  0.15660633289E+04  0.50400000000E-02 0. -1.
         -1   -1    0    0    0  501 -0.00000000000E+00 -0.00000000000E+00 -0.72700521731E+03  0.72700521733E+03  0.50400000000E-02 0.  1.
    8880023    1    1    2    0    0  0.36106191724E+02 -0.26781885575E+03  0.14457481161E+04  0.16115298377E+04  0.65864270000E+03 0. -1.
    8880022    1    1    2    0    0 -0.36106191724E+02  0.26781885575E+03 -0.60669000450E+03  0.68153870847E+03  0.15294330000E+03 0.  0.
<mgrwt>
<rscale>  0 0.57856079E+03</rscale>
<asrwt>0</asrwt>
<pdfrwt beam="1">  1        1 0.24093282E+00 0.71192753E+03</pdfrwt>
<pdfrwt beam="2">  1       -1 0.11184696E+00 0.71192753E+03</pdfrwt>
<totfact> 0.45372872E+00</totfact>
</mgrwt>
</event>
<event>
 4    5  0.1074803E-007  0.7291733E+03  0.7818608E-02  0.9892687E-01
          1   -1    0    0  501    0  0.00000000000E+00  0.00000000000E+00  0.17624045499E+04  0.17624045499E+04  0.50400000000E-02 0. -1.
         -1   -1    0    0    0  501 -0.00000000000E+00 -0.00000000000E+00 -0.40101743621E+03  0.40101743625E+03  0.50400000000E-02 0.  1.
    8880023    1    1    2    0    0 -0.11342970803E+03  0.29157702128E+03  0.15883625054E+04  0.17477382850E+04  0.65864270000E+03 0. -1.
    8880022    1    1    2    0    0  0.11342970803E+03 -0.29157702128E+03 -0.22697539167E+03  0.41568370120E+03  0.15294330000E+03 0.  0.
<mgrwt>
<rscale>  0 0.60617011E+03</rscale>
<asrwt>0</asrwt>
<pdfrwt beam="1">  1        1 0.27113915E+00 0.72917327E+03</pdfrwt>
<pdfrwt beam="2">  1       -1 0.61694992E-01 0.72917327E+03</pdfrwt>
<totfact> 0.12026769E+01</totfact>
</mgrwt>
</event>
<event>
 4    5  0.1074803E-007  0.9121671E+03  0.7818608E-02  0.9506775E-01
         -1   -1    0    0    0  501 -0.00000000000E+00  0.00000000000E+00  0.47003813612E+03  0.47003813614E+03  0.50400000000E-02 0.  1.
          1   -1    0    0  501    0  0.00000000000E+00 -0.00000000000E+00 -0.26296466704E+04  0.26296466704E+04  0.50400000000E-02 0. -1.
    8880023    1    1    2    0    0 -0.59773958219E+03 -0.20235121487E+03 -0.22650735942E+04  0.24418450433E+04  0.65864270000E+03 0.  0.
    8880022    1    1    2    0    0  0.59773958219E+03  0.20235121487E+03  0.10546505985E+03  0.65783976327E+03  0.15294330000E+03 0.  0.
<mgrwt>
<rscale>  0 0.83786158E+03</rscale>
<asrwt>0</asrwt>
<pdfrwt beam="1">  1        1 0.40456101E+00 0.91216711E+03</pdfrwt>
<pdfrwt beam="2">  1       -1 0.72313562E-01 0.91216711E+03</pdfrwt>
<totfact> 0.21966098E+00</totfact>
</mgrwt>
</event>
<event>
 4    5  0.1074803E-007  0.1368440E+04  0.7818608E-02  0.9008602E-01
         -1   -1    0    0    0  501 -0.00000000000E+00  0.00000000000E+00  0.13644622530E+04  0.13644622530E+04  0.50400000000E-02 0.  1.
          1   -1    0    0  501    0  0.00000000000E+00 -0.00000000000E+00 -0.28393318075E+04  0.28393318075E+04  0.50400000000E-02 0. -1.
    8880023    1    1    2    0    0 -0.10657292599E+04  0.55048879403E+03  0.83035935247E+03  0.16006634963E+04  0.65864270000E+03 0.  0.
    8880022    1    1    2    0    0  0.10657292599E+04 -0.55048879403E+03 -0.23052289070E+04  0.26031305643E+04  0.15294330000E+03 0.  0.
<mgrwt>
<rscale>  0 0.13267692E+04</rscale>
<asrwt>0</asrwt>
<pdfrwt beam="1">  1        1 0.43682028E+00 0.13684396E+04</pdfrwt>
<pdfrwt beam="2">  1       -1 0.20991727E+00 0.13684396E+04</pdfrwt>
<totfact> 0.96904968E-02</totfact>
</mgrwt>
</event>
<event>
 4    5  0.1074803E-007  0.7030437E+03  0.7818608E-02  0.9984801E-01
         -1   -1    0    0    0  501 -0.00000000000E+00  0.00000000000E+00  0.25223007867E+03  0.25223007872E+03  0.50400000000E-02 0.  1.
          1   -1    0    0  501    0  0.00000000000E+00 -0.00000000000E+00 -0.33908083167E+04  0.33908083167E+04  0.50400000000E-02 0. -1.
    8880023    1    1    2    0    0 -0.23315738604E+03 -0.78088895205E+02 -0.32556510345E+04  0.33306957392E+04  0.65864270000E+03 0.  0.
    8880022    1    1    2    0    0  0.23315738604E+03  0.78088895205E+02  0.11707279649E+03  0.31234265625E+03  0.15294330000E+03 0.  0.
<mgrwt>
<rscale>  0 0.56321713E+03</rscale>
<asrwt>0</asrwt>
<pdfrwt beam="1">  1        1 0.52166279E+00 0.70304370E+03</pdfrwt>
<pdfrwt beam="2">  1       -1 0.38804630E-01 0.70304370E+03</pdfrwt>
<totfact> 0.21420989E+00</totfact>
</mgrwt>
</event>
<event>
 4    5  0.1074803E-007  0.7020365E+03  0.7818608E-02  0.9988855E-01
          1   -1    0    0  501    0  0.00000000000E+00  0.00000000000E+00  0.65802178984E+03  0.65802178986E+03  0.50400000000E-02 0. -1.
         -1   -1    0    0    0  501 -0.00000000000E+00 -0.00000000000E+00 -0.59806190508E+03  0.59806190510E+03  0.50400000000E-02 0.  1.
    8880023    1    1    2    0    0  0.23499591796E+03  0.61822474704E+02  0.40241422961E+03  0.80919251003E+03  0.65864270000E+03 0. -1.
    8880022    1    1    2    0    0 -0.23499591796E+03 -0.61822474704E+02 -0.34245434486E+03  0.44689118492E+03  0.15294330000E+03 0.  0.
<mgrwt>
<rscale>  0 0.56141615E+03</rscale>
<asrwt>0</asrwt>
<pdfrwt beam="1">  1        1 0.10123412E+00 0.70203654E+03</pdfrwt>
<pdfrwt beam="2">  1       -1 0.92009524E-01 0.70203654E+03</pdfrwt>
<totfact> 0.35388915E+01</totfact>
</mgrwt>
</event>
<event>
 4    5  0.1074803E-007  0.8009925E+03  0.7818608E-02  0.9708654E-01
         -1   -1    0    0    0  501 -0.00000000000E+00  0.00000000000E+00  0.76744110326E+03  0.76744110328E+03  0.50400000000E-02 0.  1.
          1   -1    0    0  501    0  0.00000000000E+00 -0.00000000000E+00 -0.65956601881E+03  0.65956601883E+03  0.50400000000E-02 0. -1.
    8880023    1    1    2    0    0  0.45517099425E+03 -0.24458285223E+02 -0.23698572578E+03  0.83531507960E+03  0.65864270000E+03 0.  0.
    8880022    1    1    2    0    0 -0.45517099425E+03  0.24458285223E+02  0.34486081023E+03  0.59169204251E+03  0.15294330000E+03 0.  0.
<mgrwt>
<rscale>  0 0.70503861E+03</rscale>
<asrwt>0</asrwt>
<pdfrwt beam="1">  1        1 0.10147170E+00 0.80099254E+03</pdfrwt>
<pdfrwt beam="2">  1       -1 0.11806786E+00 0.80099254E+03</pdfrwt>
<totfact> 0.19601482E+01</totfact>
</mgrwt>
</event>
<event>
 4    5  0.1074803E-007  0.9198852E+03  0.7818608E-02  0.9494835E-01
          1   -1    0    0  501    0  0.00000000000E+00  0.00000000000E+00  0.16092604315E+04  0.16092604316E+04  0.50400000000E-02 0. -1.
         -1   -1    0    0    0  501 -0.00000000000E+00 -0.00000000000E+00 -0.38786932337E+03  0.38786932340E+03  0.50400000000E-02 0.  1.
    8880023    1    1    2    0    0  0.60771639378E+03 -0.20750751703E+03  0.70053612313E+03  0.11562610652E+04  0.65864270000E+03 0. -1.
    8880022    1    1    2    0    0 -0.60771639378E+03  0.20750751703E+03  0.52085498504E+03  0.84086868973E+03  0.15294330000E+03 0.  1.
<mgrwt>
<rscale>  0 0.84665684E+03</rscale>
<asrwt>0</asrwt>
<pdfrwt beam="1">  1        1 0.24757853E+00 0.91988521E+03</pdfrwt>
<pdfrwt beam="2">  1       -1 0.59672203E-01 0.91988521E+03</pdfrwt>
<totfact> 0.15899721E+01</totfact>
</mgrwt>
</event>
<event>
 4    5  0.1074803E-007  0.7620091E+03  0.7818608E-02  0.9799934E-01
          1   -1    0    0  501    0  0.00000000000E+00  0.00000000000E+00  0.66263892999E+03  0.66263893001E+03  0.50400000000E-02 0. -1.
         -1   -1    0    0    0  501 -0.00000000000E+00 -0.00000000000E+00 -0.92610421337E+03  0.92610421338E+03  0.50400000000E-02 0.  1.
    8880023    1    1    2    0    0  0.11668717956E+03  0.36500920546E+03  0.35868811600E+03  0.84220839985E+03  0.65864270000E+03 0. -1.
    8880022    1    1    2    0    0 -0.11668717956E+03 -0.36500920546E+03 -0.62215339938E+03  0.74653474355E+03  0.15294330000E+03 0.  0.
<mgrwt>
<rscale>  0 0.65366100E+03</rscale>
<asrwt>0</asrwt>
<pdfrwt beam="1">  1        1 0.10194445E+00 0.76200907E+03</pdfrwt>
<pdfrwt beam="2">  1       -1 0.14247757E+00 0.76200907E+03</pdfrwt>
<totfact> 0.12176385E+01</totfact>
</mgrwt>
</event>
<event>
 4    5  0.1074803E-007  0.9054456E+03  0.7818608E-02  0.9517346E-01
         -1   -1    0    0    0  501 -0.00000000000E+00  0.00000000000E+00  0.65345368546E+03  0.65345368548E+03  0.50400000000E-02 0.  1.
          1   -1    0    0  501    0  0.00000000000E+00 -0.00000000000E+00 -0.13372949397E+04  0.13372949397E+04  0.50400000000E-02 0. -1.
    8880023    1    1    2    0    0 -0.69117804744E+01  0.62126786831E+03 -0.93666559184E+03  0.13027563756E+04  0.65864270000E+03 0.  0.
    8880022    1    1    2    0    0  0.69117804744E+01 -0.62126786831E+03  0.25282433757E+03  0.68799224965E+03  0.15294330000E+03 0.  0.
<mgrwt>
<rscale>  0 0.83016994E+03</rscale>
<asrwt>0</asrwt>
<pdfrwt beam="1">  1        1 0.20573768E+00 0.90544560E+03</pdfrwt>
<pdfrwt beam="2">  1       -1 0.10053134E+00 0.90544560E+03</pdfrwt>
<totfact> 0.81356000E+00</totfact>
</mgrwt>
</event>
<event>
 4    5  0.1074803E-007  0.1273377E+04  0.7818608E-02  0.9088898E-01
         -1   -1    0    0    0  501 -0.00000000000E+00  0.00000000000E+00  0.11856832274E+04  0.11856832274E+04  0.50400000000E-02 0.  1.
          1   -1    0    0  501    0  0.00000000000E+00 -0.00000000000E+00 -0.13716496181E+04  0.13716496181E+04  0.50400000000E-02 0. -1.
    8880023    1    1    2    0    0 -0.10146297954E+04  0.39775117136E+03 -0.56541751593E+03  0.13932647953E+04  0.65864270000E+03 0.  0.
    8880022    1    1    2    0    0  0.10146297954E+04 -0.39775117136E+03  0.37945112527E+03  0.11640680502E+04  0.15294330000E+03 0.  0.
<mgrwt>
<rscale>  0 0.12277616E+04</rscale>
<asrwt>0</asrwt>
<pdfrwt beam="1">  1        1 0.21102302E+00 0.12733773E+04</pdfrwt>
<pdfrwt beam="2">  1       -1 0.18241281E+00 0.12733773E+04</pdfrwt>
<totfact> 0.15635703E+00</totfact>
</mgrwt>
</event>
<event>
 4    5  0.1074803E-007  0.1324971E+04  0.7818608E-02  0.9044291E-01
         -1   -1    0    0    0  501 -0.00000000000E+00  0.00000000000E+00  0.99650815665E+03  0.99650815666E+03  0.50400000000E-02 0.  1.
          1   -1    0    0  501    0  0.00000000000E+00 -0.00000000000E+00 -0.16250323609E+04  0.16250323609E+04  0.50400000000E-02 0. -1.
    8880023    1    1    2    0    0  0.85147834422E+03 -0.77247755224E+03 -0.61724156463E+03  0.14616888502E+04  0.65864270000E+03 0.  1.
    8880022    1    1    2    0    0 -0.85147834422E+03  0.77247755224E+03 -0.11282639640E+02  0.11598516674E+04  0.15294330000E+03 0.  0.
<mgrwt>
<rscale>  0 0.12815931E+04</rscale>
<asrwt>0</asrwt>
<pdfrwt beam="1">  1        1 0.25000498E+00 0.13249706E+04</pdfrwt>
<pdfrwt beam="2">  1       -1 0.15330895E+00 0.13249706E+04</pdfrwt>
<totfact> 0.17065773E+00</totfact>
</mgrwt>
</event>
<event>
 4    5  0.1074803E-007  0.8600852E+03  0.7818608E-02  0.9593412E-01
         -1   -1    0    0    0  501 -0.00000000000E+00  0.00000000000E+00  0.69874507977E+03  0.69874507979E+03  0.50400000000E-02 0.  1.
          1   -1    0    0  501    0  0.00000000000E+00 -0.00000000000E+00 -0.87328507988E+03  0.87328507989E+03  0.50400000000E-02 0. -1.
    8880023    1    1    2    0    0 -0.51446178273E+03  0.20313896732E+03 -0.40866709956E+03  0.95223703481E+03  0.65864270000E+03 0.  0.
    8880022    1    1    2    0    0  0.51446178273E+03 -0.20313896732E+03  0.23412709945E+03  0.61979312488E+03  0.15294330000E+03 0.  0.
<mgrwt>
<rscale>  0 0.77733764E+03</rscale>
<asrwt>0</asrwt>
<pdfrwt beam="1">  1        1 0.13435155E+00 0.86008521E+03</pdfrwt>
<pdfrwt beam="2">  1       -1 0.10749924E+00 0.86008521E+03</pdfrwt>
<totfact> 0.15678540E+01</totfact>
</mgrwt>
</event>
<event>
 4    5  0.1074803E-007  0.6800261E+03  0.7818608E-02  0.1009309E+00
         -1   -1    0    0    0  501 -0.00000000000E+00  0.00000000000E+00  0.10542200991E+04  0.10542200992E+04  0.50400000000E-02 0.  1.
          1   -1    0    0  501    0  0.00000000000E+00 -0.00000000000E+00 -0.76812088941E+03  0.76812088942E+03  0.50400000000E-02 0. -1.
    8880023    1    1    2    0    0  0.86002386727E+02 -0.14570148301E+03 -0.60029350463E+03  0.90707652965E+03  0.65864270000E+03 0. -1.
    8880022    1    1    2    0    0 -0.86002386727E+02  0.14570148301E+03  0.88639271438E+03  0.91526445893E+03  0.15294330000E+03 0.  0.
<mgrwt>
<rscale>  0 0.51750238E+03</rscale>
<asrwt>0</asrwt>
<pdfrwt beam="1">  1        1 0.11817244E+00 0.68002613E+03</pdfrwt>
<pdfrwt beam="2">  1       -1 0.16218771E+00 0.68002613E+03</pdfrwt>
<totfact> 0.69304498E+00</totfact>
</mgrwt>
</event>
<event>
 4    5  0.1074803E-007  0.9595106E+03  0.7818608E-02  0.9436560E-01
          1   -1    0    0  501    0  0.00000000000E+00  0.00000000000E+00  0.19799874539E+04  0.19799874539E+04  0.50400000000E-02 0. -1.
         -1   -1    0    0    0  501 -0.00000000000E+00 -0.00000000000E+00 -0.18389170083E+04  0.18389170083E+04  0.50400000000E-02 0.  1.
    8880023    1    1    2    0    0 -0.22241261025E+03 -0.66134944039E+03 -0.16399239300E+04  0.19000029352E+04  0.65864270000E+03 0.  1.
    8880022    1    1    2    0    0  0.22241261025E+03  0.66134944039E+03  0.17809943756E+04  0.19189015270E+04  0.15294330000E+03 0.  0.
<mgrwt>
<rscale>  0 0.89127019E+03</rscale>
<asrwt>0</asrwt>
<pdfrwt beam="1">  1        1 0.30461346E+00 0.95951063E+03</pdfrwt>
<pdfrwt beam="2">  1       -1 0.28291031E+00 0.95951063E+03</pdfrwt>
<totfact> 0.13478284E-01</totfact>
</mgrwt>
</event>
<event>
 4    5  0.1074803E-007  0.8578047E+03  0.7818608E-02  0.9597481E-01
          1   -1    0    0  501    0  0.00000000000E+00  0.00000000000E+00  0.13568442543E+04  0.13568442543E+04  0.50400000000E-02 0. -1.
         -1   -1    0    0    0  501 -0.00000000000E+00 -0.00000000000E+00 -0.19642380253E+04  0.19642380253E+04  0.50400000000E-02 0.  1.
    8880023    1    1    2    0    0 -0.49571892315E+03  0.23723693196E+03  0.11720591842E+04  0.14524295336E+04  0.65864270000E+03 0. -1.
    8880022    1    1    2    0    0  0.49571892315E+03 -0.23723693196E+03 -0.17794529552E+04  0.18686527460E+04  0.15294330000E+03 0.  0.
<mgrwt>
<rscale>  0 0.77463159E+03</rscale>
<asrwt>0</asrwt>
<pdfrwt beam="1">  1        1 0.20874527E+00 0.85780465E+03</pdfrwt>
<pdfrwt beam="2">  1       -1 0.30219046E+00 0.85780465E+03</pdfrwt>
<totfact> 0.27504192E-01</totfact>
</mgrwt>
</event>
<event>
 4    5  0.1074803E-007  0.1461191E+04  0.7818608E-02  0.8937538E-01
          1   -1    0    0  501    0  0.00000000000E+00  0.00000000000E+00  0.25893825177E+04  0.25893825177E+04  0.50400000000E-02 0. -1.
         -1   -1    0    0    0  501 -0.00000000000E+00 -0.00000000000E+00 -0.12531722317E+04  0.12531722317E+04  0.50400000000E-02 0.  1.
    8880023    1    1    2    0    0  0.10840309742E+04 -0.72535868997E+03  0.19138370288E+04  0.24078726630E+04  0.65864270000E+03 0.  0.
    8880022    1    1    2    0    0 -0.10840309742E+04  0.72535868997E+03 -0.57762674271E+03  0.14346820864E+04  0.15294330000E+03 0.  0.
<mgrwt>
<rscale>  0 0.14227157E+04</rscale>
<asrwt>0</asrwt>
<pdfrwt beam="1">  1        1 0.39836654E+00 0.14611908E+04</pdfrwt>
<pdfrwt beam="2">  1       -1 0.19279573E+00 0.14611908E+04</pdfrwt>
<totfact> 0.18851426E-01</totfact>
</mgrwt>
</event>
<event>
 4    5  0.1074803E-007  0.7306091E+03  0.7818608E-02  0.9888198E-01
          1   -1    0    0  501    0  0.00000000000E+00  0.00000000000E+00  0.12260607873E+04  0.12260607873E+04  0.50400000000E-02 0. -1.
         -1   -1    0    0    0  501 -0.00000000000E+00 -0.00000000000E+00 -0.10639428303E+04  0.10639428303E+04  0.50400000000E-02 0.  1.
    8880023    1    1    2    0    0 -0.28963950745E+03 -0.12683988118E+03  0.10818718339E+04  0.13054640060E+04  0.65864270000E+03 0. -1.
    8880022    1    1    2    0    0  0.28963950745E+03  0.12683988118E+03 -0.91975387693E+03  0.98453961163E+03  0.15294330000E+03 0.  0.
<mgrwt>
<rscale>  0 0.60836672E+03</rscale>
<asrwt>0</asrwt>
<pdfrwt beam="1">  1        1 0.18862474E+00 0.73060907E+03</pdfrwt>
<pdfrwt beam="2">  1       -1 0.16368351E+00 0.73060907E+03</pdfrwt>
<totfact> 0.29313657E+00</totfact>
</mgrwt>
</event>
<event>
 4    5  0.1074803E-007  0.9816821E+03  0.7818608E-02  0.9405925E-01
          1   -1    0    0  501    0  0.00000000000E+00  0.00000000000E+00  0.22735770832E+04  0.22735770832E+04  0.50400000000E-02 0. -1.
         -1   -1    0    0    0  501 -0.00000000000E+00 -0.00000000000E+00 -0.46971116077E+03  0.46971116080E+03  0.50400000000E-02 0.  1.
    8880023    1    1    2    0    0 -0.72754131102E+03 -0.23940471242E+02  0.17385963768E+04  0.19966013806E+04  0.65864270000E+03 0.  0.
    8880022    1    1    2    0    0  0.72754131102E+03  0.23940471242E+02  0.65269545674E+02  0.74668686343E+03  0.15294330000E+03 0.  0.
<mgrwt>
<rscale>  0 0.91589647E+03</rscale>
<asrwt>0</asrwt>
<pdfrwt beam="1">  1        1 0.34978109E+00 0.98168208E+03</pdfrwt>
<pdfrwt beam="2">  1       -1 0.72263256E-01 0.98168208E+03</pdfrwt>
<totfact> 0.38155603E+00</totfact>
</mgrwt>
</event>
<event>
 4    5  0.1074803E-007  0.1026415E+04  0.7818608E-02  0.9347787E-01
         -1   -1    0    0    0  501 -0.00000000000E+00  0.00000000000E+00  0.10944190206E+04  0.10944190207E+04  0.50400000000E-02 0.  1.
          1   -1    0    0  501    0  0.00000000000E+00 -0.00000000000E+00 -0.80891152257E+03  0.80891152258E+03  0.50400000000E-02 0. -1.
    8880023    1    1    2    0    0  0.30011501736E+03  0.72776892561E+03 -0.64279343874E+02  0.10284253366E+04  0.65864270000E+03 0.  0.
    8880022    1    1    2    0    0 -0.30011501736E+03 -0.72776892561E+03  0.34978684195E+03  0.87490520661E+03  0.15294330000E+03 0.  0.
<mgrwt>
<rscale>  0 0.96500067E+03</rscale>
<asrwt>0</asrwt>
<pdfrwt beam="1">  1        1 0.12444793E+00 0.10264146E+04</pdfrwt>
<pdfrwt beam="2">  1       -1 0.16837216E+00 0.10264146E+04</pdfrwt>
<totfact> 0.54930444E+00</totfact>
</mgrwt>
</event>
<event>
 4    5  0.1074803E-007  0.7116353E+03  0.7818608E-02  0.9951978E-01
          1   -1    0    0  501    0  0.00000000000E+00  0.00000000000E+00  0.11138724290E+04  0.11138724290E+04  0.50400000000E-02 0. -1.
         -1   -1    0    0    0  501 -0.00000000000E+00 -0.00000000000E+00 -0.25130202486E+03  0.25130202491E+03  0.50400000000E-02 0.  1.
    8880023    1    1    2    0    0  0.10363856605E+03 -0.24874411164E+03  0.75415454079E+03  0.10369059085E+04  0.65864270000E+03 0. -1.
    8880022    1    1    2    0    0 -0.10363856605E+03  0.24874411164E+03  0.10841586330E+03  0.32826854537E+03  0.15294330000E+03 0.  0.
<mgrwt>
<rscale>  0 0.57807015E+03</rscale>
<asrwt>0</asrwt>
<pdfrwt beam="1">  1        1 0.17136499E+00 0.71163529E+03</pdfrwt>
<pdfrwt beam="2">  1       -1 0.38661850E-01 0.71163529E+03</pdfrwt>
<totfact> 0.82217366E+01</totfact>
</mgrwt>
</event>
<event>
 4    5  0.1074803E-007  0.8330854E+03  0.7818608E-02  0.9643359E-01
          1   -1    0    0  501    0  0.00000000000E+00  0.00000000000E+00  0.56710904670E+03  0.56710904672E+03  0.50400000000E-02 0. -1.
         -1   -1    0    0    0  501 -0.00000000000E+00 -0.00000000000E+00 -0.12400416702E+04  0.12400416702E+04  0.50400000000E-02 0.  1.
    8880023    1    1    2    0    0  0.32141312200E+03  0.39612453853E+03  0.13049909265E+03  0.84324448677E+03  0.65864270000E+03 0.  0.
    8880022    1    1    2    0    0 -0.32141312200E+03 -0.39612453853E+03 -0.80343171615E+03  0.96390623016E+03  0.15294330000E+03 0.  0.
<mgrwt>
<rscale>  0 0.74491693E+03</rscale>
<asrwt>0</asrwt>
<pdfrwt beam="1">  1        1 0.87247546E-01 0.83308538E+03</pdfrwt>
<pdfrwt beam="2">  1       -1 0.19077564E+00 0.83308538E+03</pdfrwt>
<totfact> 0.66279048E+00</totfact>
</mgrwt>
</event>
<event>
 4    5  0.1074803E-007  0.8738740E+03  0.7818608E-02  0.9569345E-01
          1   -1    0    0  501    0  0.00000000000E+00  0.00000000000E+00  0.13949878057E+04  0.13949878057E+04  0.50400000000E-02 0. -1.
         -1   -1    0    0    0  501 -0.00000000000E+00 -0.00000000000E+00 -0.55987366130E+03  0.55987366132E+03  0.50400000000E-02 0.  1.
    8880023    1    1    2    0    0  0.25083469196E+03  0.51665025330E+03  0.10097634509E+04  0.13353943088E+04  0.65864270000E+03 0. -1.
    8880022    1    1    2    0    0 -0.25083469196E+03 -0.51665025330E+03 -0.17464930645E+03  0.61946715828E+03  0.15294330000E+03 0.  0.
<mgrwt>
<rscale>  0 0.79358766E+03</rscale>
<asrwt>0</asrwt>
<pdfrwt beam="1">  1        1 0.21461351E+00 0.87387398E+03</pdfrwt>
<pdfrwt beam="2">  1       -1 0.86134409E-01 0.87387398E+03</pdfrwt>
<totfact> 0.10504612E+01</totfact>
</mgrwt>
</event>
<event>
 4    5  0.1074803E-007  0.8149307E+03  0.7818608E-02  0.9679396E-01
         -1   -1    0    0    0  501 -0.00000000000E+00  0.00000000000E+00  0.64872522420E+03  0.64872522422E+03  0.50400000000E-02 0.  1.
          1   -1    0    0  501    0  0.00000000000E+00 -0.00000000000E+00 -0.10911959914E+04  0.10911959914E+04  0.50400000000E-02 0. -1.
    8880023    1    1    2    0    0  0.38634181576E+03 -0.28467847727E+03 -0.78443257018E+03  0.11311262076E+04  0.65864270000E+03 0. -1.
    8880022    1    1    2    0    0 -0.38634181576E+03  0.28467847727E+03  0.34196180303E+03  0.60879500801E+03  0.15294330000E+03 0.  0.
<mgrwt>
<rscale>  0 0.72256875E+03</rscale>
<asrwt>0</asrwt>
<pdfrwt beam="1">  1        1 0.16787631E+00 0.81493070E+03</pdfrwt>
<pdfrwt beam="2">  1       -1 0.99803881E-01 0.81493070E+03</pdfrwt>
<totfact> 0.12618213E+01</totfact>
</mgrwt>
</event>
<event>
 4    5  0.1074803E-007  0.8223429E+03  0.7818608E-02  0.9664419E-01
          1   -1    0    0  501    0  0.00000000000E+00  0.00000000000E+00  0.20945460072E+04  0.20945460072E+04  0.50400000000E-02 0. -1.
         -1   -1    0    0    0  501 -0.00000000000E+00 -0.00000000000E+00 -0.15769209149E+04  0.15769209149E+04  0.50400000000E-02 0.  1.
    8880023    1    1    2    0    0  0.43308546936E+03  0.23425329449E+03  0.19676105697E+04  0.21325428929E+04  0.65864270000E+03 0.  0.
    8880022    1    1    2    0    0 -0.43308546936E+03 -0.23425329449E+03 -0.14499854774E+04  0.15389240292E+04  0.15294330000E+03 0.  0.
<mgrwt>
<rscale>  0 0.73175392E+03</rscale>
<asrwt>0</asrwt>
<pdfrwt beam="1">  1        1 0.32223785E+00 0.82234289E+03</pdfrwt>
<pdfrwt beam="2">  1       -1 0.24260322E+00 0.82234289E+03</pdfrwt>
<totfact> 0.21153450E-01</totfact>
</mgrwt>
</event>
<event>
 4    5  0.1074803E-007  0.1382244E+04  0.7818608E-02  0.8997604E-01
          1   -1    0    0  501    0  0.00000000000E+00  0.00000000000E+00  0.13191545742E+04  0.13191545742E+04  0.50400000000E-02 0. -1.
         -1   -1    0    0    0  501 -0.00000000000E+00 -0.00000000000E+00 -0.19775004397E+04  0.19775004397E+04  0.50400000000E-02 0.  1.
    8880023    1    1    2    0    0 -0.11269551643E+04 -0.45470805571E+03  0.62997123104E+03  0.15190330202E+04  0.65864270000E+03 0.  0.
    8880022    1    1    2    0    0  0.11269551643E+04  0.45470805571E+03 -0.12883170965E+04  0.17776219937E+04  0.15294330000E+03 0.  0.
<mgrwt>
<rscale>  0 0.13410851E+04</rscale>
<asrwt>0</asrwt>
<pdfrwt beam="1">  1        1 0.20294686E+00 0.13822437E+04</pdfrwt>
<pdfrwt beam="2">  1       -1 0.30423084E+00 0.13822437E+04</pdfrwt>
<totfact> 0.26106988E-01</totfact>
</mgrwt>
</event>
<event>
 4    5  0.1074803E-007  0.8552382E+03  0.7818608E-02  0.9602090E-01
          1   -1    0    0  501    0  0.00000000000E+00  0.00000000000E+00  0.19776678994E+04  0.19776678994E+04  0.50400000000E-02 0. -1.
         -1   -1    0    0    0  501 -0.00000000000E+00 -0.00000000000E+00 -0.60990609039E+03  0.60990609041E+03  0.50400000000E-02 0.  1.
    8880023    1    1    2    0    0  0.39903514984E+03  0.37201235837E+03  0.17196718229E+04  0.19205998101E+04  0.65864270000E+03 0. -1.
    8880022    1    1    2    0    0 -0.39903514984E+03 -0.37201235837E+03 -0.35191001389E+03  0.66697417977E+03  0.15294330000E+03 0.  0.
<mgrwt>
<rscale>  0 0.77157974E+03</rscale>
<asrwt>0</asrwt>
<pdfrwt beam="1">  1        1 0.30425659E+00 0.85523824E+03</pdfrwt>
<pdfrwt beam="2">  1       -1 0.93831709E-01 0.85523824E+03</pdfrwt>
<totfact> 0.35076590E+00</totfact>
</mgrwt>
</event>
<event>
 4    5  0.1074803E-007  0.7496750E+03  0.7818608E-02  0.9832611E-01
         -1   -1    0    0    0  501 -0.00000000000E+00  0.00000000000E+00  0.11382726276E+04  0.11382726276E+04  0.50400000000E-02 0.  1.
          1   -1    0    0  501    0  0.00000000000E+00 -0.00000000000E+00 -0.44957751338E+03  0.44957751340E+03  0.50400000000E-02 0. -1.
    8880023    1    1    2    0    0  0.23471218642E+03 -0.27039340023E+03 -0.51560159176E+02  0.75144597785E+03  0.65864270000E+03 0. -1.
    8880022    1    1    2    0    0 -0.23471218642E+03  0.27039340023E+03  0.74025527336E+03  0.83640416313E+03  0.15294330000E+03 0.  0.
<mgrwt>
<rscale>  0 0.63641447E+03</rscale>
<asrwt>0</asrwt>
<pdfrwt beam="1">  1        1 0.69165771E-01 0.74967500E+03</pdfrwt>
<pdfrwt beam="2">  1       -1 0.17511887E+00 0.74967500E+03</pdfrwt>
<totfact> 0.11915137E+01</totfact>
</mgrwt>
</event>
<event>
 4    5  0.1074803E-007  0.1294523E+04  0.7818608E-02  0.9070304E-01
          1   -1    0    0  501    0  0.00000000000E+00  0.00000000000E+00  0.13873169361E+04  0.13873169361E+04  0.50400000000E-02 0. -1.
         -1   -1    0    0    0  501 -0.00000000000E+00 -0.00000000000E+00 -0.15421549420E+04  0.15421549421E+04  0.50400000000E-02 0.  1.
    8880023    1    1    2    0    0 -0.84074863966E+03 -0.73152066965E+03  0.74086833515E+03  0.14915350688E+04  0.65864270000E+03 0.  0.
    8880022    1    1    2    0    0  0.84074863966E+03  0.73152066965E+03 -0.89570634109E+03  0.14379368094E+04  0.15294330000E+03 0.  0.
<mgrwt>
<rscale>  0 0.12498553E+04</rscale>
<asrwt>0</asrwt>
<pdfrwt beam="1">  1        1 0.21343338E+00 0.12945235E+04</pdfrwt>
<pdfrwt beam="2">  1       -1 0.23725461E+00 0.12945235E+04</pdfrwt>
<totfact> 0.64223538E-01</totfact>
</mgrwt>
</event>
<event>
 4    5  0.1074803E-007  0.9430047E+03  0.7818608E-02  0.9460251E-01
          1   -1    0    0  501    0  0.00000000000E+00  0.00000000000E+00  0.10153770628E+04  0.10153770629E+04  0.50400000000E-02 0. -1.
         -1   -1    0    0    0  501 -0.00000000000E+00 -0.00000000000E+00 -0.14977819062E+04  0.14977819062E+04  0.50400000000E-02 0.  1.
    8880023    1    1    2    0    0  0.37622062026E+03  0.56027293206E+03  0.67845299765E+03  0.11617040887E+04  0.65864270000E+03 0. -1.
    8880022    1    1    2    0    0 -0.37622062026E+03 -0.56027293206E+03 -0.11608578410E+04  0.13514548803E+04  0.15294330000E+03 0.  0.
<mgrwt>
<rscale>  0 0.87278874E+03</rscale>
<asrwt>0</asrwt>
<pdfrwt beam="1">  1        1 0.15621186E+00 0.94300473E+03</pdfrwt>
<pdfrwt beam="2">  1       -1 0.23042799E+00 0.94300473E+03</pdfrwt>
<totfact> 0.14006428E+00</totfact>
</mgrwt>
</event>
<event>
 4    5  0.1074803E-007  0.7665823E+03  0.7818608E-02  0.9788355E-01
          1   -1    0    0  501    0  0.00000000000E+00  0.00000000000E+00  0.11030755285E+04  0.11030755285E+04  0.50400000000E-02 0. -1.
         -1   -1    0    0    0  501 -0.00000000000E+00 -0.00000000000E+00 -0.42992539776E+03  0.42992539779E+03  0.50400000000E-02 0.  1.
    8880023    1    1    2    0    0  0.39073056560E+03 -0.34174627327E+02  0.78520289464E+03  0.10973568572E+04  0.65864270000E+03 0.  0.
    8880022    1    1    2    0    0 -0.39073056560E+03  0.34174627327E+02 -0.11205276388E+03  0.43564406911E+03  0.15294330000E+03 0.  0.
<mgrwt>
<rscale>  0 0.65991233E+03</rscale>
<asrwt>0</asrwt>
<pdfrwt beam="1">  1        1 0.16970392E+00 0.76658234E+03</pdfrwt>
<pdfrwt beam="2">  1       -1 0.66142370E-01 0.76658234E+03</pdfrwt>
<totfact> 0.29975230E+01</totfact>
</mgrwt>
</event>
<event>
 4    5  0.1074803E-007  0.7172643E+03  0.7818608E-02  0.9931954E-01
          1   -1    0    0  501    0  0.00000000000E+00  0.00000000000E+00  0.44601692721E+04  0.44601692721E+04  0.50400000000E-02 0. -1.
         -1   -1    0    0    0  501 -0.00000000000E+00 -0.00000000000E+00 -0.30450169661E+03  0.30450169665E+03  0.50400000000E-02 0.  1.
    8880023    1    1    2    0    0 -0.18876909289E+03 -0.21218887968E+03  0.43361310653E+04  0.43950541194E+04  0.65864270000E+03 0. -1.
    8880022    1    1    2    0    0  0.18876909289E+03  0.21218887968E+03 -0.18046348984E+03  0.36961684928E+03  0.15294330000E+03 0.  0.
<mgrwt>
<rscale>  0 0.58737362E+03</rscale>
<asrwt>0</asrwt>
<pdfrwt beam="1">  1        1 0.68617985E+00 0.71726431E+03</pdfrwt>
<pdfrwt beam="2">  1       -1 0.46846418E-01 0.71726431E+03</pdfrwt>
<totfact> 0.18415899E-01</totfact>
</mgrwt>
</event>
<event>
 4    5  0.1074803E-007  0.8877781E+03  0.7818608E-02  0.9545943E-01
         -1   -1    0    0    0  501 -0.00000000000E+00  0.00000000000E+00  0.40263880418E+03  0.40263880421E+03  0.50400000000E-02 0.  1.
          1   -1    0    0  501    0  0.00000000000E+00 -0.00000000000E+00 -0.33008482111E+04  0.33008482112E+04  0.50400000000E-02 0. -1.
    8880023    1    1    2    0    0 -0.29105479368E+03 -0.51925608986E+03 -0.29557541506E+04  0.30862003475E+04  0.65864270000E+03 0. -1.
    8880022    1    1    2    0    0  0.29105479368E+03  0.51925608986E+03  0.57544743648E+02  0.61728666786E+03  0.15294330000E+03 0.  0.
<mgrwt>
<rscale>  0 0.80979710E+03</rscale>
<asrwt>0</asrwt>
<pdfrwt beam="1">  1        1 0.50782278E+00 0.88777812E+03</pdfrwt>
<pdfrwt beam="2">  1       -1 0.61944434E-01 0.88777812E+03</pdfrwt>
<totfact> 0.99500070E-01</totfact>
</mgrwt>
</event>
<event>
 4    5  0.1074803E-007  0.1331750E+04  0.7818608E-02  0.9038615E-01
         -1   -1    0    0    0  501 -0.00000000000E+00  0.00000000000E+00  0.10670825008E+04  0.10670825009E+04  0.50400000000E-02 0.  1.
          1   -1    0    0  501    0  0.00000000000E+00 -0.00000000000E+00 -0.30923989688E+04  0.30923989688E+04  0.50400000000E-02 0. -1.
    8880023    1    1    2    0    0 -0.11461721598E+04  0.16136180905E+03 -0.25520467692E+04  0.28786283490E+04  0.65864270000E+03 0. -1.
    8880022    1    1    2    0    0  0.11461721598E+04 -0.16136180905E+03  0.52673030125E+03  0.12808531206E+04  0.15294330000E+03 0.  0.
<mgrwt>
<rscale>  0 0.12886489E+04</rscale>
<asrwt>0</asrwt>
<pdfrwt beam="1">  1        1 0.47575368E+00 0.13317501E+04</pdfrwt>
<pdfrwt beam="2">  1       -1 0.16416654E+00 0.13317501E+04</pdfrwt>
<totfact> 0.13529253E-01</totfact>
</mgrwt>
</event>
<event>
 4    5  0.1074803E-007  0.1770726E+04  0.7818608E-02  0.8738905E-01
          1   -1    0    0  501    0  0.00000000000E+00  0.00000000000E+00  0.96073055077E+03  0.96073055078E+03  0.50400000000E-02 0. -1.
         -1   -1    0    0    0  501 -0.00000000000E+00 -0.00000000000E+00 -0.39278679561E+04  0.39278679561E+04  0.50400000000E-02 0.  1.
    8880023    1    1    2    0    0  0.14506489951E+04  0.77283716263E+03 -0.36646473847E+03  0.18082495396E+04  0.65864270000E+03 0. -1.
    8880022    1    1    2    0    0 -0.14506489951E+04 -0.77283716263E+03 -0.26006726669E+04  0.30803489672E+04  0.15294330000E+03 0.  0.
<mgrwt>
<rscale>  0 0.17399442E+04</rscale>
<asrwt>0</asrwt>
<pdfrwt beam="1">  1        1 0.14780470E+00 0.17707258E+04</pdfrwt>
<pdfrwt beam="2">  1       -1 0.60428737E+00 0.17707258E+04</pdfrwt>
<totfact> 0.61701405E-03</totfact>
</mgrwt>
</event>
<event>
 4    5  0.1074803E-007  0.1450063E+04  0.7818608E-02  0.8945728E-01
         -1   -1    0    0    0  501 -0.00000000000E+00  0.00000000000E+00  0.12926316392E+04  0.12926316392E+04  0.50400000000E-02 0.  1.
          1   -1    0    0  501    0  0.00000000000E+00 -0.00000000000E+00 -0.29317619635E+04  0.29317619635E+04  0.50400000000E-02 0. -1.
    8880023    1    1    2    0    0  0.25532434916E+03 -0.12663655558E+04 -0.23353620188E+04  0.27489267377E+04  0.65864270000E+03 0. -1.
    8880022    1    1    2    0    0 -0.25532434916E+03  0.12663655558E+04  0.69623169452E+03  0.14754668650E+04  0.15294330000E+03 0.  0.
<mgrwt>
<rscale>  0 0.14112327E+04</rscale>
<asrwt>0</asrwt>
<pdfrwt beam="1">  1        1 0.45104030E+00 0.14500629E+04</pdfrwt>
<pdfrwt beam="2">  1       -1 0.19886641E+00 0.14500629E+04</pdfrwt>
<totfact> 0.97939749E-02</totfact>
</mgrwt>
</event>
<event>
 4    5  0.1074803E-007  0.6725246E+03  0.7818608E-02  0.1013914E+00
          1   -1    0    0  501    0  0.00000000000E+00  0.00000000000E+00  0.23666393784E+04  0.23666393784E+04  0.50400000000E-02 0. -1.
         -1   -1    0    0    0  501 -0.00000000000E+00 -0.00000000000E+00 -0.49151017964E+03  0.49151017966E+03  0.50400000000E-02 0.  1.
    8880023    1    1    2    0    0  0.96526628330E+02  0.95717152420E+02  0.22947644756E+04  0.23912827871E+04  0.65864270000E+03 0. -1.
    8880022    1    1    2    0    0 -0.96526628330E+02 -0.95717152420E+02 -0.41963527683E+03  0.46686677095E+03  0.15294330000E+03 0.  0.
<mgrwt>
<rscale>  0 0.49948226E+03</rscale>
<asrwt>0</asrwt>
<pdfrwt beam="1">  1        1 0.36409836E+00 0.67252462E+03</pdfrwt>
<pdfrwt beam="2">  1       -1 0.75616952E-01 0.67252462E+03</pdfrwt>
<totfact> 0.31670165E+00</totfact>
</mgrwt>
</event>
<event>
 4    5  0.1074803E-007  0.7342182E+03  0.7818608E-02  0.9877121E-01
         -1   -1    0    0    0  501 -0.00000000000E+00  0.00000000000E+00  0.52053290791E+03  0.52053290793E+03  0.50400000000E-02 0.  1.
          1   -1    0    0  501    0  0.00000000000E+00 -0.00000000000E+00 -0.13873706146E+04  0.13873706146E+04  0.50400000000E-02 0. -1.
    8880023    1    1    2    0    0 -0.98765680130E+02  0.30904943107E+03 -0.12075153691E+04  0.14132125754E+04  0.65864270000E+03 0.  0.
    8880022    1    1    2    0    0  0.98765680130E+02 -0.30904943107E+03  0.34067766246E+03  0.49469094708E+03  0.15294330000E+03 0.  0.
<mgrwt>
<rscale>  0 0.61383043E+03</rscale>
<asrwt>0</asrwt>
<pdfrwt beam="1">  1        1 0.21344163E+00 0.73421824E+03</pdfrwt>
<pdfrwt beam="2">  1       -1 0.80081986E-01 0.73421824E+03</pdfrwt>
<totfact> 0.12670150E+01</totfact>
</mgrwt>
</event>
<event>
 4    5  0.1074803E-007  0.1212911E+04  0.7818608E-02  0.9144673E-01
         -1   -1    0    0    0  501 -0.00000000000E+00  0.00000000000E+00  0.96406812593E+03  0.96406812595E+03  0.50400000000E-02 0.  1.
          1   -1    0    0  501    0  0.00000000000E+00 -0.00000000000E+00 -0.36793506512E+04  0.36793506512E+04  0.50400000000E-02 0. -1.
    8880023    1    1    2    0    0  0.84321437151E+03 -0.57125480448E+03 -0.32599968062E+04  0.34783231464E+04  0.65864270000E+03 0. -1.
    8880022    1    1    2    0    0 -0.84321437151E+03  0.57125480448E+03  0.54471428093E+03  0.11650956308E+04  0.15294330000E+03 0.  0.
<mgrwt>
<rscale>  0 0.11643203E+04</rscale>
<asrwt>0</asrwt>
<pdfrwt beam="1">  1        1 0.56605394E+00 0.12129109E+04</pdfrwt>
<pdfrwt beam="2">  1       -1 0.14831818E+00 0.12129109E+04</pdfrwt>
<totfact> 0.64655535E-02</totfact>
</mgrwt>
</event>
<event>
 4    5  0.1074803E-007  0.6692987E+03  0.7818608E-02  0.1016171E+00
          1   -1    0    0  501    0  0.00000000000E+00  0.00000000000E+00  0.12979313266E+04  0.12979313266E+04  0.50400000000E-02 0. -1.
         -1   -1    0    0    0  501 -0.00000000000E+00 -0.00000000000E+00 -0.10958553158E+04  0.10958553158E+04  0.50400000000E-02 0.  1.
    8880023    1    1    2    0    0  0.17610605131E+02  0.11764552506E+03  0.12017225344E+04  0.13755354808E+04  0.65864270000E+03 0. -1.
    8880022    1    1    2    0    0 -0.17610605131E+02 -0.11764552506E+03 -0.99964652362E+03  0.10182511616E+04  0.15294330000E+03 0.  0.
<mgrwt>
<rscale>  0 0.49094185E+03</rscale>
<asrwt>0</asrwt>
<pdfrwt beam="1">  1        1 0.19968174E+00 0.66929874E+03</pdfrwt>
<pdfrwt beam="2">  1       -1 0.16859312E+00 0.66929874E+03</pdfrwt>
<totfact> 0.24255131E+00</totfact>
</mgrwt>
</event>
<event>
 4    5  0.1348438E-007  0.6771330E+03  0.7818608E-02  0.1010994E+00
         -1   -1    0    0    0  501 -0.00000000000E+00  0.00000000000E+00  0.13977874430E+04  0.13977874430E+04  0.50400000000E-02 0.  1.
          1   -1    0    0  501    0  0.00000000000E+00 -0.00000000000E+00 -0.39853280647E+04  0.39853280647E+04  0.50400000000E-02 0. -1.
    8880023    1    1    2    0    0  0.11432477697E+03  0.10783636812E+03 -0.39477199341E+04  0.40053716084E+04  0.65864270000E+03 0. -1.
    8880022    1    1    2    0    0 -0.11432477697E+03 -0.10783636812E+03  0.13601793125E+04  0.13777438993E+04  0.15294330000E+03 0.  0.
<mgrwt>
<rscale>  0 0.51081409E+03</rscale>
<asrwt>0</asrwt>
<pdfrwt beam="1">  1        1 0.61312739E+00 0.67713296E+03</pdfrwt>
<pdfrwt beam="2">  1       -1 0.21504422E+00 0.67713296E+03</pdfrwt>
<totfact> 0.13696547E-02</totfact>
</mgrwt>
</event>
<event>
 4    5  0.1074803E-007  0.7460526E+03  0.7818608E-02  0.9842655E-01
          1   -1    0    0  501    0  0.00000000000E+00  0.00000000000E+00  0.59095574187E+03  0.59095574190E+03  0.50400000000E-02 0. -1.
         -1   -1    0    0    0  501 -0.00000000000E+00 -0.00000000000E+00 -0.69948543853E+03  0.69948543855E+03  0.50400000000E-02 0.  1.
    8880023    1    1    2    0    0 -0.15759628862E+03 -0.31296593565E+03  0.22903324558E+03  0.78041700450E+03  0.65864270000E+03 0.  1.
    8880022    1    1    2    0    0  0.15759628862E+03  0.31296593565E+03 -0.33756294224E+03  0.51002417595E+03  0.15294330000E+03 0.  0.
<mgrwt>
<rscale>  0 0.63122845E+03</rscale>
<asrwt>0</asrwt>
<pdfrwt beam="1">  1        1 0.90916268E-01 0.74605259E+03</pdfrwt>
<pdfrwt beam="2">  1       -1 0.10761314E+00 0.74605259E+03</pdfrwt>
<totfact> 0.28838638E+01</totfact>
</mgrwt>
</event>
<event>
 4    5  0.1074803E-007  0.1233465E+04  0.7818608E-02  0.9125259E-01
         -1   -1    0    0    0  501 -0.00000000000E+00  0.00000000000E+00  0.17334954248E+04  0.17334954248E+04  0.50400000000E-02 0.  1.
          1   -1    0    0  501    0  0.00000000000E+00 -0.00000000000E+00 -0.16675171369E+04  0.16675171369E+04  0.50400000000E-02 0. -1.
    8880023    1    1    2    0    0  0.62750528202E+03 -0.83298450099E+03 -0.12222802815E+04  0.17364922547E+04  0.65864270000E+03 0.  0.
    8880022    1    1    2    0    0 -0.62750528202E+03  0.83298450099E+03  0.12882585694E+04  0.16645203070E+04  0.15294330000E+03 0.  0.
<mgrwt>
<rscale>  0 0.11859334E+04</rscale>
<asrwt>0</asrwt>
<pdfrwt beam="1">  1        1 0.25654110E+00 0.12334651E+04</pdfrwt>
<pdfrwt beam="2">  1       -1 0.26669160E+00 0.12334651E+04</pdfrwt>
<totfact> 0.26615107E-01</totfact>
</mgrwt>
</event>
<event>
 4    5  0.1074803E-007  0.8929032E+03  0.7818608E-02  0.9537522E-01
         -1   -1    0    0    0  501 -0.00000000000E+00  0.00000000000E+00  0.36689091991E+03  0.36689091994E+03  0.50400000000E-02 0.  1.
          1   -1    0    0  501    0  0.00000000000E+00 -0.00000000000E+00 -0.27558181525E+04  0.27558181525E+04  0.50400000000E-02 0. -1.
    8880023    1    1    2    0    0  0.33890957502E+03 -0.49860428991E+03 -0.23332233947E+04  0.24982408919E+04  0.65864270000E+03 0.  0.
    8880022    1    1    2    0    0 -0.33890957502E+03  0.49860428991E+03 -0.55703837854E+02  0.62446818055E+03  0.15294330000E+03 0.  0.
<mgrwt>
<rscale>  0 0.81573140E+03</rscale>
<asrwt>0</asrwt>
<pdfrwt beam="1">  1        1 0.42397201E+00 0.89290321E+03</pdfrwt>
<pdfrwt beam="2">  1       -1 0.56444759E-01 0.89290321E+03</pdfrwt>
<totfact> 0.29600736E+00</totfact>
</mgrwt>
</event>
<event>
 4    5  0.1074803E-007  0.1006499E+04  0.7818608E-02  0.9373105E-01
         -1   -1    0    0    0  501 -0.00000000000E+00  0.00000000000E+00  0.40581126053E+03  0.40581126056E+03  0.50400000000E-02 0.  1.
          1   -1    0    0  501    0  0.00000000000E+00 -0.00000000000E+00 -0.26449971386E+04  0.26449971386E+04  0.50400000000E-02 0. -1.
    8880023    1    1    2    0    0 -0.14431609359E+03 -0.74726293584E+03 -0.19992096359E+04  0.22382757660E+04  0.65864270000E+03 0.  0.
    8880022    1    1    2    0    0  0.14431609359E+03  0.74726293584E+03 -0.23997624220E+03  0.81253263318E+03  0.15294330000E+03 0.  0.
<mgrwt>
<rscale>  0 0.94322511E+03</rscale>
<asrwt>0</asrwt>
<pdfrwt beam="1">  1        1 0.40692263E+00 0.10064985E+04</pdfrwt>
<pdfrwt beam="2">  1       -1 0.62432503E-01 0.10064985E+04</pdfrwt>
<totfact> 0.28489870E+00</totfact>
</mgrwt>
</event>
<event>
 4    5  0.1074803E-007  0.6624731E+03  0.7818608E-02  0.1021754E+00
         -1   -1    0    0    0  501 -0.00000000000E+00  0.00000000000E+00  0.15770066269E+04  0.15770066269E+04  0.50400000000E-02 0.  1.
          1   -1    0    0  501    0  0.00000000000E+00 -0.00000000000E+00 -0.36202729940E+03  0.36202729943E+03  0.50400000000E-02 0. -1.
    8880023    1    1    2    0    0 -0.10952681785E+02 -0.70288639787E+02 -0.48592809638E+02  0.66425290480E+03  0.65864270000E+03 0. -1.
    8880022    1    1    2    0    0  0.10952681785E+02  0.70288639787E+02  0.12635721371E+04  0.12747810215E+04  0.15294330000E+03 0.  0.
<mgrwt>
<rscale>  0 0.47058763E+03</rscale>
<asrwt>0</asrwt>
<pdfrwt beam="1">  1        1 0.55696507E-01 0.66247314E+03</pdfrwt>
<pdfrwt beam="2">  1       -1 0.24261641E+00 0.66247314E+03</pdfrwt>
<totfact> 0.56135250E+00</totfact>
</mgrwt>
</event>
<event>
 4    5  0.1074803E-007  0.9047509E+03  0.7818608E-02  0.9518448E-01
          1   -1    0    0  501    0  0.00000000000E+00  0.00000000000E+00  0.10259082535E+04  0.10259082535E+04  0.50400000000E-02 0. -1.
         -1   -1    0    0    0  501 -0.00000000000E+00 -0.00000000000E+00 -0.83840078260E+03  0.83840078262E+03  0.50400000000E-02 0.  1.
    8880023    1    1    2    0    0  0.60520857743E+03  0.13596531103E+03  0.61644907162E+03  0.10947984528E+04  0.65864270000E+03 0.  0.
    8880022    1    1    2    0    0 -0.60520857743E+03 -0.13596531103E+03 -0.42894160076E+03  0.76951058334E+03  0.15294330000E+03 0.  0.
<mgrwt>
<rscale>  0 0.82937319E+03</rscale>
<asrwt>0</asrwt>
<pdfrwt beam="1">  1        1 0.15783204E+00 0.90475090E+03</pdfrwt>
<pdfrwt beam="2">  1       -1 0.12898474E+00 0.90475090E+03</pdfrwt>
<totfact> 0.75718676E+00</totfact>
</mgrwt>
</event>
<event>
 4    5  0.1074803E-007  0.1171460E+04  0.7818608E-02  0.9185377E-01
          1   -1    0    0  501    0  0.00000000000E+00  0.00000000000E+00  0.20527054045E+04  0.20527054045E+04  0.50400000000E-02 0. -1.
         -1   -1    0    0    0  501 -0.00000000000E+00 -0.00000000000E+00 -0.75250352959E+03  0.75250352961E+03  0.50400000000E-02 0.  1.
    8880023    1    1    2    0    0  0.21169307031E+03  0.94535382586E+03  0.13929569087E+04  0.18200678470E+04  0.65864270000E+03 0. -1.
    8880022    1    1    2    0    0 -0.21169307031E+03 -0.94535382586E+03 -0.92755033806E+02  0.98514108705E+03  0.15294330000E+03 0.  0.
<mgrwt>
<rscale>  0 0.11205642E+04</rscale>
<asrwt>0</asrwt>
<pdfrwt beam="1">  1        1 0.31580082E+00 0.11714598E+04</pdfrwt>
<pdfrwt beam="2">  1       -1 0.11576978E+00 0.11714598E+04</pdfrwt>
<totfact> 0.18327597E+00</totfact>
</mgrwt>
</event>
<event>
 4    5  0.1074803E-007  0.9449147E+03  0.7818608E-02  0.9457469E-01
          1   -1    0    0  501    0  0.00000000000E+00  0.00000000000E+00  0.17334738942E+04  0.17334738942E+04  0.50400000000E-02 0. -1.
         -1   -1    0    0    0  501 -0.00000000000E+00 -0.00000000000E+00 -0.10067522206E+04  0.10067522206E+04  0.50400000000E-02 0.  1.
    8880023    1    1    2    0    0 -0.12606958129E+03  0.66570273727E+03  0.14543125358E+04  0.17343266220E+04  0.65864270000E+03 0. -1.
    8880022    1    1    2    0    0  0.12606958129E+03 -0.66570273727E+03 -0.72759086222E+03  0.10058994928E+04  0.15294330000E+03 0.  0.
<mgrwt>
<rscale>  0 0.87493438E+03</rscale>
<asrwt>0</asrwt>
<pdfrwt beam="1">  1        1 0.26668829E+00 0.94491475E+03</pdfrwt>
<pdfrwt beam="2">  1       -1 0.15488496E+00 0.94491475E+03</pdfrwt>
<totfact> 0.14697035E+00</totfact>
</mgrwt>
</event>
<event>
 4    5  0.1074803E-007  0.9285308E+03  0.7818608E-02  0.9481701E-01
         -1   -1    0    0    0  501 -0.00000000000E+00  0.00000000000E+00  0.15963059250E+04  0.15963059250E+04  0.50400000000E-02 0.  1.
          1   -1    0    0  501    0  0.00000000000E+00 -0.00000000000E+00 -0.93920146781E+03  0.93920146783E+03  0.50400000000E-02 0. -1.
    8880023    1    1    2    0    0 -0.17858665924E+03  0.62965551647E+03 -0.60314574442E+03  0.11072281877E+04  0.65864270000E+03 0. -1.
    8880022    1    1    2    0    0  0.17858665924E+03 -0.62965551647E+03  0.12602502016E+04  0.14282792052E+04  0.15294330000E+03 0.  0.
<mgrwt>
<rscale>  0 0.85646500E+03</rscale>
<asrwt>0</asrwt>
<pdfrwt beam="1">  1        1 0.14449253E+00 0.92853081E+03</pdfrwt>
<pdfrwt beam="2">  1       -1 0.24558553E+00 0.92853081E+03</pdfrwt>
<totfact> 0.12829039E+00</totfact>
</mgrwt>
</event>
<event>
 4    5  0.1074803E-007  0.6883533E+03  0.7818608E-02  0.1004945E+00
         -1   -1    0    0    0  501 -0.00000000000E+00  0.00000000000E+00  0.66488081438E+03  0.66488081440E+03  0.50400000000E-02 0.  1.
          1   -1    0    0  501    0  0.00000000000E+00 -0.00000000000E+00 -0.57671354165E+03  0.57671354167E+03  0.50400000000E-02 0. -1.
    8880023    1    1    2    0    0  0.19775539888E+03 -0.30213269431E+02 -0.32227552588E+03  0.76006036621E+03  0.65864270000E+03 0. -1.
    8880022    1    1    2    0    0 -0.19775539888E+03  0.30213269431E+02  0.41044279862E+03  0.48153398986E+03  0.15294330000E+03 0.  0.
<mgrwt>
<rscale>  0 0.53534002E+03</rscale>
<asrwt>0</asrwt>
<pdfrwt beam="1">  1        1 0.88725161E-01 0.68835329E+03</pdfrwt>
<pdfrwt beam="2">  1       -1 0.10228936E+00 0.68835329E+03</pdfrwt>
<totfact> 0.33787396E+01</totfact>
</mgrwt>
</event>
<event>
 4    5  0.1074803E-007  0.8061483E+03  0.7818608E-02  0.9697657E-01
         -1   -1    0    0    0  501 -0.00000000000E+00  0.00000000000E+00  0.30853237553E+03  0.30853237558E+03  0.50400000000E-02 0.  1.
          1   -1    0    0  501    0  0.00000000000E+00 -0.00000000000E+00 -0.18901959266E+04  0.18901959266E+04  0.50400000000E-02 0. -1.
    8880023    1    1    2    0    0 -0.26643642109E+03 -0.38088906371E+03 -0.14996033228E+04  0.17025525476E+04  0.65864270000E+03 0.  0.
    8880022    1    1    2    0    0  0.26643642109E+03  0.38088906371E+03 -0.82060228239E+02  0.49617575456E+03  0.15294330000E+03 0.  0.
<mgrwt>
<rscale>  0 0.71156492E+03</rscale>
<asrwt>0</asrwt>
<pdfrwt beam="1">  1        1 0.29079937E+00 0.80614828E+03</pdfrwt>
<pdfrwt beam="2">  1       -1 0.47466520E-01 0.80614828E+03</pdfrwt>
<totfact> 0.16189519E+01</totfact>
</mgrwt>
</event>
<event>
 4    5  0.1074803E-007  0.1295315E+04  0.7818608E-02  0.9069616E-01
         -1   -1    0    0    0  501 -0.00000000000E+00  0.00000000000E+00  0.20921239631E+04  0.20921239631E+04  0.50400000000E-02 0.  1.
          1   -1    0    0  501    0  0.00000000000E+00 -0.00000000000E+00 -0.12863919995E+04  0.12863919995E+04  0.50400000000E-02 0. -1.
    8880023    1    1    2    0    0 -0.37864152727E+03  0.10491246267E+04 -0.72032606567E+03  0.14821308092E+04  0.65864270000E+03 0.  0.
    8880022    1    1    2    0    0  0.37864152727E+03 -0.10491246267E+04  0.15260580292E+04  0.18963851534E+04  0.15294330000E+03 0.  0.
<mgrwt>
<rscale>  0 0.12506819E+04</rscale>
<asrwt>0</asrwt>
<pdfrwt beam="1">  1        1 0.19790646E+00 0.12953154E+04</pdfrwt>
<pdfrwt beam="2">  1       -1 0.32186522E+00 0.12953154E+04</pdfrwt>
<totfact> 0.21412744E-01</totfact>
</mgrwt>
</event>
<event>
 4    5  0.1074803E-007  0.1204079E+04  0.7818608E-02  0.9153167E-01
          1   -1    0    0  501    0  0.00000000000E+00  0.00000000000E+00  0.15310007871E+04  0.15310007871E+04  0.50400000000E-02 0. -1.
         -1   -1    0    0    0  501 -0.00000000000E+00 -0.00000000000E+00 -0.20785053246E+04  0.20785053246E+04  0.50400000000E-02 0.  1.
    8880023    1    1    2    0    0  0.38557514823E+03  0.93130442621E+03  0.11268935036E+04  0.16491498731E+04  0.65864270000E+03 0. -1.
    8880022    1    1    2    0    0 -0.38557514823E+03 -0.93130442621E+03 -0.16743980411E+04  0.19603562386E+04  0.15294330000E+03 0.  0.
<mgrwt>
<rscale>  0 0.11550172E+04</rscale>
<asrwt>0</asrwt>
<pdfrwt beam="1">  1        1 0.23553858E+00 0.12040790E+04</pdfrwt>
<pdfrwt beam="2">  1       -1 0.31977005E+00 0.12040790E+04</pdfrwt>
<totfact> 0.15061798E-01</totfact>
</mgrwt>
</event>
<event>
 4    5  0.1074803E-007  0.8743843E+03  0.7818608E-02  0.9568472E-01
         -1   -1    0    0    0  501 -0.00000000000E+00  0.00000000000E+00  0.86370637325E+03  0.86370637327E+03  0.50400000000E-02 0.  1.
          1   -1    0    0  501    0  0.00000000000E+00 -0.00000000000E+00 -0.20069214643E+04  0.20069214643E+04  0.50400000000E-02 0. -1.
    8880023    1    1    2    0    0 -0.37673557191E+03  0.43452043287E+03 -0.17897455909E+04  0.19919179663E+04  0.65864270000E+03 0. -1.
    8880022    1    1    2    0    0  0.37673557191E+03 -0.43452043287E+03  0.64653049987E+03  0.87870987134E+03  0.15294330000E+03 0.  0.
<mgrwt>
<rscale>  0 0.79418559E+03</rscale>
<asrwt>0</asrwt>
<pdfrwt beam="1">  1        1 0.30875715E+00 0.87438430E+03</pdfrwt>
<pdfrwt beam="2">  1       -1 0.13287790E+00 0.87438430E+03</pdfrwt>
<totfact> 0.14589856E+00</totfact>
</mgrwt>
</event>
<event>
 4    5  0.1074803E-007  0.7096374E+03  0.7818608E-02  0.9959350E-01
         -1   -1    0    0    0  501 -0.00000000000E+00  0.00000000000E+00  0.13873182293E+04  0.13873182293E+04  0.50400000000E-02 0.  1.
          1   -1    0    0  501    0  0.00000000000E+00 -0.00000000000E+00 -0.22188972434E+03  0.22188972440E+03  0.50400000000E-02 0. -1.
    8880023    1    1    2    0    0 -0.26414913970E+03  0.53968134435E+00  0.47394035824E+03  0.85334912474E+03  0.65864270000E+03 0.  0.
    8880022    1    1    2    0    0  0.26414913970E+03 -0.53968134435E+00  0.69148814674E+03  0.75585882899E+03  0.15294330000E+03 0.  1.
<mgrwt>
<rscale>  0 0.57469177E+03</rscale>
<asrwt>0</asrwt>
<pdfrwt beam="1">  1        1 0.34136880E-01 0.70963742E+03</pdfrwt>
<pdfrwt beam="2">  1       -1 0.21343357E+00 0.70963742E+03</pdfrwt>
<totfact> 0.16352120E+01</totfact>
</mgrwt>
</event>
<event>
 4    5  0.1074803E-007  0.8615549E+03  0.7818608E-02  0.9590804E-01
          1   -1    0    0  501    0  0.00000000000E+00  0.00000000000E+00  0.21724532318E+04  0.21724532319E+04  0.50400000000E-02 0. -1.
         -1   -1    0    0    0  501 -0.00000000000E+00 -0.00000000000E+00 -0.30716223504E+03  0.30716223508E+03  0.50400000000E-02 0.  1.
    8880023    1    1    2    0    0  0.55250192541E+03  0.56641034065E+02  0.16559850441E+04  0.18666984912E+04  0.65864270000E+03 0. -1.
    8880022    1    1    2    0    0 -0.55250192541E+03 -0.56641034065E+02  0.20930595266E+03  0.61291697574E+03  0.15294330000E+03 0.  1.
<mgrwt>
<rscale>  0 0.77907861E+03</rscale>
<asrwt>0</asrwt>
<pdfrwt beam="1">  1        1 0.33422358E+00 0.86155487E+03</pdfrwt>
<pdfrwt beam="2">  1       -1 0.47255728E-01 0.86155487E+03</pdfrwt>
<totfact> 0.10477743E+01</totfact>
</mgrwt>
</event>
<event>
 4    5  0.1074803E-007  0.1034969E+04  0.7818608E-02  0.9337173E-01
          1   -1    0    0  501    0  0.00000000000E+00  0.00000000000E+00  0.24734724691E+04  0.24734724691E+04  0.50400000000E-02 0. -1.
         -1   -1    0    0    0  501 -0.00000000000E+00 -0.00000000000E+00 -0.54360427753E+03  0.54360427756E+03  0.50400000000E-02 0.  1.
    8880023    1    1    2    0    0 -0.34685970732E+03 -0.71905376153E+03  0.19459469892E+04  0.22040575899E+04  0.65864270000E+03 0.  0.
    8880022    1    1    2    0    0  0.34685970732E+03  0.71905376153E+03 -0.16078797624E+02  0.81301915677E+03  0.15294330000E+03 0.  0.
<mgrwt>
<rscale>  0 0.97431495E+03</rscale>
<asrwt>0</asrwt>
<pdfrwt beam="1">  1        1 0.38053422E+00 0.10349687E+04</pdfrwt>
<pdfrwt beam="2">  1       -1 0.83631428E-01 0.10349687E+04</pdfrwt>
<totfact> 0.20306348E+00</totfact>
</mgrwt>
</event>
<event>
 4    5  0.1074803E-007  0.1266448E+04  0.7818608E-02  0.9095089E-01
         -1   -1    0    0    0  501 -0.00000000000E+00  0.00000000000E+00  0.16360267711E+04  0.16360267711E+04  0.50400000000E-02 0.  1.
          1   -1    0    0  501    0  0.00000000000E+00 -0.00000000000E+00 -0.89295653017E+03  0.89295653018E+03  0.50400000000E-02 0. -1.
    8880023    1    1    2    0    0 -0.86184731369E+03 -0.65368227412E+03  0.12197619056E+03  0.12723088088E+04  0.65864270000E+03 0.  0.
    8880022    1    1    2    0    0  0.86184731369E+03  0.65368227412E+03  0.62109405033E+03  0.12566744925E+04  0.15294330000E+03 0.  0.
<mgrwt>
<rscale>  0 0.12205124E+04</rscale>
<asrwt>0</asrwt>
<pdfrwt beam="1">  1        1 0.13737793E+00 0.12664484E+04</pdfrwt>
<pdfrwt beam="2">  1       -1 0.25169642E+00 0.12664484E+04</pdfrwt>
<totfact> 0.12229533E+00</totfact>
</mgrwt>
</event>
<event>
 4    5  0.1074803E-007  0.8155256E+03  0.7818608E-02  0.9678180E-01
         -1   -1    0    0    0  501 -0.00000000000E+00  0.00000000000E+00  0.72727935106E+03  0.72727935108E+03  0.50400000000E-02 0.  1.
          1   -1    0    0  501    0  0.00000000000E+00 -0.00000000000E+00 -0.28238053922E+04  0.28238053922E+04  0.50400000000E-02 0. -1.
    8880023    1    1    2    0    0 -0.23870314058E+03  0.41748373542E+03 -0.26673153041E+04  0.27892029321E+04  0.65864270000E+03 0. -1.
    8880022    1    1    2    0    0  0.23870314058E+03 -0.41748373542E+03  0.57078926290E+03  0.76188181125E+03  0.15294330000E+03 0.  0.
<mgrwt>
<rscale>  0 0.72330931E+03</rscale>
<asrwt>0</asrwt>
<pdfrwt beam="1">  1        1 0.43443159E+00 0.81552564E+03</pdfrwt>
<pdfrwt beam="2">  1       -1 0.11188913E+00 0.81552564E+03</pdfrwt>
<totfact> 0.62337971E-01</totfact>
</mgrwt>
</event>
<event>
 4    5  0.1074803E-007  0.9674577E+03  0.7818608E-02  0.9425429E-01
         -1   -1    0    0    0  501 -0.00000000000E+00  0.00000000000E+00  0.93210735240E+03  0.93210735242E+03  0.50400000000E-02 0.  1.
          1   -1    0    0  501    0  0.00000000000E+00 -0.00000000000E+00 -0.19758883217E+04  0.19758883217E+04  0.50400000000E-02 0. -1.
    8880023    1    1    2    0    0  0.63463143747E+03 -0.31528891188E+03 -0.16831470641E+04  0.19413805410E+04  0.65864270000E+03 0.  0.
    8880022    1    1    2    0    0 -0.63463143747E+03  0.31528891188E+03  0.63936609480E+03  0.96661513311E+03  0.15294330000E+03 0.  0.
<mgrwt>
<rscale>  0 0.90012192E+03</rscale>
<asrwt>0</asrwt>
<pdfrwt beam="1">  1        1 0.30398282E+00 0.96745768E+03</pdfrwt>
<pdfrwt beam="2">  1       -1 0.14340113E+00 0.96745768E+03</pdfrwt>
<totfact> 0.12369156E+00</totfact>
</mgrwt>
</event>
<event>
 4    5  0.1074803E-007  0.1095904E+04  0.7818608E-02  0.9265630E-01
          1   -1    0    0  501    0  0.00000000000E+00  0.00000000000E+00  0.21158840742E+04  0.21158840742E+04  0.50400000000E-02 0. -1.
         -1   -1    0    0    0  501 -0.00000000000E+00 -0.00000000000E+00 -0.54928373116E+03  0.54928373118E+03  0.50400000000E-02 0.  1.
    8880023    1    1    2    0    0  0.33479548436E+03 -0.80938759485E+03  0.33464747486E+03  0.11458601283E+04  0.65864270000E+03 0.  0.
    8880022    1    1    2    0    0 -0.33479548436E+03  0.80938759485E+03  0.12319528682E+04  0.15193076770E+04  0.15294330000E+03 0.  0.
<mgrwt>
<rscale>  0 0.10400957E+04</rscale>
<asrwt>0</asrwt>
<pdfrwt beam="1">  1        1 0.32552063E+00 0.10959044E+04</pdfrwt>
<pdfrwt beam="2">  1       -1 0.84505189E-01 0.10959044E+04</pdfrwt>
<totfact> 0.34482166E+00</totfact>
</mgrwt>
</event>
<event>
 4    5  0.1074803E-007  0.8409677E+03  0.7818608E-02  0.9628358E-01
         -1   -1    0    0    0  501 -0.00000000000E+00  0.00000000000E+00  0.60140955299E+03  0.60140955301E+03  0.50400000000E-02 0.  1.
          1   -1    0    0  501    0  0.00000000000E+00 -0.00000000000E+00 -0.11627558762E+04  0.11627558763E+04  0.50400000000E-02 0. -1.
    8880023    1    1    2    0    0  0.27155984256E+03 -0.44684635035E+03 -0.80791042430E+03  0.11661671702E+04  0.65864270000E+03 0. -1.
    8880022    1    1    2    0    0 -0.27155984256E+03  0.44684635035E+03  0.24656410104E+03  0.59799825906E+03  0.15294330000E+03 0.  0.
<mgrwt>
<rscale>  0 0.75447340E+03</rscale>
<asrwt>0</asrwt>
<pdfrwt beam="1">  1        1 0.17888552E+00 0.84096767E+03</pdfrwt>
<pdfrwt beam="2">  1       -1 0.92524546E-01 0.84096767E+03</pdfrwt>
<totfact> 0.13200239E+01</totfact>
</mgrwt>
</event>
<event>
 4    5  0.1074803E-007  0.1130017E+04  0.7818608E-02  0.9228349E-01
          1   -1    0    0  501    0  0.00000000000E+00  0.00000000000E+00  0.93554679753E+03  0.93554679754E+03  0.50400000000E-02 0. -1.
         -1   -1    0    0    0  501 -0.00000000000E+00 -0.00000000000E+00 -0.15762391715E+04  0.15762391715E+04  0.50400000000E-02 0.  1.
    8880023    1    1    2    0    0  0.35541618721E+03  0.84664503198E+03  0.31962664516E+03  0.11743508312E+04  0.65864270000E+03 0.  0.
    8880022    1    1    2    0    0 -0.35541618721E+03 -0.84664503198E+03 -0.96031901912E+03  0.13374351378E+04  0.15294330000E+03 0.  0.
<mgrwt>
<rscale>  0 0.10765547E+04</rscale>
<asrwt>0</asrwt>
<pdfrwt beam="1">  1        1 0.14393028E+00 0.11300171E+04</pdfrwt>
<pdfrwt beam="2">  1       -1 0.24249833E+00 0.11300171E+04</pdfrwt>
<totfact> 0.13164346E+00</totfact>
</mgrwt>
</event>
<event>
 4    5  0.1074803E-007  0.1088133E+04  0.7818608E-02  0.9274384E-01
          1   -1    0    0  501    0  0.00000000000E+00  0.00000000000E+00  0.21332438564E+04  0.21332438564E+04  0.50400000000E-02 0. -1.
         -1   -1    0    0    0  501 -0.00000000000E+00 -0.00000000000E+00 -0.10313432395E+04  0.10313432395E+04  0.50400000000E-02 0.  1.
    8880023    1    1    2    0    0  0.56726855806E+03 -0.65454609742E+03  0.17578412296E+04  0.20673751971E+04  0.65864270000E+03 0. -1.
    8880022    1    1    2    0    0 -0.56726855806E+03  0.65454609742E+03 -0.65594061272E+03  0.10972118989E+04  0.15294330000E+03 0.  0.
<mgrwt>
<rscale>  0 0.10317567E+04</rscale>
<asrwt>0</asrwt>
<pdfrwt beam="1">  1        1 0.32819136E+00 0.10881335E+04</pdfrwt>
<pdfrwt beam="2">  1       -1 0.15866819E+00 0.10881335E+04</pdfrwt>
<totfact> 0.72299163E-01</totfact>
</mgrwt>
</event>
<event>
 4    5  0.1074803E-007  0.2227847E+04  0.7818608E-02  0.8516790E-01
          1   -1    0    0  501    0  0.00000000000E+00  0.00000000000E+00  0.25826892367E+04  0.25826892367E+04  0.50400000000E-02 0. -1.
         -1   -1    0    0    0  501 -0.00000000000E+00 -0.00000000000E+00 -0.19895336349E+04  0.19895336349E+04  0.50400000000E-02 0.  1.
    8880023    1    1    2    0    0 -0.12264007461E+04 -0.17393776380E+04 -0.32107512404E+03  0.22508649003E+04  0.65864270000E+03 0.  1.
    8880022    1    1    2    0    0  0.12264007461E+04  0.17393776380E+04  0.91423072588E+03  0.23213579713E+04  0.15294330000E+03 0.  0.
<mgrwt>
<rscale>  0 0.22039407E+04</rscale>
<asrwt>0</asrwt>
<pdfrwt beam="1">  1        1 0.39733680E+00 0.22278473E+04</pdfrwt>
<pdfrwt beam="2">  1       -1 0.30608210E+00 0.22278473E+04</pdfrwt>
<totfact> 0.31016689E-02</totfact>
</mgrwt>
</event>
<event>
 4    5  0.1074803E-007  0.7964869E+03  0.7818608E-02  0.9718444E-01
          1   -1    0    0  501    0  0.00000000000E+00  0.00000000000E+00  0.10691434933E+04  0.10691434934E+04  0.50400000000E-02 0. -1.
         -1   -1    0    0    0  501 -0.00000000000E+00 -0.00000000000E+00 -0.14254698163E+04  0.14254698163E+04  0.50400000000E-02 0.  1.
    8880023    1    1    2    0    0  0.35899676231E+03 -0.26777316874E+03  0.87036301085E+03  0.11797979158E+04  0.65864270000E+03 0. -1.
    8880022    1    1    2    0    0 -0.35899676231E+03  0.26777316874E+03 -0.12266893337E+04  0.13148153938E+04  0.15294330000E+03 0.  0.
<mgrwt>
<rscale>  0 0.69929171E+03</rscale>
<asrwt>0</asrwt>
<pdfrwt beam="1">  1        1 0.16448361E+00 0.79648688E+03</pdfrwt>
<pdfrwt beam="2">  1       -1 0.21930305E+00 0.79648688E+03</pdfrwt>
<totfact> 0.15453245E+00</totfact>
</mgrwt>
</event>
<event>
 4    5  0.1074803E-007  0.9464347E+03  0.7818608E-02  0.9455262E-01
          1   -1    0    0  501    0  0.00000000000E+00  0.00000000000E+00  0.67956596150E+03  0.67956596151E+03  0.50400000000E-02 0. -1.
         -1   -1    0    0    0  501 -0.00000000000E+00 -0.00000000000E+00 -0.20247045415E+04  0.20247045415E+04  0.50400000000E-02 0.  1.
    8880023    1    1    2    0    0  0.47553286503E+03 -0.48558927335E+03  0.23690512965E+03  0.97563450884E+03  0.65864270000E+03 0. -1.
    8880022    1    1    2    0    0 -0.47553286503E+03  0.48558927335E+03 -0.15820437097E+04  0.17286359942E+04  0.15294330000E+03 0.  0.
<mgrwt>
<rscale>  0 0.87664050E+03</rscale>
<asrwt>0</asrwt>
<pdfrwt beam="1">  1        1 0.10454861E+00 0.94643471E+03</pdfrwt>
<pdfrwt beam="2">  1       -1 0.31149300E+00 0.94643471E+03</pdfrwt>
<totfact> 0.81110985E-01</totfact>
</mgrwt>
</event>
<event>
 4    5  0.1074803E-007  0.6932984E+03  0.7818608E-02  0.1002623E+00
         -1   -1    0    0    0  501 -0.00000000000E+00  0.00000000000E+00  0.33377035822E+03  0.33377035826E+03  0.50400000000E-02 0.  1.
          1   -1    0    0  501    0  0.00000000000E+00 -0.00000000000E+00 -0.69616787771E+03  0.69616787773E+03  0.50400000000E-02 0. -1.
    8880023    1    1    2    0    0 -0.82573858840E+02  0.20008499316E+03 -0.21093779688E+03  0.72467745037E+03  0.65864270000E+03 0.  0.
    8880022    1    1    2    0    0  0.82573858840E+02 -0.20008499316E+03 -0.15145972261E+03  0.30526078562E+03  0.15294330000E+03 0.  1.
<mgrwt>
<rscale>  0 0.54515045E+03</rscale>
<asrwt>0</asrwt>
<pdfrwt beam="1">  1        1 0.10710275E+00 0.69329839E+03</pdfrwt>
<pdfrwt beam="2">  1       -1 0.51349286E-01 0.69329839E+03</pdfrwt>
<totfact> 0.10711648E+02</totfact>
</mgrwt>
</event>
<event>
 4    5  0.1074803E-007  0.7344695E+03  0.7818608E-02  0.9876360E-01
         -1   -1    0    0    0  501 -0.00000000000E+00  0.00000000000E+00  0.20690849863E+03  0.20690849869E+03  0.50400000000E-02 0.  1.
          1   -1    0    0  501    0  0.00000000000E+00 -0.00000000000E+00 -0.21462343481E+04  0.21462343481E+04  0.50400000000E-02 0. -1.
    8880023    1    1    2    0    0 -0.13012866278E+03  0.29782840397E+03 -0.18389214710E+04  0.19801711062E+04  0.65864270000E+03 0. -1.
    8880022    1    1    2    0    0  0.13012866278E+03 -0.29782840397E+03 -0.10040437854E+03  0.37297174066E+03  0.15294330000E+03 0.  0.
<mgrwt>
<rscale>  0 0.61420782E+03</rscale>
<asrwt>0</asrwt>
<pdfrwt beam="1">  1        1 0.33018988E+00 0.73446949E+03</pdfrwt>
<pdfrwt beam="2">  1       -1 0.31832078E-01 0.73446949E+03</pdfrwt>
<totfact> 0.22741081E+01</totfact>
</mgrwt>
</event>
<event>
 4    5  0.1074803E-007  0.9279655E+03  0.7818608E-02  0.9482552E-01
         -1   -1    0    0    0  501 -0.00000000000E+00  0.00000000000E+00  0.60660479661E+03  0.60660479663E+03  0.50400000000E-02 0.  1.
          1   -1    0    0  501    0  0.00000000000E+00 -0.00000000000E+00 -0.14007775868E+04  0.14007775868E+04  0.50400000000E-02 0. -1.
    8880023    1    1    2    0    0  0.58214731847E+03  0.29734550340E+03 -0.93946425091E+03  0.13204973055E+04  0.65864270000E+03 0. -1.
    8880022    1    1    2    0    0 -0.58214731847E+03 -0.29734550340E+03  0.14529146069E+03  0.68688507799E+03  0.15294330000E+03 0.  1.
<mgrwt>
<rscale>  0 0.85582509E+03</rscale>
<asrwt>0</asrwt>
<pdfrwt beam="1">  1        1 0.21550424E+00 0.92796555E+03</pdfrwt>
<pdfrwt beam="2">  1       -1 0.93323815E-01 0.92796555E+03</pdfrwt>
<totfact> 0.86643184E+00</totfact>
</mgrwt>
</event>
<event>
 4    5  0.1074803E-007  0.8215933E+03  0.7818608E-02  0.9665916E-01
         -1   -1    0    0    0  501 -0.00000000000E+00  0.00000000000E+00  0.80704417873E+03  0.80704417875E+03  0.50400000000E-02 0.  1.
          1   -1    0    0  501    0  0.00000000000E+00 -0.00000000000E+00 -0.79386825024E+03  0.79386825025E+03  0.50400000000E-02 0. -1.
    8880023    1    1    2    0    0 -0.35618048023E+03 -0.33814319070E+03 -0.42516765572E+03  0.92508545207E+03  0.65864270000E+03 0. -1.
    8880022    1    1    2    0    0  0.35618048023E+03  0.33814319070E+03  0.43834358421E+03  0.67582697693E+03  0.15294330000E+03 0.  0.
<mgrwt>
<rscale>  0 0.73082902E+03</rscale>
<asrwt>0</asrwt>
<pdfrwt beam="1">  1        1 0.12213358E+00 0.82159330E+03</pdfrwt>
<pdfrwt beam="2">  1       -1 0.12416064E+00 0.82159330E+03</pdfrwt>
<totfact> 0.13004242E+01</totfact>
</mgrwt>
</event>
<event>
 4    5  0.1074803E-007  0.1307845E+04  0.7818608E-02  0.9058815E-01
         -1   -1    0    0    0  501 -0.00000000000E+00  0.00000000000E+00  0.35123814088E+04  0.35123814088E+04  0.50400000000E-02 0.  1.
          1   -1    0    0  501    0  0.00000000000E+00 -0.00000000000E+00 -0.64071743368E+03  0.64071743370E+03  0.50400000000E-02 0. -1.
    8880023    1    1    2    0    0 -0.24309411599E+03 -0.11034278460E+04  0.30261907821E+03  0.13423994463E+04  0.65864270000E+03 0.  0.
    8880022    1    1    2    0    0  0.24309411599E+03  0.11034278460E+04  0.25690448969E+04  0.28106993963E+04  0.15294330000E+03 0.  0.
<mgrwt>
<rscale>  0 0.12637516E+04</rscale>
<asrwt>0</asrwt>
<pdfrwt beam="1">  1        1 0.98571911E-01 0.13078448E+04</pdfrwt>
<pdfrwt beam="2">  1       -1 0.54036638E+00 0.13078448E+04</pdfrwt>
<totfact> 0.25382202E-02</totfact>
</mgrwt>
</event>
<event>
 4    5  0.1074803E-007  0.7374139E+03  0.7818608E-02  0.9867545E-01
         -1   -1    0    0    0  501 -0.00000000000E+00  0.00000000000E+00  0.10634416430E+04  0.10634416430E+04  0.50400000000E-02 0.  1.
          1   -1    0    0  501    0  0.00000000000E+00 -0.00000000000E+00 -0.81267484321E+03  0.81267484322E+03  0.50400000000E-02 0. -1.
    8880023    1    1    2    0    0  0.16702833456E+02  0.33119482692E+03 -0.59974935350E+03  0.95051485592E+03  0.65864270000E+03 0.  1.
    8880022    1    1    2    0    0 -0.16702833456E+02 -0.33119482692E+03  0.85051615332E+03  0.92560163035E+03  0.15294330000E+03 0.  0.
<mgrwt>
<rscale>  0 0.61860288E+03</rscale>
<asrwt>0</asrwt>
<pdfrwt beam="1">  1        1 0.12502690E+00 0.73741386E+03</pdfrwt>
<pdfrwt beam="2">  1       -1 0.16360641E+00 0.73741386E+03</pdfrwt>
<totfact> 0.61315235E+00</totfact>
</mgrwt>
</event>
<event>
 4    5  0.1074803E-007  0.8569043E+03  0.7818608E-02  0.9599094E-01
         -1   -1    0    0    0  501 -0.00000000000E+00  0.00000000000E+00  0.80763730669E+03  0.80763730671E+03  0.50400000000E-02 0.  1.
          1   -1    0    0  501    0  0.00000000000E+00 -0.00000000000E+00 -0.17905680905E+04  0.17905680905E+04  0.50400000000E-02 0. -1.
    8880023    1    1    2    0    0  0.39538912930E+03  0.37966068162E+03 -0.15649497415E+04  0.17841952517E+04  0.65864270000E+03 0.  0.
    8880022    1    1    2    0    0 -0.39538912930E+03 -0.37966068162E+03  0.58201895771E+03  0.81401014544E+03  0.15294330000E+03 0.  0.
<mgrwt>
<rscale>  0 0.77356176E+03</rscale>
<asrwt>0</asrwt>
<pdfrwt beam="1">  1        1 0.27547201E+00 0.85690431E+03</pdfrwt>
<pdfrwt beam="2">  1       -1 0.12425189E+00 0.85690431E+03</pdfrwt>
<totfact> 0.24199945E+00</totfact>
</mgrwt>
</event>
<event>
 4    5  0.1074803E-007  0.6762718E+03  0.7818608E-02  0.1011516E+00
         -1   -1    0    0    0  501 -0.00000000000E+00  0.00000000000E+00  0.13269686685E+04  0.13269686685E+04  0.50400000000E-02 0.  1.
          1   -1    0    0  501    0  0.00000000000E+00 -0.00000000000E+00 -0.62633626294E+03  0.62633626296E+03  0.50400000000E-02 0. -1.
    8880023    1    1    2    0    0 -0.94495331037E+02  0.12084675826E+03 -0.43046542250E+03  0.80165079230E+03  0.65864270000E+03 0. -1.
    8880022    1    1    2    0    0  0.94495331037E+02 -0.12084675826E+03  0.11310978281E+04  0.11516541392E+04  0.15294330000E+03 0.  0.
<mgrwt>
<rscale>  0 0.50876407E+03</rscale>
<asrwt>0</asrwt>
<pdfrwt beam="1">  1        1 0.96359425E-01 0.67627177E+03</pdfrwt>
<pdfrwt beam="2">  1       -1 0.20414903E+00 0.67627177E+03</pdfrwt>
<totfact> 0.47551222E+00</totfact>
</mgrwt>
</event>
<event>
 4    5  0.1074803E-007  0.8604567E+03  0.7818608E-02  0.9592752E-01
          1   -1    0    0  501    0  0.00000000000E+00  0.00000000000E+00  0.26203996595E+04  0.26203996595E+04  0.50400000000E-02 0. -1.
         -1   -1    0    0    0  501 -0.00000000000E+00 -0.00000000000E+00 -0.11428459168E+04  0.11428459168E+04  0.50400000000E-02 0.  1.
    8880023    1    1    2    0    0 -0.54126900117E+03 -0.11663384011E+03  0.24705316252E+04  0.26160872122E+04  0.65864270000E+03 0. -1.
    8880022    1    1    2    0    0  0.54126900117E+03  0.11663384011E+03 -0.99297788246E+03  0.11471583641E+04  0.15294330000E+03 0.  0.
<mgrwt>
<rscale>  0 0.77777796E+03</rscale>
<asrwt>0</asrwt>
<pdfrwt beam="1">  1        1 0.40313841E+00 0.86045673E+03</pdfrwt>
<pdfrwt beam="2">  1       -1 0.17582245E+00 0.86045673E+03</pdfrwt>
<totfact> 0.26164503E-01</totfact>
</mgrwt>
</event>
<event>
 4    5  0.1074803E-007  0.8257965E+03  0.7818608E-02  0.9657567E-01
          1   -1    0    0  501    0  0.00000000000E+00  0.00000000000E+00  0.24250723191E+04  0.24250723191E+04  0.50400000000E-02 0. -1.
         -1   -1    0    0    0  501 -0.00000000000E+00 -0.00000000000E+00 -0.42119832467E+03  0.42119832470E+03  0.50400000000E-02 0.  1.
    8880023    1    1    2    0    0 -0.20777429050E+03  0.45272446538E+03  0.21516227089E+04  0.23046518360E+04  0.65864270000E+03 0. -1.
    8880022    1    1    2    0    0  0.20777429050E+03 -0.45272446538E+03 -0.14774871448E+03  0.54161880783E+03  0.15294330000E+03 0.  0.
<mgrwt>
<rscale>  0 0.73600412E+03</rscale>
<asrwt>0</asrwt>
<pdfrwt beam="1">  1        1 0.37308805E+00 0.82579647E+03</pdfrwt>
<pdfrwt beam="2">  1       -1 0.64799742E-01 0.82579647E+03</pdfrwt>
<totfact> 0.38516008E+00</totfact>
</mgrwt>
</event>
<event>
 4    5  0.1074803E-007  0.7825598E+03  0.7818608E-02  0.9749858E-01
         -1   -1    0    0    0  501 -0.00000000000E+00  0.00000000000E+00  0.94854796186E+03  0.94854796187E+03  0.50400000000E-02 0.  1.
          1   -1    0    0  501    0  0.00000000000E+00 -0.00000000000E+00 -0.67287589027E+03  0.67287589029E+03  0.50400000000E-02 0. -1.
    8880023    1    1    2    0    0 -0.10743055843E+03 -0.40871540093E+03 -0.34490973072E+03  0.85519736462E+03  0.65864270000E+03 0. -1.
    8880022    1    1    2    0    0  0.10743055843E+03  0.40871540093E+03  0.62058180231E+03  0.76622648754E+03  0.15294330000E+03 0.  0.
<mgrwt>
<rscale>  0 0.68124296E+03</rscale>
<asrwt>0</asrwt>
<pdfrwt beam="1">  1        1 0.10351937E+00 0.78255978E+03</pdfrwt>
<pdfrwt beam="2">  1       -1 0.14593046E+00 0.78255978E+03</pdfrwt>
<totfact> 0.11144944E+01</totfact>
</mgrwt>
</event>
<event>
 4    5  0.1074803E-007  0.7564563E+03  0.7818608E-02  0.9814370E-01
         -1   -1    0    0    0  501 -0.00000000000E+00  0.00000000000E+00  0.10492626188E+04  0.10492626188E+04  0.50400000000E-02 0.  1.
          1   -1    0    0  501    0  0.00000000000E+00 -0.00000000000E+00 -0.11515745718E+04  0.11515745718E+04  0.50400000000E-02 0. -1.
    8880023    1    1    2    0    0 -0.36706124194E+03 -0.60679101348E+02 -0.97845229619E+03  0.12367679697E+04  0.65864270000E+03 0. -1.
    8880022    1    1    2    0    0  0.36706124194E+03  0.60679101348E+02  0.87614034318E+03  0.96406922088E+03  0.15294330000E+03 0.  0.
<mgrwt>
<rscale>  0 0.64597057E+03</rscale>
<asrwt>0</asrwt>
<pdfrwt beam="1">  1        1 0.17716532E+00 0.75645629E+03</pdfrwt>
<pdfrwt beam="2">  1       -1 0.16142502E+00 0.75645629E+03</pdfrwt>
<totfact> 0.34364386E+00</totfact>
</mgrwt>
</event>
<event>
 4    5  0.1074803E-007  0.1092836E+04  0.7818608E-02  0.9269075E-01
          1   -1    0    0  501    0  0.00000000000E+00  0.00000000000E+00  0.10778200066E+04  0.10778200066E+04  0.50400000000E-02 0. -1.
         -1   -1    0    0    0  501 -0.00000000000E+00 -0.00000000000E+00 -0.11137021582E+04  0.11137021582E+04  0.50400000000E-02 0.  1.
    8880023    1    1    2    0    0 -0.87199069111E+03 -0.10562953792E+02  0.44969441028E+03  0.11817421928E+04  0.65864270000E+03 0.  1.
    8880022    1    1    2    0    0  0.87199069111E+03  0.10562953792E+02 -0.48557656187E+03  0.10097799720E+04  0.15294330000E+03 0.  0.
<mgrwt>
<rscale>  0 0.10368041E+04</rscale>
<asrwt>0</asrwt>
<pdfrwt beam="1">  1        1 0.16581846E+00 0.10928356E+04</pdfrwt>
<pdfrwt beam="2">  1       -1 0.17133879E+00 0.10928356E+04</pdfrwt>
<totfact> 0.31459482E+00</totfact>
</mgrwt>
</event>
<event>
 4    5  0.1074803E-007  0.7067809E+03  0.7818608E-02  0.9970155E-01
          1   -1    0    0  501    0  0.00000000000E+00  0.00000000000E+00  0.24883034713E+03  0.24883034718E+03  0.50400000000E-02 0. -1.
         -1   -1    0    0    0  501 -0.00000000000E+00 -0.00000000000E+00 -0.11589973982E+04  0.11589973983E+04  0.50400000000E-02 0.  1.
    8880023    1    1    2    0    0 -0.19821697522E+03  0.16260072829E+03 -0.38781997034E+03  0.80619073535E+03  0.65864270000E+03 0.  0.
    8880022    1    1    2    0    0  0.19821697522E+03 -0.16260072829E+03 -0.52234708077E+03  0.60163701009E+03  0.15294330000E+03 0.  0.
<mgrwt>
<rscale>  0 0.56978479E+03</rscale>
<asrwt>0</asrwt>
<pdfrwt beam="1">  1        1 0.38281592E-01 0.70678085E+03</pdfrwt>
<pdfrwt beam="2">  1       -1 0.17830729E+00 0.70678085E+03</pdfrwt>
<totfact> 0.24636221E+01</totfact>
</mgrwt>
</event>
<event>
 4    5  0.1074803E-007  0.7581118E+03  0.7818608E-02  0.9810020E-01
          1   -1    0    0  501    0  0.00000000000E+00  0.00000000000E+00  0.11008732830E+04  0.11008732830E+04  0.50400000000E-02 0. -1.
         -1   -1    0    0    0  501 -0.00000000000E+00 -0.00000000000E+00 -0.41552370593E+03  0.41552370597E+03  0.50400000000E-02 0.  1.
    8880023    1    1    2    0    0 -0.37022472419E+03  0.62104642726E+02  0.79290735309E+03  0.10970121284E+04  0.65864270000E+03 0. -1.
    8880022    1    1    2    0    0  0.37022472419E+03 -0.62104642726E+02 -0.10755777604E+03  0.41938486054E+03  0.15294330000E+03 0.  0.
<mgrwt>
<rscale>  0 0.64827549E+03</rscale>
<asrwt>0</asrwt>
<pdfrwt beam="1">  1        1 0.16936512E+00 0.75811183E+03</pdfrwt>
<pdfrwt beam="2">  1       -1 0.63926724E-01 0.75811183E+03</pdfrwt>
<totfact> 0.32251243E+01</totfact>
</mgrwt>
</event>
<event>
 4    5  0.1074803E-007  0.1011215E+04  0.7818608E-02  0.9367029E-01
          1   -1    0    0  501    0  0.00000000000E+00  0.00000000000E+00  0.11997416323E+04  0.11997416323E+04  0.50400000000E-02 0. -1.
         -1   -1    0    0    0  501 -0.00000000000E+00 -0.00000000000E+00 -0.91239418136E+03  0.91239418138E+03  0.50400000000E-02 0.  1.
    8880023    1    1    2    0    0  0.39245482393E+02  0.76629372192E+03  0.69780521181E+03  0.12286124678E+04  0.65864270000E+03 0.  0.
    8880022    1    1    2    0    0 -0.39245482393E+02 -0.76629372192E+03 -0.41045776091E+03  0.88352334585E+03  0.15294330000E+03 0.  0.
<mgrwt>
<rscale>  0 0.94839423E+03</rscale>
<asrwt>0</asrwt>
<pdfrwt beam="1">  1        1 0.18457564E+00 0.10112153E+04</pdfrwt>
<pdfrwt beam="2">  1       -1 0.14036834E+00 0.10112153E+04</pdfrwt>
<totfact> 0.44590008E+00</totfact>
</mgrwt>
</event>
<event>
 4    5  0.1074803E-007  0.8973713E+03  0.7818608E-02  0.9530265E-01
         -1   -1    0    0    0  501 -0.00000000000E+00  0.00000000000E+00  0.21382201661E+04  0.21382201661E+04  0.50400000000E-02 0.  1.
          1   -1    0    0  501    0  0.00000000000E+00 -0.00000000000E+00 -0.88401593416E+03  0.88401593417E+03  0.50400000000E-02 0. -1.
    8880023    1    1    2    0    0  0.44318928308E+03  0.41838776532E+03 -0.58997609714E+03  0.10739399724E+04  0.65864270000E+03 0. -1.
    8880022    1    1    2    0    0 -0.44318928308E+03 -0.41838776532E+03  0.18441803290E+04  0.19482961279E+04  0.15294330000E+03 0.  0.
<mgrwt>
<rscale>  0 0.82088832E+03</rscale>
<asrwt>0</asrwt>
<pdfrwt beam="1">  1        1 0.13600246E+00 0.89737131E+03</pdfrwt>
<pdfrwt beam="2">  1       -1 0.32895694E+00 0.89737131E+03</pdfrwt>
<totfact> 0.41545910E-01</totfact>
</mgrwt>
</event>
<event>
 4    5  0.1074803E-007  0.7532230E+03  0.7818608E-02  0.9822979E-01
          1   -1    0    0  501    0  0.00000000000E+00  0.00000000000E+00  0.29997806551E+04  0.29997806551E+04  0.50400000000E-02 0. -1.
         -1   -1    0    0    0  501 -0.00000000000E+00 -0.00000000000E+00 -0.12614278241E+04  0.12614278241E+04  0.50400000000E-02 0.  1.
    8880023    1    1    2    0    0  0.29002811025E+03 -0.22230254758E+03  0.29196575738E+04  0.30152521092E+04  0.65864270000E+03 0. -1.
    8880022    1    1    2    0    0 -0.29002811025E+03  0.22230254758E+03 -0.11813047429E+04  0.12459563700E+04  0.15294330000E+03 0.  0.
<mgrwt>
<rscale>  0 0.64143800E+03</rscale>
<asrwt>0</asrwt>
<pdfrwt beam="1">  1        1 0.46150471E+00 0.75322303E+03</pdfrwt>
<pdfrwt beam="2">  1       -1 0.19406582E+00 0.75322303E+03</pdfrwt>
<totfact> 0.10805159E-01</totfact>
</mgrwt>
</event>
<event>
 4    5  0.1074803E-007  0.1369496E+04  0.7818608E-02  0.9007755E-01
          1   -1    0    0  501    0  0.00000000000E+00  0.00000000000E+00  0.33406572707E+04  0.33406572707E+04  0.50400000000E-02 0. -1.
         -1   -1    0    0    0  501 -0.00000000000E+00 -0.00000000000E+00 -0.86271496352E+03  0.86271496353E+03  0.50400000000E-02 0.  1.
    8880023    1    1    2    0    0 -0.45224039275E+02 -0.11998599138E+04  0.26478956918E+04  0.29810855116E+04  0.65864270000E+03 0. -1.
    8880022    1    1    2    0    0  0.45224039275E+02  0.11998599138E+04 -0.16995338457E+03  0.12222867227E+04  0.15294330000E+03 0.  0.
<mgrwt>
<rscale>  0 0.13278652E+04</rscale>
<asrwt>0</asrwt>
<pdfrwt beam="1">  1        1 0.51394727E+00 0.13694960E+04</pdfrwt>
<pdfrwt beam="2">  1       -1 0.13272538E+00 0.13694960E+04</pdfrwt>
<totfact> 0.15573800E-01</totfact>
</mgrwt>
</event>
<event>
 4    5  0.1074803E-007  0.1029705E+04  0.7818608E-02  0.9343686E-01
         -1   -1    0    0    0  501 -0.00000000000E+00  0.00000000000E+00  0.79652546762E+03  0.79652546764E+03  0.50400000000E-02 0.  1.
          1   -1    0    0  501    0  0.00000000000E+00 -0.00000000000E+00 -0.15999793405E+04  0.15999793405E+04  0.50400000000E-02 0. -1.
    8880023    1    1    2    0    0 -0.75950984218E+03 -0.22277150391E+03 -0.11281526172E+04  0.15274229530E+04  0.65864270000E+03 0.  0.
    8880022    1    1    2    0    0  0.75950984218E+03  0.22277150391E+03  0.32469874435E+03  0.86908185514E+03  0.15294330000E+03 0.  0.
<mgrwt>
<rscale>  0 0.96858622E+03</rscale>
<asrwt>0</asrwt>
<pdfrwt beam="1">  1        1 0.24615067E+00 0.10297051E+04</pdfrwt>
<pdfrwt beam="2">  1       -1 0.12254238E+00 0.10297051E+04</pdfrwt>
<totfact> 0.32888833E+00</totfact>
</mgrwt>
</event>
<event>
 4    5  0.1074803E-007  0.7033811E+03  0.7818608E-02  0.9983454E-01
         -1   -1    0    0    0  501 -0.00000000000E+00  0.00000000000E+00  0.13757985468E+03  0.13757985477E+03  0.50400000000E-02 0.  1.
          1   -1    0    0  501    0  0.00000000000E+00 -0.00000000000E+00 -0.20092217153E+04  0.20092217154E+04  0.50400000000E-02 0. -1.
    8880023    1    1    2    0    0  0.23359018244E+03 -0.79814683747E+02 -0.16058387115E+04  0.17531294677E+04  0.65864270000E+03 0. -1.
    8880022    1    1    2    0    0 -0.23359018244E+03  0.79814683747E+02 -0.26580314919E+03  0.39367210240E+03  0.15294330000E+03 0.  1.
<mgrwt>
<rscale>  0 0.56381739E+03</rscale>
<asrwt>0</asrwt>
<pdfrwt beam="1">  1        1 0.30911101E+00 0.70338109E+03</pdfrwt>
<pdfrwt beam="2">  1       -1 0.21166133E-01 0.70338109E+03</pdfrwt>
<totfact> 0.56716175E+01</totfact>
</mgrwt>
</event>
<event>
 4    5  0.1074803E-007  0.1120828E+04  0.7818608E-02  0.9238214E-01
          1   -1    0    0  501    0  0.00000000000E+00  0.00000000000E+00  0.14440380931E+04  0.14440380931E+04  0.50400000000E-02 0. -1.
         -1   -1    0    0    0  501 -0.00000000000E+00 -0.00000000000E+00 -0.10293405178E+04  0.10293405178E+04  0.50400000000E-02 0.  1.
    8880023    1    1    2    0    0 -0.45602235697E+03 -0.78389342858E+03  0.89637712739E+03  0.14351820296E+04  0.65864270000E+03 0.  0.
    8880022    1    1    2    0    0  0.45602235697E+03  0.78389342858E+03 -0.48167955208E+03  0.10381965813E+04  0.15294330000E+03 0.  0.
<mgrwt>
<rscale>  0 0.10667559E+04</rscale>
<asrwt>0</asrwt>
<pdfrwt beam="1">  1        1 0.22215971E+00 0.11208280E+04</pdfrwt>
<pdfrwt beam="2">  1       -1 0.15836008E+00 0.11208280E+04</pdfrwt>
<totfact> 0.21300483E+00</totfact>
</mgrwt>
</event>
<event>
 4    5  0.1074803E-007  0.8892763E+03  0.7818608E-02  0.9543471E-01
          1   -1    0    0  501    0  0.00000000000E+00  0.00000000000E+00  0.13293507359E+04  0.13293507359E+04  0.50400000000E-02 0. -1.
         -1   -1    0    0    0  501 -0.00000000000E+00 -0.00000000000E+00 -0.50871391604E+03  0.50871391607E+03  0.50400000000E-02 0.  1.
    8880023    1    1    2    0    0 -0.31812966120E+03  0.50576240373E+03  0.83681131060E+03  0.12210919155E+04  0.65864270000E+03 0.  0.
    8880022    1    1    2    0    0  0.31812966120E+03 -0.50576240373E+03 -0.16174490745E+02  0.61697273645E+03  0.15294330000E+03 0.  0.
<mgrwt>
<rscale>  0 0.81153396E+03</rscale>
<asrwt>0</asrwt>
<pdfrwt beam="1">  1        1 0.20451550E+00 0.88927628E+03</pdfrwt>
<pdfrwt beam="2">  1       -1 0.78263678E-01 0.88927628E+03</pdfrwt>
<totfact> 0.14320408E+01</totfact>
</mgrwt>
</event>
<event>
 4    5  0.1074803E-007  0.1245491E+04  0.7818608E-02  0.9114122E-01
          1   -1    0    0  501    0  0.00000000000E+00  0.00000000000E+00  0.20721104739E+04  0.20721104739E+04  0.50400000000E-02 0. -1.
         -1   -1    0    0    0  501 -0.00000000000E+00 -0.00000000000E+00 -0.84121278186E+03  0.84121278187E+03  0.50400000000E-02 0.  1.
    8880023    1    1    2    0    0 -0.44514622124E+03  0.95879227037E+03  0.13521610921E+04  0.18383654700E+04  0.65864270000E+03 0. -1.
    8880022    1    1    2    0    0  0.44514622124E+03 -0.95879227037E+03 -0.12126340006E+03  0.10749577858E+04  0.15294330000E+03 0.  0.
<mgrwt>
<rscale>  0 0.11985552E+04</rscale>
<asrwt>0</asrwt>
<pdfrwt beam="1">  1        1 0.31878622E+00 0.12454911E+04</pdfrwt>
<pdfrwt beam="2">  1       -1 0.12941735E+00 0.12454911E+04</pdfrwt>
<totfact> 0.13367681E+00</totfact>
</mgrwt>
</event>
<event>
 4    5  0.1074803E-007  0.7554429E+03  0.7818608E-02  0.9817051E-01
         -1   -1    0    0    0  501 -0.00000000000E+00  0.00000000000E+00  0.18305478936E+03  0.18305478943E+03  0.50400000000E-02 0.  1.
          1   -1    0    0  501    0  0.00000000000E+00 -0.00000000000E+00 -0.21772990717E+04  0.21772990717E+04  0.50400000000E-02 0. -1.
    8880023    1    1    2    0    0  0.16281133268E+02  0.36961962236E+03 -0.17097856443E+04  0.18692407272E+04  0.65864270000E+03 0.  0.
    8880022    1    1    2    0    0 -0.16281133268E+02 -0.36961962236E+03 -0.28445863800E+03  0.49111313390E+03  0.15294330000E+03 0.  0.
<mgrwt>
<rscale>  0 0.64455441E+03</rscale>
<asrwt>0</asrwt>
<pdfrwt beam="1">  1        1 0.33496907E+00 0.75544288E+03</pdfrwt>
<pdfrwt beam="2">  1       -1 0.28162277E-01 0.75544288E+03</pdfrwt>
<totfact> 0.26759385E+01</totfact>
</mgrwt>
</event>
<event>
 4    5  0.1074803E-007  0.7312567E+03  0.7818608E-02  0.9886189E-01
          1   -1    0    0  501    0  0.00000000000E+00  0.00000000000E+00  0.25328727336E+04  0.25328727336E+04  0.50400000000E-02 0. -1.
         -1   -1    0    0    0  501 -0.00000000000E+00 -0.00000000000E+00 -0.60758202268E+03  0.60758202270E+03  0.50400000000E-02 0.  1.
    8880023    1    1    2    0    0  0.27496872637E+03 -0.15911720239E+03  0.24227567716E+04  0.25307087279E+04  0.65864270000E+03 0.  1.
    8880022    1    1    2    0    0 -0.27496872637E+03  0.15911720239E+03 -0.49746606072E+03  0.60974602841E+03  0.15294330000E+03 0.  1.
<mgrwt>
<rscale>  0 0.60935308E+03</rscale>
<asrwt>0</asrwt>
<pdfrwt beam="1">  1        1 0.38967274E+00 0.73125665E+03</pdfrwt>
<pdfrwt beam="2">  1       -1 0.93474155E-01 0.73125665E+03</pdfrwt>
<totfact> 0.15275762E+00</totfact>
</mgrwt>
</event>
<event>
 4    5  0.1074803E-007  0.1188363E+04  0.7818608E-02  0.9168518E-01
          1   -1    0    0  501    0  0.00000000000E+00  0.00000000000E+00  0.11067139895E+04  0.11067139895E+04  0.50400000000E-02 0. -1.
         -1   -1    0    0    0  501 -0.00000000000E+00 -0.00000000000E+00 -0.12542240567E+04  0.12542240567E+04  0.50400000000E-02 0.  1.
    8880023    1    1    2    0    0  0.98079062332E+03 -0.12824208629E+03  0.35598712600E+03  0.12405375124E+04  0.65864270000E+03 0.  0.
    8880022    1    1    2    0    0 -0.98079062332E+03  0.12824208629E+03 -0.50349719324E+03  0.11204005338E+04  0.15294330000E+03 0.  0.
<mgrwt>
<rscale>  0 0.11384365E+04</rscale>
<asrwt>0</asrwt>
<pdfrwt beam="1">  1        1 0.17026369E+00 0.11883629E+04</pdfrwt>
<pdfrwt beam="2">  1       -1 0.19295755E+00 0.11883629E+04</pdfrwt>
<totfact> 0.20726989E+00</totfact>
</mgrwt>
</event>
<event>
 4    5  0.1074803E-007  0.9316482E+03  0.7818608E-02  0.9477025E-01
          1   -1    0    0  501    0  0.00000000000E+00  0.00000000000E+00  0.20856612179E+04  0.20856612179E+04  0.50400000000E-02 0. -1.
         -1   -1    0    0    0  501 -0.00000000000E+00 -0.00000000000E+00 -0.39971669803E+03  0.39971669806E+03  0.50400000000E-02 0.  1.
    8880023    1    1    2    0    0  0.65328393330E+03  0.85896468267E+02  0.15298077806E+04  0.17911672598E+04  0.65864270000E+03 0. -1.
    8880022    1    1    2    0    0 -0.65328393330E+03 -0.85896468267E+02  0.15613673929E+03  0.69421065617E+03  0.15294330000E+03 0.  0.
<mgrwt>
<rscale>  0 0.85999067E+03</rscale>
<asrwt>0</asrwt>
<pdfrwt beam="1">  1        1 0.32087096E+00 0.93164817E+03</pdfrwt>
<pdfrwt beam="2">  1       -1 0.61494877E-01 0.93164817E+03</pdfrwt>
<totfact> 0.71394874E+00</totfact>
</mgrwt>
</event>
<event>
 4    5  0.1074803E-007  0.9950505E+03  0.7818608E-02  0.9388062E-01
          1   -1    0    0  501    0  0.00000000000E+00  0.00000000000E+00  0.20434020200E+04  0.20434020200E+04  0.50400000000E-02 0. -1.
         -1   -1    0    0    0  501 -0.00000000000E+00 -0.00000000000E+00 -0.86356660190E+03  0.86356660191E+03  0.50400000000E-02 0.  1.
    8880023    1    1    2    0    0  0.52390707040E+03  0.53088290400E+03  0.17105190875E+04  0.19788888375E+04  0.65864270000E+03 0. -1.
    8880022    1    1    2    0    0 -0.52390707040E+03 -0.53088290400E+03 -0.53068366944E+03  0.92807978439E+03  0.15294330000E+03 0.  0.
<mgrwt>
<rscale>  0 0.93064683E+03</rscale>
<asrwt>0</asrwt>
<pdfrwt beam="1">  1        1 0.31436954E+00 0.99505049E+03</pdfrwt>
<pdfrwt beam="2">  1       -1 0.13285640E+00 0.99505049E+03</pdfrwt>
<totfact> 0.13526957E+00</totfact>
</mgrwt>
</event>
<event>
 4    5  0.1074803E-007  0.1247062E+04  0.7818608E-02  0.9112679E-01
          1   -1    0    0  501    0  0.00000000000E+00  0.00000000000E+00  0.26217697263E+04  0.26217697263E+04  0.50400000000E-02 0. -1.
         -1   -1    0    0    0  501 -0.00000000000E+00 -0.00000000000E+00 -0.88965657521E+03  0.88965657523E+03  0.50400000000E-02 0.  1.
    8880023    1    1    2    0    0 -0.43933530716E+03 -0.96350334512E+03  0.20462719839E+04  0.23963291608E+04  0.65864270000E+03 0.  0.
    8880022    1    1    2    0    0  0.43933530716E+03  0.96350334512E+03 -0.31415883282E+03  0.11150971408E+04  0.15294330000E+03 0.  1.
<mgrwt>
<rscale>  0 0.12002031E+04</rscale>
<asrwt>0</asrwt>
<pdfrwt beam="1">  1        1 0.40334918E+00 0.12470623E+04</pdfrwt>
<pdfrwt beam="2">  1       -1 0.13687025E+00 0.12470623E+04</pdfrwt>
<totfact> 0.48649500E-01</totfact>
</mgrwt>
</event>
<event>
 4    5  0.1193207E-007  0.1068705E+04  0.7818608E-02  0.9296727E-01
         -1   -1    0    0    0  501 -0.00000000000E+00  0.00000000000E+00  0.15209492464E+04  0.15209492464E+04  0.50400000000E-02 0.  1.
          1   -1    0    0  501    0  0.00000000000E+00 -0.00000000000E+00 -0.22307769195E+04  0.22307769195E+04  0.50400000000E-02 0. -1.
    8880023    1    1    2    0    0  0.49869580274E+03 -0.67795428516E+03 -0.19626364747E+04  0.22347419660E+04  0.65864270000E+03 0.  0.
    8880022    1    1    2    0    0 -0.49869580274E+03  0.67795428516E+03  0.12528088016E+04  0.15169841999E+04  0.15294330000E+03 0.  0.
<mgrwt>
<rscale>  0 0.10108477E+04</rscale>
<asrwt>0</asrwt>
<pdfrwt beam="1">  1        1 0.34319645E+00 0.10687047E+04</pdfrwt>
<pdfrwt beam="2">  1       -1 0.23399219E+00 0.10687047E+04</pdfrwt>
<totfact> 0.18538141E-01</totfact>
</mgrwt>
</event>
<event>
 4    5  0.1189072E-007  0.2393266E+04  0.7818608E-02  0.8450393E-01
          1   -1    0    0  501    0  0.00000000000E+00  0.00000000000E+00  0.24921545969E+04  0.24921545970E+04  0.50400000000E-02 0. -1.
         -1   -1    0    0    0  501 -0.00000000000E+00 -0.00000000000E+00 -0.59413723454E+04  0.59413723454E+04  0.50400000000E-02 0.  1.
    8880023    1    1    2    0    0 -0.58882254031E+03 -0.22242302719E+04  0.16026193430E+04  0.28802970769E+04  0.65864270000E+03 0.  0.
    8880022    1    1    2    0    0  0.58882254031E+03  0.22242302719E+04 -0.50518370915E+04  0.55532298655E+04  0.15294330000E+03 0.  0.
<mgrwt>
<rscale>  0 0.23711262E+04</rscale>
<asrwt>0</asrwt>
<pdfrwt beam="1">  1        1 0.38340840E+00 0.23932661E+04</pdfrwt>
<pdfrwt beam="2">  1       -1 0.91405728E+00 0.23932661E+04</pdfrwt>
<totfact> 0.56479060E-06</totfact>
</mgrwt>
</event>
<event>
 4    5  0.1074803E-007  0.8778368E+03  0.7818608E-02  0.9562590E-01
          1   -1    0    0  501    0  0.00000000000E+00  0.00000000000E+00  0.24607206533E+04  0.24607206533E+04  0.50400000000E-02 0. -1.
         -1   -1    0    0    0  501 -0.00000000000E+00 -0.00000000000E+00 -0.60534769682E+03  0.60534769684E+03  0.50400000000E-02 0.  1.
    8880023    1    1    2    0    0 -0.54565481342E+03  0.19760573594E+03  0.22037362142E+04  0.23721405335E+04  0.65864270000E+03 0. -1.
    8880022    1    1    2    0    0  0.54565481342E+03 -0.19760573594E+03 -0.34836325781E+03  0.69392781663E+03  0.15294330000E+03 0.  0.
<mgrwt>
<rscale>  0 0.79822460E+03</rscale>
<asrwt>0</asrwt>
<pdfrwt beam="1">  1        1 0.37857241E+00 0.87783678E+03</pdfrwt>
<pdfrwt beam="2">  1       -1 0.93130415E-01 0.87783678E+03</pdfrwt>
<totfact> 0.16769398E+00</totfact>
</mgrwt>
</event>
<event>
 4    5  0.1074803E-007  0.6959303E+03  0.7818608E-02  0.1001452E+00
          1   -1    0    0  501    0  0.00000000000E+00  0.00000000000E+00  0.72064243428E+03  0.72064243429E+03  0.50400000000E-02 0. -1.
         -1   -1    0    0    0  501 -0.00000000000E+00 -0.00000000000E+00 -0.39969317288E+03  0.39969317291E+03  0.50400000000E-02 0.  1.
    8880023    1    1    2    0    0 -0.21526205656E+03 -0.64583616752E+02  0.44021944862E+03  0.82347566191E+03  0.65864270000E+03 0. -1.
    8880022    1    1    2    0    0  0.21526205656E+03  0.64583616752E+02 -0.11927018723E+03  0.29685994530E+03  0.15294330000E+03 0.  0.
<mgrwt>
<rscale>  0 0.55018051E+03</rscale>
<asrwt>0</asrwt>
<pdfrwt beam="1">  1        1 0.11086807E+00 0.69593031E+03</pdfrwt>
<pdfrwt beam="2">  1       -1 0.61491258E-01 0.69593031E+03</pdfrwt>
<totfact> 0.71653580E+01</totfact>
</mgrwt>
</event>
<event>
 4    5  0.1074803E-007  0.7664704E+03  0.7818608E-02  0.9788635E-01
          1   -1    0    0  501    0  0.00000000000E+00  0.00000000000E+00  0.16293666647E+04  0.16293666647E+04  0.50400000000E-02 0. -1.
         -1   -1    0    0    0  501 -0.00000000000E+00 -0.00000000000E+00 -0.26783718979E+03  0.26783718984E+03  0.50400000000E-02 0.  1.
    8880023    1    1    2    0    0 -0.38229475652E+03  0.86703262466E+02  0.12425309865E+04  0.14599178727E+04  0.65864270000E+03 0. -1.
    8880022    1    1    2    0    0  0.38229475652E+03 -0.86703262466E+02  0.11899848841E+03  0.43728598176E+03  0.15294330000E+03 0.  0.
<mgrwt>
<rscale>  0 0.65976022E+03</rscale>
<asrwt>0</asrwt>
<pdfrwt beam="1">  1        1 0.25067179E+00 0.76647044E+03</pdfrwt>
<pdfrwt beam="2">  1       -1 0.41205722E-01 0.76647044E+03</pdfrwt>
<totfact> 0.31668774E+01</totfact>
</mgrwt>
</event>
<event>
 4    5  0.1074803E-007  0.9366099E+03  0.7818608E-02  0.9469647E-01
         -1   -1    0    0    0  501 -0.00000000000E+00  0.00000000000E+00  0.52815531155E+03  0.52815531157E+03  0.50400000000E-02 0.  1.
          1   -1    0    0  501    0  0.00000000000E+00 -0.00000000000E+00 -0.14209932611E+04  0.14209932611E+04  0.50400000000E-02 0. -1.
    8880023    1    1    2    0    0 -0.50718304870E+03 -0.43150107392E+03 -0.16529951336E+03  0.95108462140E+03  0.65864270000E+03 0.  0.
    8880022    1    1    2    0    0  0.50718304870E+03  0.43150107392E+03 -0.72753843617E+03  0.99806395126E+03  0.15294330000E+03 0.  0.
<mgrwt>
<rscale>  0 0.86559086E+03</rscale>
<asrwt>0</asrwt>
<pdfrwt beam="1">  1        1 0.21861435E+00 0.93660986E+03</pdfrwt>
<pdfrwt beam="2">  1       -1 0.81254664E-01 0.93660986E+03</pdfrwt>
<totfact> 0.11342414E+01</totfact>
</mgrwt>
</event>
<event>
 4    5  0.1074803E-007  0.8588552E+03  0.7818608E-02  0.9595603E-01
         -1   -1    0    0    0  501 -0.00000000000E+00  0.00000000000E+00  0.50786264750E+03  0.50786264753E+03  0.50400000000E-02 0.  1.
          1   -1    0    0  501    0  0.00000000000E+00 -0.00000000000E+00 -0.11434772087E+04  0.11434772087E+04  0.50400000000E-02 0. -1.
    8880023    1    1    2    0    0 -0.28421928090E+03  0.47227267212E+03 -0.65322376226E+03  0.10790428936E+04  0.65864270000E+03 0. -1.
    8880022    1    1    2    0    0  0.28421928090E+03 -0.47227267212E+03  0.17609201030E+02  0.57229696263E+03  0.15294330000E+03 0.  0.
<mgrwt>
<rscale>  0 0.77587884E+03</rscale>
<asrwt>0</asrwt>
<pdfrwt beam="1">  1        1 0.17591957E+00 0.85885522E+03</pdfrwt>
<pdfrwt beam="2">  1       -1 0.78132715E-01 0.85885522E+03</pdfrwt>
<totfact> 0.19634069E+01</totfact>
</mgrwt>
</event>
<event>
 4    5  0.1074803E-007  0.7444494E+03  0.7818608E-02  0.9847171E-01
          1   -1    0    0  501    0  0.00000000000E+00  0.00000000000E+00  0.41278248221E+03  0.41278248224E+03  0.50400000000E-02 0. -1.
         -1   -1    0    0    0  501 -0.00000000000E+00 -0.00000000000E+00 -0.82382516218E+03  0.82382516220E+03  0.50400000000E-02 0.  1.
    8880023    1    1    2    0    0  0.18872041329E+03 -0.29116881349E+03 -0.42488165816E+03  0.85716352118E+03  0.65864270000E+03 0.  1.
    8880022    1    1    2    0    0 -0.18872041329E+03  0.29116881349E+03  0.13838978191E+02  0.37944412326E+03  0.15294330000E+03 0.  0.
<mgrwt>
<rscale>  0 0.62891373E+03</rscale>
<asrwt>0</asrwt>
<pdfrwt beam="1">  1        1 0.63504998E-01 0.74444938E+03</pdfrwt>
<pdfrwt beam="2">  1       -1 0.12674233E+00 0.74444938E+03</pdfrwt>
<totfact> 0.31834724E+01</totfact>
</mgrwt>
</event>
<event>
 4    5  0.1074803E-007  0.1123930E+04  0.7818608E-02  0.9234869E-01
         -1   -1    0    0    0  501 -0.00000000000E+00  0.00000000000E+00  0.26299506138E+04  0.26299506138E+04  0.50400000000E-02 0.  1.
          1   -1    0    0  501    0  0.00000000000E+00 -0.00000000000E+00 -0.68037876199E+03  0.68037876200E+03  0.50400000000E-02 0. -1.
    8880023    1    1    2    0    0 -0.39613056693E+03 -0.82005490581E+03 -0.31735903295E+02  0.11243784276E+04  0.65864270000E+03 0.  0.
    8880022    1    1    2    0    0  0.39613056693E+03  0.82005490581E+03  0.19813077551E+04  0.21859509483E+04  0.15294330000E+03 0.  0.
<mgrwt>
<rscale>  0 0.10700660E+04</rscale>
<asrwt>0</asrwt>
<pdfrwt beam="1">  1        1 0.10467366E+00 0.11239305E+04</pdfrwt>
<pdfrwt beam="2">  1       -1 0.40460779E+00 0.11239305E+04</pdfrwt>
<totfact> 0.19036907E-01</totfact>
</mgrwt>
</event>
<event>
 4    5  0.1074803E-007  0.7296119E+03  0.7818608E-02  0.9891311E-01
         -1   -1    0    0    0  501 -0.00000000000E+00  0.00000000000E+00  0.14168628701E+04  0.14168628701E+04  0.50400000000E-02 0.  1.
          1   -1    0    0  501    0  0.00000000000E+00 -0.00000000000E+00 -0.30143005243E+03  0.30143005247E+03  0.50400000000E-02 0. -1.
    8880023    1    1    2    0    0 -0.27645968161E+03 -0.14863821606E+03  0.22762941578E+03  0.76429616774E+03  0.65864270000E+03 0. -1.
    8880022    1    1    2    0    0  0.27645968161E+03  0.14863821606E+03  0.88780340191E+03  0.95399675486E+03  0.15294330000E+03 0.  0.
<mgrwt>
<rscale>  0 0.60684256E+03</rscale>
<asrwt>0</asrwt>
<pdfrwt beam="1">  1        1 0.46373855E-01 0.72961187E+03</pdfrwt>
<pdfrwt beam="2">  1       -1 0.21797890E+00 0.72961187E+03</pdfrwt>
<totfact> 0.10235802E+01</totfact>
</mgrwt>
</event>
<event>
 4    5  0.1074803E-007  0.1138893E+04  0.7818608E-02  0.9218941E-01
          1   -1    0    0  501    0  0.00000000000E+00  0.00000000000E+00  0.16324190696E+04  0.16324190696E+04  0.50400000000E-02 0. -1.
         -1   -1    0    0    0  501 -0.00000000000E+00 -0.00000000000E+00 -0.13031985315E+04  0.13031985315E+04  0.50400000000E-02 0.  1.
    8880023    1    1    2    0    0  0.89650649917E+02  0.92478677160E+03  0.11990476829E+04  0.16537210660E+04  0.65864270000E+03 0. -1.
    8880022    1    1    2    0    0 -0.89650649917E+02 -0.92478677160E+03 -0.86982714484E+03  0.12818965352E+04  0.15294330000E+03 0.  0.
<mgrwt>
<rscale>  0 0.10860052E+04</rscale>
<asrwt>0</asrwt>
<pdfrwt beam="1">  1        1 0.25114139E+00 0.11388933E+04</pdfrwt>
<pdfrwt beam="2">  1       -1 0.20049208E+00 0.11388933E+04</pdfrwt>
<totfact> 0.78227957E-01</totfact>
</mgrwt>
</event>
<event>
 4    5  0.1074803E-007  0.7286008E+03  0.7818608E-02  0.9894490E-01
          1   -1    0    0  501    0  0.00000000000E+00  0.00000000000E+00  0.44658210600E+03  0.44658210603E+03  0.50400000000E-02 0. -1.
         -1   -1    0    0    0  501 -0.00000000000E+00 -0.00000000000E+00 -0.73734713513E+03  0.73734713515E+03  0.50400000000E-02 0.  1.
    8880023    1    1    2    0    0 -0.29095413418E+03  0.11133094058E+03  0.39782154920E+01  0.72861163797E+03  0.65864270000E+03 0.  0.
    8880022    1    1    2    0    0  0.29095413418E+03 -0.11133094058E+03 -0.29474324462E+03  0.45531760321E+03  0.15294330000E+03 0.  0.
<mgrwt>
<rscale>  0 0.60529043E+03</rscale>
<asrwt>0</asrwt>
<pdfrwt beam="1">  1        1 0.68704939E-01 0.72860078E+03</pdfrwt>
<pdfrwt beam="2">  1       -1 0.11343802E+00 0.72860078E+03</pdfrwt>
<totfact> 0.37593588E+01</totfact>
</mgrwt>
</event>
<event>
 4    5  0.1074803E-007  0.8392464E+03  0.7818608E-02  0.9631603E-01
          1   -1    0    0  501    0  0.00000000000E+00  0.00000000000E+00  0.35086621369E+04  0.35086621369E+04  0.50400000000E-02 0. -1.
         -1   -1    0    0    0  501 -0.00000000000E+00 -0.00000000000E+00 -0.34589896158E+03  0.34589896162E+03  0.50400000000E-02 0.  1.
    8880023    1    1    2    0    0 -0.30376000583E+03 -0.42220150406E+03  0.32028133645E+04  0.33109436578E+04  0.65864270000E+03 0. -1.
    8880022    1    1    2    0    0  0.30376000583E+03  0.42220150406E+03 -0.40050189180E+02  0.54361744071E+03  0.15294330000E+03 0.  0.
<mgrwt>
<rscale>  0 0.75239342E+03</rscale>
<asrwt>0</asrwt>
<pdfrwt beam="1">  1        1 0.53979415E+00 0.83924636E+03</pdfrwt>
<pdfrwt beam="2">  1       -1 0.53215227E-01 0.83924636E+03</pdfrwt>
<totfact> 0.93842967E-01</totfact>
</mgrwt>
</event>
<event>
 4    5  0.1074803E-007  0.1175459E+04  0.7818608E-02  0.9181355E-01
         -1   -1    0    0    0  501 -0.00000000000E+00  0.00000000000E+00  0.19578426412E+04  0.19578426413E+04  0.50400000000E-02 0.  1.
          1   -1    0    0  501    0  0.00000000000E+00 -0.00000000000E+00 -0.10053016690E+04  0.10053016690E+04  0.50400000000E-02 0. -1.
    8880023    1    1    2    0    0  0.26940301990E+03  0.93558301583E+03 -0.44173647705E+03  0.12557208639E+04  0.65864270000E+03 0. -1.
    8880022    1    1    2    0    0 -0.26940301990E+03 -0.93558301583E+03  0.13942774493E+04  0.17074234464E+04  0.15294330000E+03 0.  0.
<mgrwt>
<rscale>  0 0.11247965E+04</rscale>
<asrwt>0</asrwt>
<pdfrwt beam="1">  1        1 0.15466180E+00 0.11754590E+04</pdfrwt>
<pdfrwt beam="2">  1       -1 0.30120656E+00 0.11754590E+04</pdfrwt>
<totfact> 0.48057032E-01</totfact>
</mgrwt>
</event>
<event>
 4    5  0.1074803E-007  0.8061222E+03  0.7818608E-02  0.9697712E-01
         -1   -1    0    0    0  501 -0.00000000000E+00  0.00000000000E+00  0.39943126662E+03  0.39943126665E+03  0.50400000000E-02 0.  1.
          1   -1    0    0  501    0  0.00000000000E+00 -0.00000000000E+00 -0.18273335654E+04  0.18273335654E+04  0.50400000000E-02 0. -1.
    8880023    1    1    2    0    0  0.34148566433E+03 -0.31529402476E+03 -0.15277480809E+04  0.17273815983E+04  0.65864270000E+03 0.  0.
    8880022    1    1    2    0    0 -0.34148566433E+03  0.31529402476E+03  0.99845782128E+02  0.49938323381E+03  0.15294330000E+03 0.  0.
<mgrwt>
<rscale>  0 0.71153202E+03</rscale>
<asrwt>0</asrwt>
<pdfrwt beam="1">  1        1 0.28112824E+00 0.80612219E+03</pdfrwt>
<pdfrwt beam="2">  1       -1 0.61450965E-01 0.80612219E+03</pdfrwt>
<totfact> 0.10842093E+01</totfact>
</mgrwt>
</event>
<event>
 4    5  0.1074803E-007  0.8281638E+03  0.7818608E-02  0.9652916E-01
          1   -1    0    0  501    0  0.00000000000E+00  0.00000000000E+00  0.28380213893E+04  0.28380213893E+04  0.50400000000E-02 0. -1.
         -1   -1    0    0    0  501 -0.00000000000E+00 -0.00000000000E+00 -0.59588182807E+03  0.59588182809E+03  0.50400000000E-02 0.  1.
    8880023    1    1    2    0    0 -0.41289145691E+03  0.28559699632E+03  0.26454276745E+04  0.27720286411E+04  0.65864270000E+03 0.  0.
    8880022    1    1    2    0    0  0.41289145691E+03 -0.28559699632E+03 -0.40328811327E+03  0.66187457635E+03  0.15294330000E+03 0.  0.
<mgrwt>
<rscale>  0 0.73890717E+03</rscale>
<asrwt>0</asrwt>
<pdfrwt beam="1">  1        1 0.43661868E+00 0.82816376E+03</pdfrwt>
<pdfrwt beam="2">  1       -1 0.91674126E-01 0.82816376E+03</pdfrwt>
<totfact> 0.95983160E-01</totfact>
</mgrwt>
</event>
<event>
 4    5  0.1074803E-007  0.7148599E+03  0.7818608E-02  0.9940378E-01
         -1   -1    0    0    0  501 -0.00000000000E+00  0.00000000000E+00  0.46315696984E+03  0.46315696987E+03  0.50400000000E-02 0.  1.
          1   -1    0    0  501    0  0.00000000000E+00 -0.00000000000E+00 -0.85471114926E+03  0.85471114928E+03  0.50400000000E-02 0. -1.
    8880023    1    1    2    0    0  0.27446687371E+03  0.43386386119E+02 -0.60420491423E+03  0.93599584823E+03  0.65864270000E+03 0. -1.
    8880022    1    1    2    0    0 -0.27446687371E+03 -0.43386386119E+02  0.21265073481E+03  0.38187227091E+03  0.15294330000E+03 0.  0.
<mgrwt>
<rscale>  0 0.58343668E+03</rscale>
<asrwt>0</asrwt>
<pdfrwt beam="1">  1        1 0.13149402E+00 0.71485988E+03</pdfrwt>
<pdfrwt beam="2">  1       -1 0.71254918E-01 0.71485988E+03</pdfrwt>
<totfact> 0.40578218E+01</totfact>
</mgrwt>
</event>
<event>
 4    5  0.1074803E-007  0.7459643E+03  0.7818608E-02  0.9842902E-01
          1   -1    0    0  501    0  0.00000000000E+00  0.00000000000E+00  0.16240984952E+04  0.16240984952E+04  0.50400000000E-02 0. -1.
         -1   -1    0    0    0  501 -0.00000000000E+00 -0.00000000000E+00 -0.22501413803E+04  0.22501413803E+04  0.50400000000E-02 0.  1.
    8880023    1    1    2    0    0  0.31815896338E+03  0.14638091218E+03  0.15206667085E+04  0.16937797797E+04  0.65864270000E+03 0.  0.
    8880022    1    1    2    0    0 -0.31815896338E+03 -0.14638091218E+03 -0.21467095936E+04  0.21804600959E+04  0.15294330000E+03 0.  1.
<mgrwt>
<rscale>  0 0.63110126E+03</rscale>
<asrwt>0</asrwt>
<pdfrwt beam="1">  1        1 0.24986131E+00 0.74596428E+03</pdfrwt>
<pdfrwt beam="2">  1       -1 0.34617559E+00 0.74596428E+03</pdfrwt>
<totfact> 0.96176420E-02</totfact>
</mgrwt>
</event>
<event>
 4    5  0.1074803E-007  0.9320465E+03  0.7818608E-02  0.9476430E-01
          1   -1    0    0  501    0  0.00000000000E+00  0.00000000000E+00  0.86603782005E+03  0.86603782006E+03  0.50400000000E-02 0. -1.
         -1   -1    0    0    0  501 -0.00000000000E+00 -0.00000000000E+00 -0.81141835491E+03  0.81141835493E+03  0.50400000000E-02 0.  1.
    8880023    1    1    2    0    0 -0.65466527005E+03  0.79459964769E+02 -0.20163293498E+03  0.95360712484E+03  0.65864270000E+03 0.  0.
    8880022    1    1    2    0    0  0.65466527005E+03 -0.79459964769E+02  0.25625240012E+03  0.72384905015E+03  0.15294330000E+03 0.  0.
<mgrwt>
<rscale>  0 0.86044080E+03</rscale>
<asrwt>0</asrwt>
<pdfrwt beam="1">  1        1 0.13323659E+00 0.93204652E+03</pdfrwt>
<pdfrwt beam="2">  1       -1 0.12483359E+00 0.93204652E+03</pdfrwt>
<totfact> 0.11001462E+01</totfact>
</mgrwt>
</event>
<event>
 4    5  0.1074803E-007  0.7995934E+03  0.7818608E-02  0.9711676E-01
          1   -1    0    0  501    0  0.00000000000E+00  0.00000000000E+00  0.56142852517E+03  0.56142852519E+03  0.50400000000E-02 0. -1.
         -1   -1    0    0    0  501 -0.00000000000E+00 -0.00000000000E+00 -0.13842255483E+04  0.13842255483E+04  0.50400000000E-02 0.  1.
    8880023    1    1    2    0    0  0.45092657063E+03 -0.46953966894E+02  0.19322437612E+03  0.82260884562E+03  0.65864270000E+03 0. -1.
    8880022    1    1    2    0    0 -0.45092657063E+03  0.46953966894E+02 -0.10160213992E+04  0.11230452278E+04  0.15294330000E+03 0.  0.
<mgrwt>
<rscale>  0 0.70325854E+03</rscale>
<asrwt>0</asrwt>
<pdfrwt beam="1">  1        1 0.86373620E-01 0.79959343E+03</pdfrwt>
<pdfrwt beam="2">  1       -1 0.21295778E+00 0.79959343E+03</pdfrwt>
<totfact> 0.47630053E+00</totfact>
</mgrwt>
</event>
<event>
 4    5  0.1074803E-007  0.7675839E+03  0.7818608E-02  0.9785855E-01
          1   -1    0    0  501    0  0.00000000000E+00  0.00000000000E+00  0.27143808605E+04  0.27143808605E+04  0.50400000000E-02 0. -1.
         -1   -1    0    0    0  501 -0.00000000000E+00 -0.00000000000E+00 -0.49457561606E+03  0.49457561609E+03  0.50400000000E-02 0.  1.
    8880023    1    1    2    0    0 -0.13065055709E+03 -0.37189426477E+03  0.25560061032E+04  0.26687735607E+04  0.65864270000E+03 0. -1.
    8880022    1    1    2    0    0  0.13065055709E+03  0.37189426477E+03 -0.33620085875E+03  0.54018291594E+03  0.15294330000E+03 0.  0.
<mgrwt>
<rscale>  0 0.66127210E+03</rscale>
<asrwt>0</asrwt>
<pdfrwt beam="1">  1        1 0.41759704E+00 0.76758395E+03</pdfrwt>
<pdfrwt beam="2">  1       -1 0.76088560E-01 0.76758395E+03</pdfrwt>
<totfact> 0.17716030E+00</totfact>
</mgrwt>
</event>
<event>
 4    5  0.1074803E-007  0.6823537E+03  0.7818608E-02  0.1008022E+00
         -1   -1    0    0    0  501 -0.00000000000E+00  0.00000000000E+00  0.51800009600E+03  0.51800009603E+03  0.50400000000E-02 0.  1.
          1   -1    0    0  501    0  0.00000000000E+00 -0.00000000000E+00 -0.11240553246E+04  0.11240553246E+04  0.50400000000E-02 0. -1.
    8880023    1    1    2    0    0  0.14679175623E+03 -0.10123533238E+03 -0.98376625357E+03  0.11972479527E+04  0.65864270000E+03 0. -1.
    8880022    1    1    2    0    0 -0.14679175623E+03  0.10123533238E+03  0.37771102494E+03  0.44480746801E+03  0.15294330000E+03 0.  0.
<mgrwt>
<rscale>  0 0.52268234E+03</rscale>
<asrwt>0</asrwt>
<pdfrwt beam="1">  1        1 0.17293159E+00 0.68235373E+03</pdfrwt>
<pdfrwt beam="2">  1       -1 0.79692323E-01 0.68235373E+03</pdfrwt>
<totfact> 0.19884465E+01</totfact>
</mgrwt>
</event>
<event>
 4    5  0.1074803E-007  0.7977098E+03  0.7818608E-02  0.9715770E-01
          1   -1    0    0  501    0  0.00000000000E+00  0.00000000000E+00  0.68621503835E+03  0.68621503837E+03  0.50400000000E-02 0. -1.
         -1   -1    0    0    0  501 -0.00000000000E+00 -0.00000000000E+00 -0.82737381603E+03  0.82737381605E+03  0.50400000000E-02 0.  1.
    8880023    1    1    2    0    0  0.44812116409E+03 -0.41451256485E+02  0.31230265226E+03  0.85666442510E+03  0.65864270000E+03 0. -1.
    8880022    1    1    2    0    0 -0.44812116409E+03  0.41451256485E+02 -0.45346142995E+03  0.65692442931E+03  0.15294330000E+03 0.  0.
<mgrwt>
<rscale>  0 0.70085574E+03</rscale>
<asrwt>0</asrwt>
<pdfrwt beam="1">  1        1 0.10557154E+00 0.79770984E+03</pdfrwt>
<pdfrwt beam="2">  1       -1 0.12728828E+00 0.79770984E+03</pdfrwt>
<totfact> 0.15355923E+01</totfact>
</mgrwt>
</event>
<event>
 4    5  0.1074803E-007  0.7084821E+03  0.7818608E-02  0.9963681E-01
          1   -1    0    0  501    0  0.00000000000E+00  0.00000000000E+00  0.25145765292E+04  0.25145765292E+04  0.50400000000E-02 0. -1.
         -1   -1    0    0    0  501 -0.00000000000E+00 -0.00000000000E+00 -0.13513926159E+03  0.13513926168E+03  0.50400000000E-02 0.  1.
    8880023    1    1    2    0    0 -0.18483748490E+03  0.18431449280E+03  0.21674430704E+04  0.22802974362E+04  0.65864270000E+03 0. -1.
    8880022    1    1    2    0    0  0.18483748490E+03 -0.18431449280E+03  0.21199419723E+03  0.36941835466E+03  0.15294330000E+03 0.  0.
<mgrwt>
<rscale>  0 0.57271842E+03</rscale>
<asrwt>0</asrwt>
<pdfrwt beam="1">  1        1 0.38685795E+00 0.70848213E+03</pdfrwt>
<pdfrwt beam="2">  1       -1 0.20790655E-01 0.70848213E+03</pdfrwt>
<totfact> 0.26685800E+01</totfact>
</mgrwt>
</event>
<event>
 4    5  0.1074803E-007  0.7779134E+03  0.7818608E-02  0.9760762E-01
          1   -1    0    0  501    0  0.00000000000E+00  0.00000000000E+00  0.98792424776E+03  0.98792424777E+03  0.50400000000E-02 0. -1.
         -1   -1    0    0    0  501 -0.00000000000E+00 -0.00000000000E+00 -0.54154690310E+03  0.54154690312E+03  0.50400000000E-02 0.  1.
    8880023    1    1    2    0    0 -0.14345850687E+03  0.38827653439E+03  0.67727432486E+03  0.10314309127E+04  0.65864270000E+03 0. -1.
    8880022    1    1    2    0    0  0.14345850687E+03 -0.38827653439E+03 -0.23089698020E+03  0.49804023816E+03  0.15294330000E+03 0.  0.
<mgrwt>
<rscale>  0 0.67511494E+03</rscale>
<asrwt>0</asrwt>
<pdfrwt beam="1">  1        1 0.15198835E+00 0.77791337E+03</pdfrwt>
<pdfrwt beam="2">  1       -1 0.83314908E-01 0.77791337E+03</pdfrwt>
<totfact> 0.22665985E+01</totfact>
</mgrwt>
</event>
<event>
 4    5  0.1074803E-007  0.6752833E+03  0.7818608E-02  0.1012128E+00
         -1   -1    0    0    0  501 -0.00000000000E+00  0.00000000000E+00  0.67669587988E+03  0.67669587990E+03  0.50400000000E-02 0.  1.
          1   -1    0    0  501    0  0.00000000000E+00 -0.00000000000E+00 -0.59148657992E+03  0.59148657994E+03  0.50400000000E-02 0. -1.
    8880023    1    1    2    0    0 -0.94831466413E+02 -0.11491018992E+03 -0.36666149430E+03  0.76840628344E+03  0.65864270000E+03 0. -1.
    8880022    1    1    2    0    0  0.94831466413E+02  0.11491018992E+03  0.45187079426E+03  0.49977617640E+03  0.15294330000E+03 0.  0.
<mgrwt>
<rscale>  0 0.50637475E+03</rscale>
<asrwt>0</asrwt>
<pdfrwt beam="1">  1        1 0.90997935E-01 0.67528332E+03</pdfrwt>
<pdfrwt beam="2">  1       -1 0.10410706E+00 0.67528332E+03</pdfrwt>
<totfact> 0.31339912E+01</totfact>
</mgrwt>
</event>
<event>
 4    5  0.1074803E-007  0.1165359E+04  0.7818608E-02  0.9191554E-01
         -1   -1    0    0    0  501 -0.00000000000E+00  0.00000000000E+00  0.77213355433E+03  0.77213355434E+03  0.50400000000E-02 0.  1.
          1   -1    0    0  501    0  0.00000000000E+00 -0.00000000000E+00 -0.30032639510E+04  0.30032639510E+04  0.50400000000E-02 0. -1.
    8880023    1    1    2    0    0  0.38922715756E+03  0.87906360914E+03 -0.25061319529E+04  0.27638303459E+04  0.65864270000E+03 0.  0.
    8880022    1    1    2    0    0 -0.38922715756E+03 -0.87906360914E+03  0.27500155627E+03  0.10115671594E+04  0.15294330000E+03 0.  0.
<mgrwt>
<rscale>  0 0.11141028E+04</rscale>
<asrwt>0</asrwt>
<pdfrwt beam="1">  1        1 0.46204060E+00 0.11653587E+04</pdfrwt>
<pdfrwt beam="2">  1       -1 0.11878978E+00 0.11653587E+04</pdfrwt>
<totfact> 0.37725895E-01</totfact>
</mgrwt>
</event>
<event>
 4    5  0.1074803E-007  0.7476393E+03  0.7818608E-02  0.9838228E-01
         -1   -1    0    0    0  501 -0.00000000000E+00  0.00000000000E+00  0.11170791719E+04  0.11170791719E+04  0.50400000000E-02 0.  1.
          1   -1    0    0  501    0  0.00000000000E+00 -0.00000000000E+00 -0.35355641311E+03  0.35355641315E+03  0.50400000000E-02 0. -1.
    8880023    1    1    2    0    0 -0.35361168519E+03 -0.10632071129E+02  0.17616263573E+03  0.76811310712E+03  0.65864270000E+03 0.  0.
    8880022    1    1    2    0    0  0.35361168519E+03  0.10632071129E+02  0.58736012309E+03  0.70252247797E+03  0.15294330000E+03 0.  0.
<mgrwt>
<rscale>  0 0.63350736E+03</rscale>
<asrwt>0</asrwt>
<pdfrwt beam="1">  1        1 0.54393295E-01 0.74763927E+03</pdfrwt>
<pdfrwt beam="2">  1       -1 0.17185833E+00 0.74763927E+03</pdfrwt>
<totfact> 0.17308654E+01</totfact>
</mgrwt>
</event>
<event>
 4    5  0.1074803E-007  0.9969717E+03  0.7818608E-02  0.9385530E-01
         -1   -1    0    0    0  501 -0.00000000000E+00  0.00000000000E+00  0.19425625146E+04  0.19425625146E+04  0.50400000000E-02 0.  1.
          1   -1    0    0  501    0  0.00000000000E+00 -0.00000000000E+00 -0.14970232807E+04  0.14970232807E+04  0.50400000000E-02 0. -1.
    8880023    1    1    2    0    0  0.63532937108E+03  0.39559950521E+03 -0.12387806263E+04  0.15901352221E+04  0.65864270000E+03 0.  0.
    8880022    1    1    2    0    0 -0.63532937108E+03 -0.39559950521E+03  0.16843198602E+04  0.18494505732E+04  0.15294330000E+03 0.  0.
<mgrwt>
<rscale>  0 0.93276104E+03</rscale>
<asrwt>0</asrwt>
<pdfrwt beam="1">  1        1 0.23031128E+00 0.99697171E+03</pdfrwt>
<pdfrwt beam="2">  1       -1 0.29885577E+00 0.99697171E+03</pdfrwt>
<totfact> 0.22466691E-01</totfact>
</mgrwt>
</event>
<event>
 4    5  0.1074803E-007  0.6874643E+03  0.7818608E-02  0.1005382E+00
         -1   -1    0    0    0  501 -0.00000000000E+00  0.00000000000E+00  0.38792786488E+03  0.38792786491E+03  0.50400000000E-02 0.  1.
          1   -1    0    0  501    0  0.00000000000E+00 -0.00000000000E+00 -0.18658566266E+04  0.18658566266E+04  0.50400000000E-02 0. -1.
    8880023    1    1    2    0    0  0.21781965346E+02  0.19576138027E+03 -0.17527119477E+04  0.18827124980E+04  0.65864270000E+03 0. -1.
    8880022    1    1    2    0    0 -0.21781965346E+02 -0.19576138027E+03  0.27478318605E+03  0.37107199352E+03  0.15294330000E+03 0.  0.
<mgrwt>
<rscale>  0 0.53352096E+03</rscale>
<asrwt>0</asrwt>
<pdfrwt beam="1">  1        1 0.28705486E+00 0.68746431E+03</pdfrwt>
<pdfrwt beam="2">  1       -1 0.59681211E-01 0.68746431E+03</pdfrwt>
<totfact> 0.11023943E+01</totfact>
</mgrwt>
</event>
<event>
 4    5  0.1074803E-007  0.9025711E+03  0.7818608E-02  0.9521917E-01
         -1   -1    0    0    0  501 -0.00000000000E+00  0.00000000000E+00  0.13528970232E+04  0.13528970232E+04  0.50400000000E-02 0.  1.
          1   -1    0    0  501    0  0.00000000000E+00 -0.00000000000E+00 -0.11016981143E+04  0.11016981143E+04  0.50400000000E-02 0. -1.
    8880023    1    1    2    0    0 -0.11489374296E+03 -0.60631982963E+03 -0.81313067718E+03  0.12148316807E+04  0.65864270000E+03 0. -1.
    8880022    1    1    2    0    0  0.11489374296E+03  0.60631982963E+03  0.10643295861E+04  0.12397634568E+04  0.15294330000E+03 0.  0.
<mgrwt>
<rscale>  0 0.82687095E+03</rscale>
<asrwt>0</asrwt>
<pdfrwt beam="1">  1        1 0.16949202E+00 0.90257106E+03</pdfrwt>
<pdfrwt beam="2">  1       -1 0.20813800E+00 0.90257106E+03</pdfrwt>
<totfact> 0.17055770E+00</totfact>
</mgrwt>
</event>
<event>
 4    5  0.1074803E-007  0.1194084E+04  0.7818608E-02  0.9162894E-01
          1   -1    0    0  501    0  0.00000000000E+00  0.00000000000E+00  0.18028464930E+04  0.18028464930E+04  0.50400000000E-02 0. -1.
         -1   -1    0    0    0  501 -0.00000000000E+00 -0.00000000000E+00 -0.73819798464E+03  0.73819798466E+03  0.50400000000E-02 0.  1.
    8880023    1    1    2    0    0  0.61436642989E+03 -0.78395220756E+03  0.95190745218E+03  0.15270773319E+04  0.65864270000E+03 0.  0.
    8880022    1    1    2    0    0 -0.61436642989E+03  0.78395220756E+03  0.11274105621E+03  0.10139671458E+04  0.15294330000E+03 0.  0.
<mgrwt>
<rscale>  0 0.11444766E+04</rscale>
<asrwt>0</asrwt>
<pdfrwt beam="1">  1        1 0.27736099E+00 0.11940843E+04</pdfrwt>
<pdfrwt beam="2">  1       -1 0.11356892E+00 0.11940843E+04</pdfrwt>
<totfact> 0.28251030E+00</totfact>
</mgrwt>
</event>
<event>
 4    5  0.1074803E-007  0.1168171E+04  0.7818608E-02  0.9188701E-01
         -1   -1    0    0    0  501 -0.00000000000E+00  0.00000000000E+00  0.16208675744E+04  0.16208675745E+04  0.50400000000E-02 0.  1.
          1   -1    0    0  501    0  0.00000000000E+00 -0.00000000000E+00 -0.11999767367E+04  0.11999767367E+04  0.50400000000E-02 0. -1.
    8880023    1    1    2    0    0  0.94158974858E+03  0.21029064021E+03 -0.67790428163E+03  0.13506212753E+04  0.65864270000E+03 0.  0.
    8880022    1    1    2    0    0 -0.94158974858E+03 -0.21029064021E+03  0.10987951193E+04  0.14702230359E+04  0.15294330000E+03 0.  0.
<mgrwt>
<rscale>  0 0.11170820E+04</rscale>
<asrwt>0</asrwt>
<pdfrwt beam="1">  1        1 0.18461181E+00 0.11681711E+04</pdfrwt>
<pdfrwt beam="2">  1       -1 0.24936424E+00 0.11681711E+04</pdfrwt>
<totfact> 0.74115078E-01</totfact>
</mgrwt>
</event>
<event>
 4    5  0.1074803E-007  0.1127230E+04  0.7818608E-02  0.9231328E-01
          1   -1    0    0  501    0  0.00000000000E+00  0.00000000000E+00  0.13591092286E+04  0.13591092286E+04  0.50400000000E-02 0. -1.
         -1   -1    0    0    0  501 -0.00000000000E+00 -0.00000000000E+00 -0.84288466124E+03  0.84288466126E+03  0.50400000000E-02 0.  1.
    8880023    1    1    2    0    0 -0.83332547289E+02 -0.91098476997E+03  0.58866898027E+03  0.12716835059E+04  0.65864270000E+03 0. -1.
    8880022    1    1    2    0    0  0.83332547289E+02  0.91098476997E+03 -0.72444412911E+02  0.93031038398E+03  0.15294330000E+03 0.  0.
<mgrwt>
<rscale>  0 0.10735845E+04</rscale>
<asrwt>0</asrwt>
<pdfrwt beam="1">  1        1 0.20909373E+00 0.11272301E+04</pdfrwt>
<pdfrwt beam="2">  1       -1 0.12967456E+00 0.11272301E+04</pdfrwt>
<totfact> 0.41471240E+00</totfact>
</mgrwt>
</event>
<event>
 4    5  0.1074803E-007  0.7013459E+03  0.7818608E-02  0.9991663E-01
         -1   -1    0    0    0  501 -0.00000000000E+00  0.00000000000E+00  0.65956418729E+03  0.65956418731E+03  0.50400000000E-02 0.  1.
          1   -1    0    0  501    0  0.00000000000E+00 -0.00000000000E+00 -0.10482315273E+04  0.10482315273E+04  0.50400000000E-02 0. -1.
    8880023    1    1    2    0    0 -0.19884765611E+03  0.13614514009E+03 -0.88865454777E+03  0.11320746446E+04  0.65864270000E+03 0. -1.
    8880022    1    1    2    0    0  0.19884765611E+03 -0.13614514009E+03  0.49998720775E+03  0.57572106999E+03  0.15294330000E+03 0.  0.
<mgrwt>
<rscale>  0 0.56017314E+03</rscale>
<asrwt>0</asrwt>
<pdfrwt beam="1">  1        1 0.16126639E+00 0.70134592E+03</pdfrwt>
<pdfrwt beam="2">  1       -1 0.10147141E+00 0.70134592E+03</pdfrwt>
<totfact> 0.13287665E+01</totfact>
</mgrwt>
</event>
<event>
 4    5  0.1074803E-007  0.1020891E+04  0.7818608E-02  0.9354722E-01
          1   -1    0    0  501    0  0.00000000000E+00  0.00000000000E+00  0.16698063803E+04  0.16698063803E+04  0.50400000000E-02 0. -1.
         -1   -1    0    0    0  501 -0.00000000000E+00 -0.00000000000E+00 -0.96128618600E+03  0.96128618601E+03  0.50400000000E-02 0.  1.
    8880023    1    1    2    0    0  0.77998041737E+03 -0.62471482599E+01  0.12908427157E+04  0.16457501637E+04  0.65864270000E+03 0.  0.
    8880022    1    1    2    0    0 -0.77998041737E+03  0.62471482599E+01 -0.58232252144E+03  0.98534240259E+03  0.15294330000E+03 0.  0.
<mgrwt>
<rscale>  0 0.95897445E+03</rscale>
<asrwt>0</asrwt>
<pdfrwt beam="1">  1        1 0.25689328E+00 0.10208911E+04</pdfrwt>
<pdfrwt beam="2">  1       -1 0.14789019E+00 0.10208911E+04</pdfrwt>
<totfact> 0.18190674E+00</totfact>
</mgrwt>
</event>
<event>
 4    5  0.1074803E-007  0.9381167E+03  0.7818608E-02  0.9467422E-01
          1   -1    0    0  501    0  0.00000000000E+00  0.00000000000E+00  0.15431475540E+04  0.15431475540E+04  0.50400000000E-02 0. -1.
         -1   -1    0    0    0  501 -0.00000000000E+00 -0.00000000000E+00 -0.81981213359E+03  0.81981213360E+03  0.50400000000E-02 0.  1.
    8880023    1    1    2    0    0 -0.19959596148E+03  0.63750616124E+03  0.12036794920E+04  0.15260757449E+04  0.65864270000E+03 0.  0.
    8880022    1    1    2    0    0  0.19959596148E+03 -0.63750616124E+03 -0.48034407158E+03  0.83688394271E+03  0.15294330000E+03 0.  0.
<mgrwt>
<rscale>  0 0.86728886E+03</rscale>
<asrwt>0</asrwt>
<pdfrwt beam="1">  1        1 0.23740732E+00 0.93811666E+03</pdfrwt>
<pdfrwt beam="2">  1       -1 0.12612494E+00 0.93811666E+03</pdfrwt>
<totfact> 0.33894739E+00</totfact>
</mgrwt>
</event>
<event>
 4    5  0.1074803E-007  0.1048315E+04  0.7818608E-02  0.9320910E-01
          1   -1    0    0  501    0  0.00000000000E+00  0.00000000000E+00  0.12101603746E+04  0.12101603746E+04  0.50400000000E-02 0. -1.
         -1   -1    0    0    0  501 -0.00000000000E+00 -0.00000000000E+00 -0.10306215823E+04  0.10306215823E+04  0.50400000000E-02 0.  1.
    8880023    1    1    2    0    0  0.29116300244E+03 -0.76182524604E+03  0.70067922961E+03  0.12609183909E+04  0.65864270000E+03 0.  0.
    8880022    1    1    2    0    0 -0.29116300244E+03  0.76182524604E+03 -0.52114043728E+03  0.97986356595E+03  0.15294330000E+03 0.  0.
<mgrwt>
<rscale>  0 0.98880427E+03</rscale>
<asrwt>0</asrwt>
<pdfrwt beam="1">  1        1 0.18617852E+00 0.10483147E+04</pdfrwt>
<pdfrwt beam="2">  1       -1 0.15855717E+00 0.10483147E+04</pdfrwt>
<totfact> 0.31408154E+00</totfact>
</mgrwt>
</event>
<event>
 4    5  0.1074803E-007  0.7780659E+03  0.7818608E-02  0.9760400E-01
          1   -1    0    0  501    0  0.00000000000E+00  0.00000000000E+00  0.16164319949E+04  0.16164319950E+04  0.50400000000E-02 0. -1.
         -1   -1    0    0    0  501 -0.00000000000E+00 -0.00000000000E+00 -0.41614014720E+03  0.41614014723E+03  0.50400000000E-02 0.  1.
    8880023    1    1    2    0    0  0.22304039976E+03  0.34904047827E+03  0.13568339202E+04  0.15640923146E+04  0.65864270000E+03 0. -1.
    8880022    1    1    2    0    0 -0.22304039976E+03 -0.34904047827E+03 -0.15654207244E+03  0.46847982758E+03  0.15294330000E+03 0.  0.
<mgrwt>
<rscale>  0 0.67531698E+03</rscale>
<asrwt>0</asrwt>
<pdfrwt beam="1">  1        1 0.24868184E+00 0.77806586E+03</pdfrwt>
<pdfrwt beam="2">  1       -1 0.64021563E-01 0.77806586E+03</pdfrwt>
<totfact> 0.13911951E+01</totfact>
</mgrwt>
</event>
<event>
 4    5  0.1074803E-007  0.1412151E+04  0.7818608E-02  0.8974298E-01
          1   -1    0    0  501    0  0.00000000000E+00  0.00000000000E+00  0.17210294527E+04  0.17210294527E+04  0.50400000000E-02 0. -1.
         -1   -1    0    0    0  501 -0.00000000000E+00 -0.00000000000E+00 -0.10730308192E+04  0.10730308192E+04  0.50400000000E-02 0.  1.
    8880023    1    1    2    0    0 -0.10639025759E+03 -0.12446046217E+04  0.83031475989E+02  0.14145896874E+04  0.65864270000E+03 0.  0.
    8880022    1    1    2    0    0  0.10639025759E+03  0.12446046217E+04  0.56496715749E+03  0.13794705845E+04  0.15294330000E+03 0.  0.
<mgrwt>
<rscale>  0 0.13720555E+04</rscale>
<asrwt>0</asrwt>
<pdfrwt beam="1">  1        1 0.26477376E+00 0.14121508E+04</pdfrwt>
<pdfrwt beam="2">  1       -1 0.16508167E+00 0.14121508E+04</pdfrwt>
<totfact> 0.11817674E+00</totfact>
</mgrwt>
</event>
<event>
 4    5  0.1074803E-007  0.1204119E+04  0.7818608E-02  0.9153129E-01
          1   -1    0    0  501    0  0.00000000000E+00  0.00000000000E+00  0.12012019815E+04  0.12012019815E+04  0.50400000000E-02 0. -1.
         -1   -1    0    0    0  501 -0.00000000000E+00 -0.00000000000E+00 -0.18032900229E+04  0.18032900229E+04  0.50400000000E-02 0.  1.
    8880023    1    1    2    0    0  0.30756452436E+03 -0.95994548285E+03  0.66705961745E+03  0.13765427731E+04  0.65864270000E+03 0.  0.
    8880022    1    1    2    0    0 -0.30756452436E+03  0.95994548285E+03 -0.12691476588E+04  0.16279492313E+04  0.15294330000E+03 0.  0.
<mgrwt>
<rscale>  0 0.11550588E+04</rscale>
<asrwt>0</asrwt>
<pdfrwt beam="1">  1        1 0.18480030E+00 0.12041185E+04</pdfrwt>
<pdfrwt beam="2">  1       -1 0.27742923E+00 0.12041185E+04</pdfrwt>
<totfact> 0.48442551E-01</totfact>
</mgrwt>
</event>
<event>
 4    5  0.1074803E-007  0.6797026E+03  0.7818608E-02  0.1009492E+00
          1   -1    0    0  501    0  0.00000000000E+00  0.00000000000E+00  0.13961578966E+04  0.13961578966E+04  0.50400000000E-02 0. -1.
         -1   -1    0    0    0  501 -0.00000000000E+00 -0.00000000000E+00 -0.78150177821E+03  0.78150177823E+03  0.50400000000E-02 0.  1.
    8880023    1    1    2    0    0  0.34705475748E+00 -0.16788472952E+03  0.12938398398E+04  0.14615119364E+04  0.65864270000E+03 0. -1.
    8880022    1    1    2    0    0 -0.34705475748E+00  0.16788472952E+03 -0.67918372142E+03  0.71614773846E+03  0.15294330000E+03 0.  0.
<mgrwt>
<rscale>  0 0.51676877E+03</rscale>
<asrwt>0</asrwt>
<pdfrwt beam="1">  1        1 0.21479352E+00 0.67970259E+03</pdfrwt>
<pdfrwt beam="2">  1       -1 0.12023104E+00 0.67970259E+03</pdfrwt>
<totfact> 0.50175391E+00</totfact>
</mgrwt>
</event>
<event>
 4    5  0.1074803E-007  0.6677248E+03  0.7818608E-02  0.1017349E+00
          1   -1    0    0  501    0  0.00000000000E+00  0.00000000000E+00  0.89604281859E+03  0.89604281860E+03  0.50400000000E-02 0. -1.
         -1   -1    0    0    0  501 -0.00000000000E+00 -0.00000000000E+00 -0.22554540965E+04  0.22554540965E+04  0.50400000000E-02 0.  1.
    8880023    1    1    2    0    0 -0.84103711551E+02 -0.70518263534E+02  0.76690840046E+03  0.10168603448E+04  0.65864270000E+03 0. -1.
    8880022    1    1    2    0    0  0.84103711551E+02  0.70518263534E+02 -0.21263196783E+04  0.21346365703E+04  0.15294330000E+03 0.  0.
<mgrwt>
<rscale>  0 0.48655470E+03</rscale>
<asrwt>0</asrwt>
<pdfrwt beam="1">  1        1 0.13785274E+00 0.66772484E+03</pdfrwt>
<pdfrwt beam="2">  1       -1 0.34699294E+00 0.66772484E+03</pdfrwt>
<totfact> 0.32578732E-01</totfact>
</mgrwt>
</event>
<event>
 4    5  0.1074803E-007  0.8513982E+03  0.7818608E-02  0.9609051E-01
         -1   -1    0    0    0  501 -0.00000000000E+00  0.00000000000E+00  0.13243869037E+04  0.13243869037E+04  0.50400000000E-02 0.  1.
          1   -1    0    0  501    0  0.00000000000E+00 -0.00000000000E+00 -0.12028497503E+04  0.12028497503E+04  0.50400000000E-02 0. -1.
    8880023    1    1    2    0    0  0.20343640147E+03 -0.49968220841E+03 -0.97574086338E+03  0.12949707014E+04  0.65864270000E+03 0.  0.
    8880022    1    1    2    0    0 -0.20343640147E+03  0.49968220841E+03  0.10972780167E+04  0.12322659526E+04  0.15294330000E+03 0.  0.
<mgrwt>
<rscale>  0 0.76699985E+03</rscale>
<asrwt>0</asrwt>
<pdfrwt beam="1">  1        1 0.18505381E+00 0.85139819E+03</pdfrwt>
<pdfrwt beam="2">  1       -1 0.20375183E+00 0.85139819E+03</pdfrwt>
<totfact> 0.15508705E+00</totfact>
</mgrwt>
</event>
<event>
 4    5  0.1074803E-007  0.7444140E+03  0.7818608E-02  0.9847271E-01
         -1   -1    0    0    0  501 -0.00000000000E+00  0.00000000000E+00  0.12288116159E+04  0.12288116159E+04  0.50400000000E-02 0.  1.
          1   -1    0    0  501    0  0.00000000000E+00 -0.00000000000E+00 -0.67053353401E+03  0.67053353403E+03  0.50400000000E-02 0. -1.
    8880023    1    1    2    0    0 -0.34413407610E+03 -0.43746625930E+02 -0.41680054784E+03  0.85315586651E+03  0.65864270000E+03 0.  0.
    8880022    1    1    2    0    0  0.34413407610E+03  0.43746625930E+02  0.97507862974E+03  0.10461892835E+04  0.15294330000E+03 0.  0.
<mgrwt>
<rscale>  0 0.62886254E+03</rscale>
<asrwt>0</asrwt>
<pdfrwt beam="1">  1        1 0.10315901E+00 0.74441402E+03</pdfrwt>
<pdfrwt beam="2">  1       -1 0.18904794E+00 0.74441402E+03</pdfrwt>
<totfact> 0.54059222E+00</totfact>
</mgrwt>
</event>
<event>
 4    5  0.1074803E-007  0.1161732E+04  0.7818608E-02  0.9195250E-01
          1   -1    0    0  501    0  0.00000000000E+00  0.00000000000E+00  0.21001584731E+04  0.21001584731E+04  0.50400000000E-02 0. -1.
         -1   -1    0    0    0  501 -0.00000000000E+00 -0.00000000000E+00 -0.55816300038E+03  0.55816300040E+03  0.50400000000E-02 0.  1.
    8880023    1    1    2    0    0 -0.72263558343E+03  0.62738284671E+03  0.60298272059E+03  0.13088964017E+04  0.65864270000E+03 0. -1.
    8880022    1    1    2    0    0  0.72263558343E+03 -0.62738284671E+03  0.93901275215E+03  0.13494250718E+04  0.15294330000E+03 0.  1.
<mgrwt>
<rscale>  0 0.11102594E+04</rscale>
<asrwt>0</asrwt>
<pdfrwt beam="1">  1        1 0.32310130E+00 0.11617322E+04</pdfrwt>
<pdfrwt beam="2">  1       -1 0.85871232E-01 0.11617322E+04</pdfrwt>
<totfact> 0.33857712E+00</totfact>
</mgrwt>
</event>
<event>
 4    5  0.1074803E-007  0.6906452E+03  0.7818608E-02  0.1003847E+00
          1   -1    0    0  501    0  0.00000000000E+00  0.00000000000E+00  0.17684374003E+04  0.17684374003E+04  0.50400000000E-02 0. -1.
         -1   -1    0    0    0  501 -0.00000000000E+00 -0.00000000000E+00 -0.36268673615E+03  0.36268673619E+03  0.50400000000E-02 0.  1.
    8880023    1    1    2    0    0 -0.34772548081E+02  0.20486944830E+03  0.16419698662E+04  0.17813073482E+04  0.65864270000E+03 0. -1.
    8880022    1    1    2    0    0  0.34772548081E+02 -0.20486944830E+03 -0.23621920205E+03  0.34981678830E+03  0.15294330000E+03 0.  0.
<mgrwt>
<rscale>  0 0.53994924E+03</rscale>
<asrwt>0</asrwt>
<pdfrwt beam="1">  1        1 0.27206730E+00 0.69064523E+03</pdfrwt>
<pdfrwt beam="2">  1       -1 0.55797959E-01 0.69064523E+03</pdfrwt>
<totfact> 0.14594470E+01</totfact>
</mgrwt>
</event>
<event>
 4    5  0.1074803E-007  0.1060713E+04  0.7818608E-02  0.9306113E-01
         -1   -1    0    0    0  501 -0.00000000000E+00  0.00000000000E+00  0.11850427562E+04  0.11850427563E+04  0.50400000000E-02 0.  1.
          1   -1    0    0  501    0  0.00000000000E+00 -0.00000000000E+00 -0.14458407832E+04  0.14458407832E+04  0.50400000000E-02 0. -1.
    8880023    1    1    2    0    0 -0.72921976449E+03 -0.39942410385E+03 -0.10368519239E+04  0.14832980813E+04  0.65864270000E+03 0. -1.
    8880022    1    1    2    0    0  0.72921976449E+03  0.39942410385E+03  0.77605389697E+03  0.11475854581E+04  0.15294330000E+03 0.  0.
<mgrwt>
<rscale>  0 0.10022204E+04</rscale>
<asrwt>0</asrwt>
<pdfrwt beam="1">  1        1 0.22243704E+00 0.10607126E+04</pdfrwt>
<pdfrwt beam="2">  1       -1 0.18231427E+00 0.10607126E+04</pdfrwt>
<totfact> 0.14254706E+00</totfact>
</mgrwt>
</event>
<event>
 4    5  0.1074803E-007  0.8460687E+03  0.7818608E-02  0.9618842E-01
          1   -1    0    0  501    0  0.00000000000E+00  0.00000000000E+00  0.24865369305E+04  0.24865369306E+04  0.50400000000E-02 0. -1.
         -1   -1    0    0    0  501 -0.00000000000E+00 -0.00000000000E+00 -0.22480752001E+03  0.22480752007E+03  0.50400000000E-02 0.  1.
    8880023    1    1    2    0    0  0.49985165300E+03  0.17936081127E+03  0.18084893300E+04  0.19966135927E+04  0.65864270000E+03 0. -1.
    8880022    1    1    2    0    0 -0.49985165300E+03 -0.17936081127E+03  0.45324008054E+03  0.71473085791E+03  0.15294330000E+03 0.  0.
<mgrwt>
<rscale>  0 0.76061565E+03</rscale>
<asrwt>0</asrwt>
<pdfrwt beam="1">  1        1 0.38254414E+00 0.84606866E+03</pdfrwt>
<pdfrwt beam="2">  1       -1 0.34585773E-01 0.84606866E+03</pdfrwt>
<totfact> 0.11379629E+01</totfact>
</mgrwt>
</event>
<event>
 4    5  0.1074803E-007  0.7643753E+03  0.7818608E-02  0.9793909E-01
          1   -1    0    0  501    0  0.00000000000E+00  0.00000000000E+00  0.29911085477E+04  0.29911085477E+04  0.50400000000E-02 0. -1.
         -1   -1    0    0    0  501 -0.00000000000E+00 -0.00000000000E+00 -0.23086815506E+03  0.23086815512E+03  0.50400000000E-02 0.  1.
    8880023    1    1    2    0    0  0.33794937459E+03 -0.19039338061E+03  0.26933199170E+04  0.27996860183E+04  0.65864270000E+03 0. -1.
    8880022    1    1    2    0    0 -0.33794937459E+03  0.19039338061E+03  0.66920475581E+02  0.42229068452E+03  0.15294330000E+03 0.  0.
<mgrwt>
<rscale>  0 0.65690439E+03</rscale>
<asrwt>0</asrwt>
<pdfrwt beam="1">  1        1 0.46017050E+00 0.76437532E+03</pdfrwt>
<pdfrwt beam="2">  1       -1 0.35518181E-01 0.76437532E+03</pdfrwt>
<totfact> 0.48832256E+00</totfact>
</mgrwt>
</event>
<event>
 4    5  0.1074803E-007  0.1167266E+04  0.7818608E-02  0.9189618E-01
         -1   -1    0    0    0  501 -0.00000000000E+00  0.00000000000E+00  0.14064908433E+04  0.14064908434E+04  0.50400000000E-02 0.  1.
          1   -1    0    0  501    0  0.00000000000E+00 -0.00000000000E+00 -0.10115144148E+04  0.10115144149E+04  0.50400000000E-02 0. -1.
    8880023    1    1    2    0    0 -0.71871565080E+03 -0.64198754953E+03 -0.31766724500E+03  0.12097201682E+04  0.65864270000E+03 0.  0.
    8880022    1    1    2    0    0  0.71871565080E+03  0.64198754953E+03  0.71264367350E+03  0.12082850901E+04  0.15294330000E+03 0.  0.
<mgrwt>
<rscale>  0 0.11161236E+04</rscale>
<asrwt>0</asrwt>
<pdfrwt beam="1">  1        1 0.15561760E+00 0.11672662E+04</pdfrwt>
<pdfrwt beam="2">  1       -1 0.21638321E+00 0.11672662E+04</pdfrwt>
<totfact> 0.16986905E+00</totfact>
</mgrwt>
</event>
<event>
 4    5  0.1074803E-007  0.7175447E+03  0.7818608E-02  0.9930983E-01
          1   -1    0    0  501    0  0.00000000000E+00  0.00000000000E+00  0.23678998220E+04  0.23678998220E+04  0.50400000000E-02 0. -1.
         -1   -1    0    0    0  501 -0.00000000000E+00 -0.00000000000E+00 -0.18412550044E+03  0.18412550051E+03  0.50400000000E-02 0.  1.
    8880023    1    1    2    0    0  0.12992754969E+03 -0.25333567722E+03  0.20984843121E+04  0.22177706707E+04  0.65864270000E+03 0. -1.
    8880022    1    1    2    0    0 -0.12992754969E+03  0.25333567722E+03  0.85290009475E+02  0.33425465180E+03  0.15294330000E+03 0.  0.
<mgrwt>
<rscale>  0 0.58782924E+03</rscale>
<asrwt>0</asrwt>
<pdfrwt beam="1">  1        1 0.36429225E+00 0.71754466E+03</pdfrwt>
<pdfrwt beam="2">  1       -1 0.28327002E-01 0.71754466E+03</pdfrwt>
<totfact> 0.19819691E+01</totfact>
</mgrwt>
</event>
<event>
 4    5  0.1074803E-007  0.7951795E+03  0.7818608E-02  0.9721317E-01
         -1   -1    0    0    0  501 -0.00000000000E+00  0.00000000000E+00  0.66812407344E+03  0.66812407346E+03  0.50400000000E-02 0.  1.
          1   -1    0    0  501    0  0.00000000000E+00 -0.00000000000E+00 -0.97976961873E+03  0.97976961874E+03  0.50400000000E-02 0. -1.
    8880023    1    1    2    0    0  0.25522524425E+03 -0.36518531183E+03 -0.68286411490E+03  0.10481478154E+04  0.65864270000E+03 0. -1.
    8880022    1    1    2    0    0 -0.25522524425E+03  0.36518531183E+03  0.37121856962E+03  0.59974587679E+03  0.15294330000E+03 0.  0.
<mgrwt>
<rscale>  0 0.69761621E+03</rscale>
<asrwt>0</asrwt>
<pdfrwt beam="1">  1        1 0.15073379E+00 0.79517950E+03</pdfrwt>
<pdfrwt beam="2">  1       -1 0.10278832E+00 0.79517950E+03</pdfrwt>
<totfact> 0.14388696E+01</totfact>
</mgrwt>
</event>
<event>
 4    5  0.1074803E-007  0.8265169E+03  0.7818608E-02  0.9656148E-01
         -1   -1    0    0    0  501 -0.00000000000E+00  0.00000000000E+00  0.97485483557E+03  0.97485483559E+03  0.50400000000E-02 0.  1.
          1   -1    0    0  501    0  0.00000000000E+00 -0.00000000000E+00 -0.18334801211E+04  0.18334801211E+04  0.50400000000E-02 0. -1.
    8880023    1    1    2    0    0 -0.47854953242E+03  0.14251444777E+03 -0.16585240726E+04  0.18530602603E+04  0.65864270000E+03 0. -1.
    8880022    1    1    2    0    0  0.47854953242E+03 -0.14251444777E+03  0.79989878710E+03  0.95527469632E+03  0.15294330000E+03 0.  0.
<mgrwt>
<rscale>  0 0.73688850E+03</rscale>
<asrwt>0</asrwt>
<pdfrwt beam="1">  1        1 0.28207386E+00 0.82651693E+03</pdfrwt>
<pdfrwt beam="2">  1       -1 0.14997767E+00 0.82651693E+03</pdfrwt>
<totfact> 0.14012127E+00</totfact>
</mgrwt>
</event>
<event>
 4    5  0.1074803E-007  0.7023872E+03  0.7818608E-02  0.9987439E-01
          1   -1    0    0  501    0  0.00000000000E+00  0.00000000000E+00  0.76118390880E+03  0.76118390882E+03  0.50400000000E-02 0. -1.
         -1   -1    0    0    0  501 -0.00000000000E+00 -0.00000000000E+00 -0.51039841340E+03  0.51039841342E+03  0.50400000000E-02 0.  1.
    8880023    1    1    2    0    0 -0.16457354332E+03 -0.18014734678E+03  0.52268637205E+03  0.87552770801E+03  0.65864270000E+03 0. -1.
    8880022    1    1    2    0    0  0.16457354332E+03  0.18014734678E+03 -0.27190087665E+03  0.39605461423E+03  0.15294330000E+03 0.  0.
<mgrwt>
<rscale>  0 0.56204468E+03</rscale>
<asrwt>0</asrwt>
<pdfrwt beam="1">  1        1 0.11710522E+00 0.70238716E+03</pdfrwt>
<pdfrwt beam="2">  1       -1 0.78522832E-01 0.70238716E+03</pdfrwt>
<totfact> 0.39956158E+01</totfact>
</mgrwt>
</event>
<event>
 4    5  0.1074803E-007  0.7742528E+03  0.7818608E-02  0.9769515E-01
         -1   -1    0    0    0  501 -0.00000000000E+00  0.00000000000E+00  0.21727848679E+03  0.21727848685E+03  0.50400000000E-02 0.  1.
          1   -1    0    0  501    0  0.00000000000E+00 -0.00000000000E+00 -0.38016365485E+04  0.38016365485E+04  0.50400000000E-02 0. -1.
    8880023    1    1    2    0    0 -0.12634791598E+03 -0.38690235833E+03 -0.34888788766E+04  0.35737575817E+04  0.65864270000E+03 0. -1.
    8880022    1    1    2    0    0  0.12634791598E+03  0.38690235833E+03 -0.95479185090E+02  0.44515745366E+03  0.15294330000E+03 0.  0.
<mgrwt>
<rscale>  0 0.67024543E+03</rscale>
<asrwt>0</asrwt>
<pdfrwt beam="1">  1        1 0.58486711E+00 0.77425282E+03</pdfrwt>
<pdfrwt beam="2">  1       -1 0.33427462E-01 0.77425282E+03</pdfrwt>
<totfact> 0.13064413E+00</totfact>
</mgrwt>
</event>
<event>
 4    5  0.1074803E-007  0.7151566E+03  0.7818608E-02  0.9939328E-01
         -1   -1    0    0    0  501 -0.00000000000E+00  0.00000000000E+00  0.12158061674E+04  0.12158061674E+04  0.50400000000E-02 0.  1.
          1   -1    0    0  501    0  0.00000000000E+00 -0.00000000000E+00 -0.47887670835E+03  0.47887670837E+03  0.50400000000E-02 0. -1.
    8880023    1    1    2    0    0 -0.62192972420E+02  0.27160787520E+03 -0.16879286138E+03  0.73480612409E+03  0.65864270000E+03 0. -1.
    8880022    1    1    2    0    0  0.62192972420E+02 -0.27160787520E+03  0.90572232044E+03  0.95987675170E+03  0.15294330000E+03 0.  1.
<mgrwt>
<rscale>  0 0.58392547E+03</rscale>
<asrwt>0</asrwt>
<pdfrwt beam="1">  1        1 0.73673339E-01 0.71515663E+03</pdfrwt>
<pdfrwt beam="2">  1       -1 0.18704710E+00 0.71515663E+03</pdfrwt>
<totfact> 0.90364438E+00</totfact>
</mgrwt>
</event>
<event>
 4    5  0.1074803E-007  0.1430388E+04  0.7818608E-02  0.8960423E-01
          1   -1    0    0  501    0  0.00000000000E+00  0.00000000000E+00  0.11658341153E+04  0.11658341153E+04  0.50400000000E-02 0. -1.
         -1   -1    0    0    0  501 -0.00000000000E+00 -0.00000000000E+00 -0.18547985782E+04  0.18547985782E+04  0.50400000000E-02 0.  1.
    8880023    1    1    2    0    0 -0.12511873197E+04 -0.21617369768E+03  0.22600227516E+03  0.14481325945E+04  0.65864270000E+03 0.  0.
    8880022    1    1    2    0    0  0.12511873197E+04  0.21617369768E+03 -0.91496673799E+03  0.15725000990E+04  0.15294330000E+03 0.  0.
<mgrwt>
<rscale>  0 0.13909127E+04</rscale>
<asrwt>0</asrwt>
<pdfrwt beam="1">  1        1 0.17935909E+00 0.14303884E+04</pdfrwt>
<pdfrwt beam="2">  1       -1 0.28535363E+00 0.14303884E+04</pdfrwt>
<totfact> 0.44490465E-01</totfact>
</mgrwt>
</event>
<event>
 4    5  0.1074803E-007  0.6986235E+03  0.7818608E-02  0.1000296E+00
         -1   -1    0    0    0  501 -0.00000000000E+00  0.00000000000E+00  0.53347692672E+03  0.53347692675E+03  0.50400000000E-02 0.  1.
          1   -1    0    0  501    0  0.00000000000E+00 -0.00000000000E+00 -0.47528701626E+03  0.47528701628E+03  0.50400000000E-02 0. -1.
    8880023    1    1    2    0    0 -0.18820186947E+03 -0.13727596035E+03 -0.69812595100E+02  0.70210301072E+03  0.65864270000E+03 0.  0.
    8880022    1    1    2    0    0  0.18820186947E+03  0.13727596035E+03  0.12800250557E+03  0.30666093231E+03  0.15294330000E+03 0. -1.
<mgrwt>
<rscale>  0 0.55520643E+03</rscale>
<asrwt>0</asrwt>
<pdfrwt beam="1">  1        1 0.73121079E-01 0.69862353E+03</pdfrwt>
<pdfrwt beam="2">  1       -1 0.82073373E-01 0.69862353E+03</pdfrwt>
<totfact> 0.71831821E+01</totfact>
</mgrwt>
</event>
<event>
 4    5  0.1074803E-007  0.1216109E+04  0.7818608E-02  0.9141620E-01
         -1   -1    0    0    0  501 -0.00000000000E+00  0.00000000000E+00  0.84799240649E+03  0.84799240651E+03  0.50400000000E-02 0.  1.
          1   -1    0    0  501    0  0.00000000000E+00 -0.00000000000E+00 -0.20193764798E+04  0.20193764798E+04  0.50400000000E-02 0. -1.
    8880023    1    1    2    0    0 -0.79873206653E+03  0.63807414402E+03 -0.13515146506E+04  0.18181071433E+04  0.65864270000E+03 0.  0.
    8880022    1    1    2    0    0  0.79873206653E+03 -0.63807414402E+03  0.18013057737E+03  0.10492617430E+04  0.15294330000E+03 0.  0.
<mgrwt>
<rscale>  0 0.11676869E+04</rscale>
<asrwt>0</asrwt>
<pdfrwt beam="1">  1        1 0.31067330E+00 0.12161093E+04</pdfrwt>
<pdfrwt beam="2">  1       -1 0.13046037E+00 0.12161093E+04</pdfrwt>
<totfact> 0.14271200E+00</totfact>
</mgrwt>
</event>
<event>
 4    5  0.1074803E-007  0.6679180E+03  0.7818608E-02  0.1017202E+00
          1   -1    0    0  501    0  0.00000000000E+00  0.00000000000E+00  0.48915028922E+03  0.48915028924E+03  0.50400000000E-02 0. -1.
         -1   -1    0    0    0  501 -0.00000000000E+00 -0.00000000000E+00 -0.11138913001E+04  0.11138913001E+04  0.50400000000E-02 0.  1.
    8880023    1    1    2    0    0 -0.17692866536E+02 -0.10950413870E+03  0.24619590326E+03  0.71184747170E+03  0.65864270000E+03 0. -1.
    8880022    1    1    2    0    0  0.17692866536E+02  0.10950413870E+03 -0.87093691413E+03  0.89119411764E+03  0.15294330000E+03 0.  0.
<mgrwt>
<rscale>  0 0.48710160E+03</rscale>
<asrwt>0</asrwt>
<pdfrwt beam="1">  1        1 0.75253891E-01 0.66791796E+03</pdfrwt>
<pdfrwt beam="2">  1       -1 0.17136789E+00 0.66791796E+03</pdfrwt>
<totfact> 0.11431654E+01</totfact>
</mgrwt>
</event>
<event>
 4    5  0.1074803E-007  0.8267545E+03  0.7818608E-02  0.9655680E-01
         -1   -1    0    0    0  501 -0.00000000000E+00  0.00000000000E+00  0.49212611649E+03  0.49212611652E+03  0.50400000000E-02 0.  1.
          1   -1    0    0  501    0  0.00000000000E+00 -0.00000000000E+00 -0.10580370594E+04  0.10580370594E+04  0.50400000000E-02 0. -1.
    8880023    1    1    2    0    0 -0.42212429882E+03 -0.26743949447E+03 -0.60744651418E+03  0.10259211864E+04  0.65864270000E+03 0. -1.
    8880022    1    1    2    0    0  0.42212429882E+03  0.26743949447E+03  0.41535571295E+02  0.52424198950E+03  0.15294330000E+03 0.  1.
<mgrwt>
<rscale>  0 0.73717997E+03</rscale>
<asrwt>0</asrwt>
<pdfrwt beam="1">  1        1 0.16277493E+00 0.82675451E+03</pdfrwt>
<pdfrwt beam="2">  1       -1 0.75711711E-01 0.82675451E+03</pdfrwt>
<totfact> 0.24391572E+01</totfact>
</mgrwt>
</event>
<event>
 4    5  0.1074803E-007  0.9598412E+03  0.7818608E-02  0.9436094E-01
         -1   -1    0    0    0  501 -0.00000000000E+00  0.00000000000E+00  0.15177937182E+04  0.15177937182E+04  0.50400000000E-02 0.  1.
          1   -1    0    0  501    0  0.00000000000E+00 -0.00000000000E+00 -0.88539790979E+03  0.88539790980E+03  0.50400000000E-02 0. -1.
    8880023    1    1    2    0    0  0.66900473544E+03 -0.19979363875E+03 -0.48603011285E+03  0.10758811788E+04  0.65864270000E+03 0. -1.
    8880022    1    1    2    0    0 -0.66900473544E+03  0.19979363875E+03  0.11184259213E+04  0.13273104492E+04  0.15294330000E+03 0.  0.
<mgrwt>
<rscale>  0 0.89163891E+03</rscale>
<asrwt>0</asrwt>
<pdfrwt beam="1">  1        1 0.13621507E+00 0.95984115E+03</pdfrwt>
<pdfrwt beam="2">  1       -1 0.23350672E+00 0.95984115E+03</pdfrwt>
<totfact> 0.16940377E+00</totfact>
</mgrwt>
</event>
<event>
 4    5  0.1074803E-007  0.9309606E+03  0.7818608E-02  0.9478054E-01
          1   -1    0    0  501    0  0.00000000000E+00  0.00000000000E+00  0.13085888302E+04  0.13085888302E+04  0.50400000000E-02 0. -1.
         -1   -1    0    0    0  501 -0.00000000000E+00 -0.00000000000E+00 -0.12029574252E+04  0.12029574252E+04  0.50400000000E-02 0.  1.
    8880023    1    1    2    0    0 -0.19067520852E+03  0.62969871148E+03  0.10159535714E+04  0.13779874338E+04  0.65864270000E+03 0. -1.
    8880022    1    1    2    0    0  0.19067520852E+03 -0.62969871148E+03 -0.91032216632E+03  0.11335588215E+04  0.15294330000E+03 0.  0.
<mgrwt>
<rscale>  0 0.85921357E+03</rscale>
<asrwt>0</asrwt>
<pdfrwt beam="1">  1        1 0.20132136E+00 0.93096064E+03</pdfrwt>
<pdfrwt beam="2">  1       -1 0.18507037E+00 0.93096064E+03</pdfrwt>
<totfact> 0.17332743E+00</totfact>
</mgrwt>
</event>
<event>
 4    5  0.1074803E-007  0.9118828E+03  0.7818608E-02  0.9507219E-01
          1   -1    0    0  501    0  0.00000000000E+00  0.00000000000E+00  0.30215165212E+04  0.30215165212E+04  0.50400000000E-02 0. -1.
         -1   -1    0    0    0  501 -0.00000000000E+00 -0.00000000000E+00 -0.54887037241E+03  0.54887037243E+03  0.50400000000E-02 0.  1.
    8880023    1    1    2    0    0 -0.79002997309E+02  0.62568241081E+03  0.27254490620E+04  0.28739524611E+04  0.65864270000E+03 0. -1.
    8880022    1    1    2    0    0  0.79002997309E+02 -0.62568241081E+03 -0.25280291326E+03  0.69643443249E+03  0.15294330000E+03 0.  0.
<mgrwt>
<rscale>  0 0.83753681E+03</rscale>
<asrwt>0</asrwt>
<pdfrwt beam="1">  1        1 0.46484870E+00 0.91188276E+03</pdfrwt>
<pdfrwt beam="2">  1       -1 0.84441595E-01 0.91188276E+03</pdfrwt>
<totfact> 0.83641156E-01</totfact>
</mgrwt>
</event>
<event>
 4    5  0.1074803E-007  0.1640472E+04  0.7818608E-02  0.8816327E-01
          1   -1    0    0  501    0  0.00000000000E+00  0.00000000000E+00  0.42404780179E+04  0.42404780179E+04  0.50400000000E-02 0. -1.
         -1   -1    0    0    0  501 -0.00000000000E+00 -0.00000000000E+00 -0.84228269620E+03  0.84228269621E+03  0.50400000000E-02 0.  1.
    8880023    1    1    2    0    0 -0.11687753240E+04  0.94408761758E+03  0.31509982430E+04  0.35524551118E+04  0.65864270000E+03 0.  0.
    8880022    1    1    2    0    0  0.11687753240E+04 -0.94408761758E+03  0.24719707866E+03  0.15303056023E+04  0.15294330000E+03 0.  0.
<mgrwt>
<rscale>  0 0.16068886E+04</rscale>
<asrwt>0</asrwt>
<pdfrwt beam="1">  1        1 0.65238124E+00 0.16404717E+04</pdfrwt>
<pdfrwt beam="2">  1       -1 0.12958195E+00 0.16404717E+04</pdfrwt>
<totfact> 0.28149364E-02</totfact>
</mgrwt>
</event>
<event>
 4    5  0.1074803E-007  0.7017892E+03  0.7818608E-02  0.9989858E-01
         -1   -1    0    0    0  501 -0.00000000000E+00  0.00000000000E+00  0.63971844631E+03  0.63971844633E+03  0.50400000000E-02 0.  1.
          1   -1    0    0  501    0  0.00000000000E+00 -0.00000000000E+00 -0.43760678215E+03  0.43760678218E+03  0.50400000000E-02 0. -1.
    8880023    1    1    2    0    0  0.62733414674E+02  0.23401377762E+03 -0.38982351874E+02  0.70287108310E+03  0.65864270000E+03 0. -1.
    8880022    1    1    2    0    0 -0.62733414674E+02 -0.23401377762E+03  0.24109401604E+03  0.37445414541E+03  0.15294330000E+03 0.  1.
<mgrwt>
<rscale>  0 0.56097181E+03</rscale>
<asrwt>0</asrwt>
<pdfrwt beam="1">  1        1 0.67324121E-01 0.70178924E+03</pdfrwt>
<pdfrwt beam="2">  1       -1 0.98418222E-01 0.70178924E+03</pdfrwt>
<totfact> 0.53864763E+01</totfact>
</mgrwt>
</event>
<event>
 4    5  0.1074803E-007  0.7568858E+03  0.7818608E-02  0.9813237E-01
          1   -1    0    0  501    0  0.00000000000E+00  0.00000000000E+00  0.93645766222E+03  0.93645766223E+03  0.50400000000E-02 0. -1.
         -1   -1    0    0    0  501 -0.00000000000E+00 -0.00000000000E+00 -0.73009222029E+03  0.73009222031E+03  0.50400000000E-02 0.  1.
    8880023    1    1    2    0    0  0.37079391004E+03 -0.39721871703E+02  0.69883379898E+03  0.10301673824E+04  0.65864270000E+03 0. -1.
    8880022    1    1    2    0    0 -0.37079391004E+03  0.39721871703E+02 -0.49246835706E+03  0.63638250018E+03  0.15294330000E+03 0.  0.
<mgrwt>
<rscale>  0 0.64656961E+03</rscale>
<asrwt>0</asrwt>
<pdfrwt beam="1">  1        1 0.14407041E+00 0.75688583E+03</pdfrwt>
<pdfrwt beam="2">  1       -1 0.11232188E+00 0.75688583E+03</pdfrwt>
<totfact> 0.12711681E+01</totfact>
</mgrwt>
</event>
<event>
 4    5  0.1074803E-007  0.1292063E+04  0.7818608E-02  0.9072444E-01
         -1   -1    0    0    0  501 -0.00000000000E+00  0.00000000000E+00  0.15559760968E+04  0.15559760968E+04  0.50400000000E-02 0.  1.
          1   -1    0    0  501    0  0.00000000000E+00 -0.00000000000E+00 -0.19961499636E+04  0.19961499636E+04  0.50400000000E-02 0. -1.
    8880023    1    1    2    0    0  0.57249332682E+03  0.95282145017E+03 -0.15199475442E+04  0.19949105415E+04  0.65864270000E+03 0. -1.
    8880022    1    1    2    0    0 -0.57249332682E+03 -0.95282145017E+03  0.10797736774E+04  0.15572155190E+04  0.15294330000E+03 0.  0.
<mgrwt>
<rscale>  0 0.12472871E+04</rscale>
<asrwt>0</asrwt>
<pdfrwt beam="1">  1        1 0.30709999E+00 0.12920633E+04</pdfrwt>
<pdfrwt beam="2">  1       -1 0.23938094E+00 0.12920633E+04</pdfrwt>
<totfact> 0.23781572E-01</totfact>
</mgrwt>
</event>
<event>
 4    5  0.1074803E-007  0.7548806E+03  0.7818608E-02  0.9818546E-01
          1   -1    0    0  501    0  0.00000000000E+00  0.00000000000E+00  0.67523558146E+03  0.67523558148E+03  0.50400000000E-02 0. -1.
         -1   -1    0    0    0  501 -0.00000000000E+00 -0.00000000000E+00 -0.62635367718E+03  0.62635367720E+03  0.50400000000E-02 0.  1.
    8880023    1    1    2    0    0 -0.69012284289E+02  0.36231462780E+03  0.31900546672E+03  0.81951771119E+03  0.65864270000E+03 0. -1.
    8880022    1    1    2    0    0  0.69012284289E+02 -0.36231462780E+03 -0.27012356243E+03  0.48207154748E+03  0.15294330000E+03 0.  0.
<mgrwt>
<rscale>  0 0.64376697E+03</rscale>
<asrwt>0</asrwt>
<pdfrwt beam="1">  1        1 0.10388240E+00 0.75488065E+03</pdfrwt>
<pdfrwt beam="2">  1       -1 0.96362105E-01 0.75488065E+03</pdfrwt>
<totfact> 0.30554458E+01</totfact>
</mgrwt>
</event>
<event>
 4    5  0.1074803E-007  0.8149303E+03  0.7818608E-02  0.9679397E-01
          1   -1    0    0  501    0  0.00000000000E+00  0.00000000000E+00  0.18960817554E+04  0.18960817554E+04  0.50400000000E-02 0. -1.
         -1   -1    0    0    0  501 -0.00000000000E+00 -0.00000000000E+00 -0.12230132803E+04  0.12230132803E+04  0.50400000000E-02 0.  1.
    8880023    1    1    2    0    0  0.30096570130E+03 -0.37379259301E+03  0.17498650361E+04  0.19303209854E+04  0.65864270000E+03 0. -1.
    8880022    1    1    2    0    0 -0.30096570130E+03  0.37379259301E+03 -0.10767965610E+04  0.11887740503E+04  0.15294330000E+03 0.  0.
<mgrwt>
<rscale>  0 0.72256830E+03</rscale>
<asrwt>0</asrwt>
<pdfrwt beam="1">  1        1 0.29170489E+00 0.81493034E+03</pdfrwt>
<pdfrwt beam="2">  1       -1 0.18815589E+00 0.81493034E+03</pdfrwt>
<totfact> 0.66739329E-01</totfact>
</mgrwt>
</event>
<event>
 4    5  0.1074803E-007  0.1320669E+04  0.7818608E-02  0.9047914E-01
          1   -1    0    0  501    0  0.00000000000E+00  0.00000000000E+00  0.14148081023E+04  0.14148081023E+04  0.50400000000E-02 0. -1.
         -1   -1    0    0    0  501 -0.00000000000E+00 -0.00000000000E+00 -0.11167445596E+04  0.11167445596E+04  0.50400000000E-02 0.  1.
    8880023    1    1    2    0    0 -0.63549214445E+03  0.95210585730E+03  0.37861000830E+03  0.13738673785E+04  0.65864270000E+03 0.  0.
    8880022    1    1    2    0    0  0.63549214445E+03 -0.95210585730E+03 -0.80546465672E+02  0.11576852834E+04  0.15294330000E+03 0.  0.
<mgrwt>
<rscale>  0 0.12771139E+04</rscale>
<asrwt>0</asrwt>
<pdfrwt beam="1">  1        1 0.21766278E+00 0.13206688E+04</pdfrwt>
<pdfrwt beam="2">  1       -1 0.17180686E+00 0.13206688E+04</pdfrwt>
<totfact> 0.17318155E+00</totfact>
</mgrwt>
</event>
<event>
 4    5  0.1074803E-007  0.1073404E+04  0.7818608E-02  0.9291262E-01
         -1   -1    0    0    0  501 -0.00000000000E+00  0.00000000000E+00  0.12626390627E+04  0.12626390627E+04  0.50400000000E-02 0.  1.
          1   -1    0    0  501    0  0.00000000000E+00 -0.00000000000E+00 -0.97864065201E+03  0.97864065203E+03  0.50400000000E-02 0. -1.
    8880023    1    1    2    0    0  0.59013285668E+03 -0.60838222723E+03 -0.39580318795E+03  0.11440524869E+04  0.65864270000E+03 0.  0.
    8880022    1    1    2    0    0 -0.59013285668E+03  0.60838222723E+03  0.67980159864E+03  0.10972272278E+04  0.15294330000E+03 0.  0.
<mgrwt>
<rscale>  0 0.10159131E+04</rscale>
<asrwt>0</asrwt>
<pdfrwt beam="1">  1        1 0.15056010E+00 0.10734039E+04</pdfrwt>
<pdfrwt beam="2">  1       -1 0.19425216E+00 0.10734039E+04</pdfrwt>
<totfact> 0.25819037E+00</totfact>
</mgrwt>
</event>
<event>
 4    5  0.1074803E-007  0.1031087E+04  0.7818608E-02  0.9341971E-01
          1   -1    0    0  501    0  0.00000000000E+00  0.00000000000E+00  0.95778197925E+03  0.95778197926E+03  0.50400000000E-02 0. -1.
         -1   -1    0    0    0  501 -0.00000000000E+00 -0.00000000000E+00 -0.15360726810E+04  0.15360726810E+04  0.50400000000E-02 0.  1.
    8880023    1    1    2    0    0  0.50963527735E+03 -0.60794837539E+03 -0.11190676362E+04  0.15216609096E+04  0.65864270000E+03 0.  1.
    8880022    1    1    2    0    0 -0.50963527735E+03  0.60794837539E+03  0.54077693445E+03  0.97219375070E+03  0.15294330000E+03 0.  0.
<mgrwt>
<rscale>  0 0.97009061E+03</rscale>
<asrwt>0</asrwt>
<pdfrwt beam="1">  1        1 0.14735107E+00 0.10310866E+04</pdfrwt>
<pdfrwt beam="2">  1       -1 0.23631887E+00 0.10310866E+04</pdfrwt>
<totfact> 0.14043295E+00</totfact>
</mgrwt>
</event>
<event>
 4    5  0.1074803E-007  0.6864493E+03  0.7818608E-02  0.1005888E+00
         -1   -1    0    0    0  501 -0.00000000000E+00  0.00000000000E+00  0.60725979770E+02  0.60725979979E+02  0.50400000000E-02 0.  1.
          1   -1    0    0  501    0  0.00000000000E+00 -0.00000000000E+00 -0.36348295038E+04  0.36348295038E+04  0.50400000000E-02 0. -1.
    8880023    1    1    2    0    0  0.94038845752E+02 -0.16899450081E+03 -0.28112503218E+04  0.28938453697E+04  0.65864270000E+03 0.  0.
    8880022    1    1    2    0    0 -0.94038845752E+02  0.16899450081E+03 -0.76285320230E+03  0.80171011412E+03  0.15294330000E+03 0.  0.
<mgrwt>
<rscale>  0 0.53142139E+03</rscale>
<asrwt>0</asrwt>
<pdfrwt beam="1">  1        1 0.55920437E+00 0.68644931E+03</pdfrwt>
<pdfrwt beam="2">  1       -1 0.93424613E-02 0.68644931E+03</pdfrwt>
<totfact> 0.14961348E+01</totfact>
</mgrwt>
</event>
<event>
 4    5  0.1074803E-007  0.7004214E+03  0.7818608E-02  0.9995458E-01
          1   -1    0    0  501    0  0.00000000000E+00  0.00000000000E+00  0.44889208514E+03  0.44889208517E+03  0.50400000000E-02 0. -1.
         -1   -1    0    0    0  501 -0.00000000000E+00 -0.00000000000E+00 -0.79041883707E+03  0.79041883709E+03  0.50400000000E-02 0.  1.
    8880023    1    1    2    0    0 -0.21789620785E+03  0.96442378206E+02  0.10734252100E+03  0.70859897882E+03  0.65864270000E+03 0. -1.
    8880022    1    1    2    0    0  0.21789620785E+03 -0.96442378206E+02 -0.44886927293E+03  0.53071194344E+03  0.15294330000E+03 0.  1.
<mgrwt>
<rscale>  0 0.55849858E+03</rscale>
<asrwt>0</asrwt>
<pdfrwt beam="1">  1        1 0.69060321E-01 0.70042137E+03</pdfrwt>
<pdfrwt beam="2">  1       -1 0.12160290E+00 0.70042137E+03</pdfrwt>
<totfact> 0.31655914E+01</totfact>
</mgrwt>
</event>
<event>
 4    5  0.1074803E-007  0.1216092E+04  0.7818608E-02  0.9141636E-01
          1   -1    0    0  501    0  0.00000000000E+00  0.00000000000E+00  0.22139340723E+04  0.22139340723E+04  0.50400000000E-02 0. -1.
         -1   -1    0    0    0  501 -0.00000000000E+00 -0.00000000000E+00 -0.96135128365E+03  0.96135128366E+03  0.50400000000E-02 0.  1.
    8880023    1    1    2    0    0  0.78271530324E+03  0.65759208121E+03  0.16654775034E+04  0.20622066123E+04  0.65864270000E+03 0.  0.
    8880022    1    1    2    0    0 -0.78271530324E+03 -0.65759208121E+03 -0.41289471474E+03  0.11130787437E+04  0.15294330000E+03 0.  0.
<mgrwt>
<rscale>  0 0.11676692E+04</rscale>
<asrwt>0</asrwt>
<pdfrwt beam="1">  1        1 0.34060524E+00 0.12160924E+04</pdfrwt>
<pdfrwt beam="2">  1       -1 0.14790020E+00 0.12160924E+04</pdfrwt>
<totfact> 0.75872524E-01</totfact>
</mgrwt>
</event>
<event>
 4    5  0.1074803E-007  0.8108222E+03  0.7818608E-02  0.9687867E-01
          1   -1    0    0  501    0  0.00000000000E+00  0.00000000000E+00  0.86505117241E+03  0.86505117243E+03  0.50400000000E-02 0. -1.
         -1   -1    0    0    0  501 -0.00000000000E+00 -0.00000000000E+00 -0.11694746463E+04  0.11694746463E+04  0.50400000000E-02 0.  1.
    8880023    1    1    2    0    0 -0.42794355687E+03 -0.20121321441E+03  0.59582198433E+03  0.10061990304E+04  0.65864270000E+03 0. -1.
    8880022    1    1    2    0    0  0.42794355687E+03  0.20121321441E+03 -0.90024545818E+03  0.10283267883E+04  0.15294330000E+03 0.  0.
<mgrwt>
<rscale>  0 0.71743811E+03</rscale>
<asrwt>0</asrwt>
<pdfrwt beam="1">  1        1 0.13308480E+00 0.81082221E+03</pdfrwt>
<pdfrwt beam="2">  1       -1 0.17991918E+00 0.81082221E+03</pdfrwt>
<totfact> 0.41667712E+00</totfact>
</mgrwt>
</event>
<event>
 4    5  0.1074803E-007  0.8701262E+03  0.7818608E-02  0.9575799E-01
          1   -1    0    0  501    0  0.00000000000E+00  0.00000000000E+00  0.27841968653E+04  0.27841968653E+04  0.50400000000E-02 0. -1.
         -1   -1    0    0    0  501 -0.00000000000E+00 -0.00000000000E+00 -0.54045578684E+03  0.54045578687E+03  0.50400000000E-02 0.  1.
    8880023    1    1    2    0    0  0.54133500387E+03  0.17397049012E+03  0.25260118939E+04  0.26716765545E+04  0.65864270000E+03 0.  0.
    8880022    1    1    2    0    0 -0.54133500387E+03 -0.17397049012E+03 -0.28227081540E+03  0.65297609764E+03  0.15294330000E+03 0.  0.
<mgrwt>
<rscale>  0 0.78918905E+03</rscale>
<asrwt>0</asrwt>
<pdfrwt beam="1">  1        1 0.42833798E+00 0.87012615E+03</pdfrwt>
<pdfrwt beam="2">  1       -1 0.83147045E-01 0.87012615E+03</pdfrwt>
<totfact> 0.12856781E+00</totfact>
</mgrwt>
</event>
<event>
 4    5  0.1074803E-007  0.7410195E+03  0.7818608E-02  0.9856987E-01
         -1   -1    0    0    0  501 -0.00000000000E+00  0.00000000000E+00  0.20997889901E+03  0.20997889907E+03  0.50400000000E-02 0.  1.
          1   -1    0    0  501    0  0.00000000000E+00 -0.00000000000E+00 -0.18037622742E+04  0.18037622742E+04  0.50400000000E-02 0. -1.
    8880023    1    1    2    0    0  0.28915138980E+03 -0.17802024519E+03 -0.14222644679E+04  0.16037288290E+04  0.65864270000E+03 0. -1.
    8880022    1    1    2    0    0 -0.28915138980E+03  0.17802024519E+03 -0.17151890728E+03  0.41001234431E+03  0.15294330000E+03 0.  0.
<mgrwt>
<rscale>  0 0.62391931E+03</rscale>
<asrwt>0</asrwt>
<pdfrwt beam="1">  1        1 0.27750188E+00 0.74101953E+03</pdfrwt>
<pdfrwt beam="2">  1       -1 0.32304447E-01 0.74101953E+03</pdfrwt>
<totfact> 0.37512590E+01</totfact>
</mgrwt>
</event>
<event>
 4    5  0.1074803E-007  0.1056566E+04  0.7818608E-02  0.9311029E-01
         -1   -1    0    0    0  501 -0.00000000000E+00  0.00000000000E+00  0.28004571558E+04  0.28004571558E+04  0.50400000000E-02 0.  1.
          1   -1    0    0  501    0  0.00000000000E+00 -0.00000000000E+00 -0.63463377625E+03  0.63463377627E+03  0.50400000000E-02 0. -1.
    8880023    1    1    2    0    0 -0.41614441875E+03 -0.71368456719E+03 -0.57683767606E+02  0.10581396231E+04  0.65864270000E+03 0. -1.
    8880022    1    1    2    0    0  0.41614441875E+03  0.71368456719E+03  0.22235071471E+04  0.23769513089E+04  0.15294330000E+03 0.  0.
<mgrwt>
<rscale>  0 0.99773787E+03</rscale>
<asrwt>0</asrwt>
<pdfrwt beam="1">  1        1 0.97635965E-01 0.10565662E+04</pdfrwt>
<pdfrwt beam="2">  1       -1 0.43083956E+00 0.10565662E+04</pdfrwt>
<totfact> 0.14088824E-01</totfact>
</mgrwt>
</event>
<event>
 4    5  0.1074803E-007  0.8973323E+03  0.7818608E-02  0.9530328E-01
          1   -1    0    0  501    0  0.00000000000E+00  0.00000000000E+00  0.78138789055E+03  0.78138789057E+03  0.50400000000E-02 0. -1.
         -1   -1    0    0    0  501 -0.00000000000E+00 -0.00000000000E+00 -0.93177416900E+03  0.93177416901E+03  0.50400000000E-02 0.  1.
    8880023    1    1    2    0    0  0.17069372231E+03 -0.58502883352E+03  0.29321890394E+03  0.94402468970E+03  0.65864270000E+03 0.  0.
    8880022    1    1    2    0    0 -0.17069372231E+03  0.58502883352E+03 -0.44360518239E+03  0.76913736987E+03  0.15294330000E+03 0.  0.
<mgrwt>
<rscale>  0 0.82084338E+03</rscale>
<asrwt>0</asrwt>
<pdfrwt beam="1">  1        1 0.12021352E+00 0.89733232E+03</pdfrwt>
<pdfrwt beam="2">  1       -1 0.14334987E+00 0.89733232E+03</pdfrwt>
<totfact> 0.91610905E+00</totfact>
</mgrwt>
</event>
<event>
 4    5  0.1074803E-007  0.8171759E+03  0.7818608E-02  0.9674819E-01
         -1   -1    0    0    0  501 -0.00000000000E+00  0.00000000000E+00  0.39370482537E+04  0.39370482537E+04  0.50400000000E-02 0.  1.
          1   -1    0    0  501    0  0.00000000000E+00 -0.00000000000E+00 -0.22620804712E+03  0.22620804717E+03  0.50400000000E-02 0. -1.
    8880023    1    1    2    0    0  0.29181513423E+03 -0.38575911680E+03  0.60628408785E+03  0.10175248254E+04  0.65864270000E+03 0. -1.
    8880022    1    1    2    0    0 -0.29181513423E+03  0.38575911680E+03  0.31045561187E+04  0.31457314755E+04  0.15294330000E+03 0.  0.
<mgrwt>
<rscale>  0 0.72536036E+03</rscale>
<asrwt>0</asrwt>
<pdfrwt beam="1">  1        1 0.34801239E-01 0.81717585E+03</pdfrwt>
<pdfrwt beam="2">  1       -1 0.60569972E+00 0.81717585E+03</pdfrwt>
<totfact> 0.53656847E-02</totfact>
</mgrwt>
</event>
<event>
 4    5  0.1074803E-007  0.7266415E+03  0.7818608E-02  0.9900722E-01
          1   -1    0    0  501    0  0.00000000000E+00  0.00000000000E+00  0.19975993088E+04  0.19975993088E+04  0.50400000000E-02 0. -1.
         -1   -1    0    0    0  501 -0.00000000000E+00 -0.00000000000E+00 -0.14731941486E+03  0.14731941495E+03  0.50400000000E-02 0.  1.
    8880023    1    1    2    0    0  0.27838925349E+03 -0.12921729364E+03  0.14161488421E+04  0.15916926320E+04  0.65864270000E+03 0. -1.
    8880022    1    1    2    0    0 -0.27838925349E+03  0.12921729364E+03  0.43413105182E+03  0.55322609176E+03  0.15294330000E+03 0.  1.
<mgrwt>
<rscale>  0 0.60226295E+03</rscale>
<asrwt>0</asrwt>
<pdfrwt beam="1">  1        1 0.30732298E+00 0.72664152E+03</pdfrwt>
<pdfrwt beam="2">  1       -1 0.22664525E-01 0.72664152E+03</pdfrwt>
<totfact> 0.51324942E+01</totfact>
</mgrwt>
</event>
<event>
 4    5  0.1074803E-007  0.1824006E+04  0.7818608E-02  0.8709372E-01
          1   -1    0    0  501    0  0.00000000000E+00  0.00000000000E+00  0.13782305166E+04  0.13782305167E+04  0.50400000000E-02 0. -1.
         -1   -1    0    0    0  501 -0.00000000000E+00 -0.00000000000E+00 -0.28559070665E+04  0.28559070665E+04  0.50400000000E-02 0.  1.
    8880023    1    1    2    0    0  0.15904962496E+04 -0.60291727151E+03  0.20641678593E+03  0.18356485644E+04  0.65864270000E+03 0.  0.
    8880022    1    1    2    0    0 -0.15904962496E+04  0.60291727151E+03 -0.16840933358E+04  0.23984890188E+04  0.15294330000E+03 0.  0.
<mgrwt>
<rscale>  0 0.17942333E+04</rscale>
<asrwt>0</asrwt>
<pdfrwt beam="1">  1        1 0.21203546E+00 0.18240060E+04</pdfrwt>
<pdfrwt beam="2">  1       -1 0.43937032E+00 0.18240060E+04</pdfrwt>
<totfact> 0.27766116E-02</totfact>
</mgrwt>
</event>
<event>
 4    5  0.1074803E-007  0.7077999E+03  0.7818608E-02  0.9966263E-01
         -1   -1    0    0    0  501 -0.00000000000E+00  0.00000000000E+00  0.46643082222E+03  0.46643082225E+03  0.50400000000E-02 0.  1.
          1   -1    0    0  501    0  0.00000000000E+00 -0.00000000000E+00 -0.14524603712E+04  0.14524603712E+04  0.50400000000E-02 0. -1.
    8880023    1    1    2    0    0  0.13492310594E+03 -0.22128309759E+03 -0.13023683083E+04  0.14822765837E+04  0.65864270000E+03 0.  0.
    8880022    1    1    2    0    0 -0.13492310594E+03  0.22128309759E+03  0.31633875933E+03  0.43661460977E+03  0.15294330000E+03 0.  0.
<mgrwt>
<rscale>  0 0.57154598E+03</rscale>
<asrwt>0</asrwt>
<pdfrwt beam="1">  1        1 0.22345544E+00 0.70779987E+03</pdfrwt>
<pdfrwt beam="2">  1       -1 0.71758589E-01 0.70779987E+03</pdfrwt>
<totfact> 0.14421992E+01</totfact>
</mgrwt>
</event>
<event>
 4    5  0.1074803E-007  0.7235882E+03  0.7818608E-02  0.9910627E-01
         -1   -1    0    0    0  501 -0.00000000000E+00  0.00000000000E+00  0.59765597539E+03  0.59765597541E+03  0.50400000000E-02 0.  1.
          1   -1    0    0  501    0  0.00000000000E+00 -0.00000000000E+00 -0.89577082062E+03  0.89577082063E+03  0.50400000000E-02 0. -1.
    8880023    1    1    2    0    0  0.12593846510E+03  0.27186248724E+03 -0.67409072432E+03  0.98892781326E+03  0.65864270000E+03 0. -1.
    8880022    1    1    2    0    0 -0.12593846510E+03 -0.27186248724E+03  0.37597587909E+03  0.50449898279E+03  0.15294330000E+03 0.  0.
<mgrwt>
<rscale>  0 0.59749034E+03</rscale>
<asrwt>0</asrwt>
<pdfrwt beam="1">  1        1 0.13781090E+00 0.72358822E+03</pdfrwt>
<pdfrwt beam="2">  1       -1 0.91947073E-01 0.72358822E+03</pdfrwt>
<totfact> 0.21785634E+01</totfact>
</mgrwt>
</event>
<event>
 4    5  0.1074803E-007  0.8850281E+03  0.7818608E-02  0.9550507E-01
         -1   -1    0    0    0  501 -0.00000000000E+00  0.00000000000E+00  0.12118287818E+04  0.12118287818E+04  0.50400000000E-02 0.  1.
          1   -1    0    0  501    0  0.00000000000E+00 -0.00000000000E+00 -0.17847740064E+04  0.17847740065E+04  0.50400000000E-02 0. -1.
    8880023    1    1    2    0    0 -0.16508325650E+02  0.59092474519E+03 -0.15845703930E+04  0.18149760648E+04  0.65864270000E+03 0. -1.
    8880022    1    1    2    0    0  0.16508325650E+02 -0.59092474519E+03  0.10116251683E+04  0.11816267234E+04  0.15294330000E+03 0.  0.
<mgrwt>
<rscale>  0 0.80660420E+03</rscale>
<asrwt>0</asrwt>
<pdfrwt beam="1">  1        1 0.27458062E+00 0.88502813E+03</pdfrwt>
<pdfrwt beam="2">  1       -1 0.18643520E+00 0.88502813E+03</pdfrwt>
<totfact> 0.80411646E-01</totfact>
</mgrwt>
</event>
<event>
 4    5  0.1074803E-007  0.1465927E+04  0.7818608E-02  0.8934078E-01
          1   -1    0    0  501    0  0.00000000000E+00  0.00000000000E+00  0.10978267044E+04  0.10978267044E+04  0.50400000000E-02 0. -1.
         -1   -1    0    0    0  501 -0.00000000000E+00 -0.00000000000E+00 -0.18646705552E+04  0.18646705552E+04  0.50400000000E-02 0.  1.
    8880023    1    1    2    0    0 -0.12177594933E+04 -0.48186585569E+03 -0.61633100136E+02  0.14672224547E+04  0.65864270000E+03 0.  0.
    8880022    1    1    2    0    0  0.12177594933E+04  0.48186585569E+03 -0.70521075063E+03  0.14952748049E+04  0.15294330000E+03 0.  0.
<mgrwt>
<rscale>  0 0.14276013E+04</rscale>
<asrwt>0</asrwt>
<pdfrwt beam="1">  1        1 0.16889642E+00 0.14659274E+04</pdfrwt>
<pdfrwt beam="2">  1       -1 0.28687239E+00 0.14659274E+04</pdfrwt>
<totfact> 0.48742693E-01</totfact>
</mgrwt>
</event>
<event>
 4    5  0.1074803E-007  0.1112875E+04  0.7818608E-02  0.9246855E-01
          1   -1    0    0  501    0  0.00000000000E+00  0.00000000000E+00  0.10885962905E+04  0.10885962906E+04  0.50400000000E-02 0. -1.
         -1   -1    0    0    0  501 -0.00000000000E+00 -0.00000000000E+00 -0.11235024462E+04  0.11235024462E+04  0.50400000000E-02 0.  1.
    8880023    1    1    2    0    0 -0.73464344240E+03  0.51476141959E+03  0.42652249358E+03  0.11918103668E+04  0.65864270000E+03 0.  0.
    8880022    1    1    2    0    0  0.73464344240E+03 -0.51476141959E+03 -0.46142864920E+03  0.10202883700E+04  0.15294330000E+03 0.  0.
<mgrwt>
<rscale>  0 0.10582622E+04</rscale>
<asrwt>0</asrwt>
<pdfrwt beam="1">  1        1 0.16747635E+00 0.11128749E+04</pdfrwt>
<pdfrwt beam="2">  1       -1 0.17284653E+00 0.11128749E+04</pdfrwt>
<totfact> 0.30031006E+00</totfact>
</mgrwt>
</event>
<event>
 4    5  0.1074803E-007  0.7295438E+03  0.7818608E-02  0.9891524E-01
          1   -1    0    0  501    0  0.00000000000E+00  0.00000000000E+00  0.20956187937E+04  0.20956187937E+04  0.50400000000E-02 0. -1.
         -1   -1    0    0    0  501 -0.00000000000E+00 -0.00000000000E+00 -0.72641148131E+03  0.72641148133E+03  0.50400000000E-02 0.  1.
    8880023    1    1    2    0    0  0.28166168272E+03  0.13816909480E+03  0.19846606514E+04  0.21145004398E+04  0.65864270000E+03 0. -1.
    8880022    1    1    2    0    0 -0.28166168272E+03 -0.13816909480E+03 -0.61545333902E+03  0.70752983527E+03  0.15294330000E+03 0.  0.
<mgrwt>
<rscale>  0 0.60673833E+03</rscale>
<asrwt>0</asrwt>
<pdfrwt beam="1">  1        1 0.32240289E+00 0.72954384E+03</pdfrwt>
<pdfrwt beam="2">  1       -1 0.11175561E+00 0.72954384E+03</pdfrwt>
<totfact> 0.20003871E+00</totfact>
</mgrwt>
</event>
<event>
 4    5  0.1074803E-007  0.7374480E+03  0.7818608E-02  0.9867444E-01
         -1   -1    0    0    0  501 -0.00000000000E+00  0.00000000000E+00  0.82626349426E+03  0.82626349428E+03  0.50400000000E-02 0.  1.
          1   -1    0    0  501    0  0.00000000000E+00 -0.00000000000E+00 -0.78308734046E+03  0.78308734047E+03  0.50400000000E-02 0. -1.
    8880023    1    1    2    0    0 -0.98890459425E+02  0.31660694471E+03 -0.54500681007E+03  0.91698522872E+03  0.65864270000E+03 0.  0.
    8880022    1    1    2    0    0  0.98890459425E+02 -0.31660694471E+03  0.58818296388E+03  0.69236560603E+03  0.15294330000E+03 0.  0.
<mgrwt>
<rscale>  0 0.61865348E+03</rscale>
<asrwt>0</asrwt>
<pdfrwt beam="1">  1        1 0.12047498E+00 0.73744796E+03</pdfrwt>
<pdfrwt beam="2">  1       -1 0.12711746E+00 0.73744796E+03</pdfrwt>
<totfact> 0.12662784E+01</totfact>
</mgrwt>
</event>
<event>
 4    5  0.1074803E-007  0.8437469E+03  0.7818608E-02  0.9623155E-01
          1   -1    0    0  501    0  0.00000000000E+00  0.00000000000E+00  0.48680729587E+03  0.48680729589E+03  0.50400000000E-02 0. -1.
         -1   -1    0    0    0  501 -0.00000000000E+00 -0.00000000000E+00 -0.17646807315E+04  0.17646807315E+04  0.50400000000E-02 0.  1.
    8880023    1    1    2    0    0 -0.96830289184E+02 -0.51838450736E+03  0.18157011357E+02  0.84394222889E+03  0.65864270000E+03 0.  0.
    8880022    1    1    2    0    0  0.96830289184E+02  0.51838450736E+03 -0.12960304470E+04  0.14075457985E+04  0.15294330000E+03 0.  0.
<mgrwt>
<rscale>  0 0.75782390E+03</rscale>
<asrwt>0</asrwt>
<pdfrwt beam="1">  1        1 0.74893431E-01 0.84374689E+03</pdfrwt>
<pdfrwt beam="2">  1       -1 0.27148934E+00 0.84374689E+03</pdfrwt>
<totfact> 0.23979645E+00</totfact>
</mgrwt>
</event>
<event>
 4    5  0.1074803E-007  0.1779631E+04  0.7818608E-02  0.8733888E-01
          1   -1    0    0  501    0  0.00000000000E+00  0.00000000000E+00  0.24039408096E+04  0.24039408096E+04  0.50400000000E-02 0. -1.
         -1   -1    0    0    0  501 -0.00000000000E+00 -0.00000000000E+00 -0.13832769653E+04  0.13832769653E+04  0.50400000000E-02 0.  1.
    8880023    1    1    2    0    0 -0.73056178479E+02 -0.16516475647E+04  0.11548205091E+04  0.21214847390E+04  0.65864270000E+03 0. -1.
    8880022    1    1    2    0    0  0.73056178479E+02  0.16516475647E+04 -0.13415666471E+03  0.16657330359E+04  0.15294330000E+03 0.  0.
<mgrwt>
<rscale>  0 0.17490232E+04</rscale>
<asrwt>0</asrwt>
<pdfrwt beam="1">  1        1 0.36983704E+00 0.17796312E+04</pdfrwt>
<pdfrwt beam="2">  1       -1 0.21281184E+00 0.17796312E+04</pdfrwt>
<totfact> 0.17781932E-01</totfact>
</mgrwt>
</event>
<event>
 4    5  0.1074803E-007  0.7115282E+03  0.7818608E-02  0.9952369E-01
          1   -1    0    0  501    0  0.00000000000E+00  0.00000000000E+00  0.13036006581E+04  0.13036006581E+04  0.50400000000E-02 0. -1.
         -1   -1    0    0    0  501 -0.00000000000E+00 -0.00000000000E+00 -0.86531806090E+03  0.86531806091E+03  0.50400000000E-02 0.  1.
    8880023    1    1    2    0    0  0.22128622650E+03 -0.15327964388E+03  0.11728312010E+04  0.13717891513E+04  0.65864270000E+03 0. -1.
    8880022    1    1    2    0    0 -0.22128622650E+03  0.15327964388E+03 -0.73454860385E+03  0.79712956770E+03  0.15294330000E+03 0.  0.
<mgrwt>
<rscale>  0 0.57789020E+03</rscale>
<asrwt>0</asrwt>
<pdfrwt beam="1">  1        1 0.20055395E+00 0.71152825E+03</pdfrwt>
<pdfrwt beam="2">  1       -1 0.13312586E+00 0.71152825E+03</pdfrwt>
<totfact> 0.44940600E+00</totfact>
</mgrwt>
</event>
<event>
 4    5  0.1074803E-007  0.8556724E+03  0.7818608E-02  0.9601308E-01
          1   -1    0    0  501    0  0.00000000000E+00  0.00000000000E+00  0.41287976649E+04  0.41287976649E+04  0.50400000000E-02 0. -1.
         -1   -1    0    0    0  501 -0.00000000000E+00 -0.00000000000E+00 -0.32630480336E+03  0.32630480340E+03  0.50400000000E-02 0.  1.
    8880023    1    1    2    0    0 -0.96913703681E+02 -0.53756189325E+03  0.37924448955E+04  0.38877774559E+04  0.65864270000E+03 0.  0.
    8880022    1    1    2    0    0  0.96913703681E+02  0.53756189325E+03  0.10047966034E+02  0.56732501238E+03  0.15294330000E+03 0.  0.
<mgrwt>
<rscale>  0 0.77209652E+03</rscale>
<asrwt>0</asrwt>
<pdfrwt beam="1">  1        1 0.63519961E+00 0.85567240E+03</pdfrwt>
<pdfrwt beam="2">  1       -1 0.50200741E-01 0.85567240E+03</pdfrwt>
<totfact> 0.31953498E-01</totfact>
</mgrwt>
</event>
<event>
 4    5  0.1074803E-007  0.1598523E+04  0.7818608E-02  0.8843026E-01
          1   -1    0    0  501    0  0.00000000000E+00  0.00000000000E+00  0.32466803853E+04  0.32466803853E+04  0.50400000000E-02 0. -1.
         -1   -1    0    0    0  501 -0.00000000000E+00 -0.00000000000E+00 -0.12406571016E+04  0.12406571016E+04  0.50400000000E-02 0.  1.
    8880023    1    1    2    0    0 -0.13121332014E+04 -0.63227529055E+03 -0.42067999020E+03  0.16529511311E+04  0.65864270000E+03 0.  0.
    8880022    1    1    2    0    0  0.13121332014E+04  0.63227529055E+03  0.24267032739E+04  0.28343863558E+04  0.15294330000E+03 0.  0.
<mgrwt>
<rscale>  0 0.15639180E+04</rscale>
<asrwt>0</asrwt>
<pdfrwt beam="1">  1        1 0.49948928E+00 0.15985230E+04</pdfrwt>
<pdfrwt beam="2">  1       -1 0.19087033E+00 0.15985230E+04</pdfrwt>
<totfact> 0.64042029E-02</totfact>
</mgrwt>
</event>
<event>
 4    5  0.1074803E-007  0.7247976E+03  0.7818608E-02  0.9906675E-01
          1   -1    0    0  501    0  0.00000000000E+00  0.00000000000E+00  0.79639307338E+03  0.79639307340E+03  0.50400000000E-02 0. -1.
         -1   -1    0    0    0  501 -0.00000000000E+00 -0.00000000000E+00 -0.73211932629E+03  0.73211932630E+03  0.50400000000E-02 0.  1.
    8880023    1    1    2    0    0  0.30239459402E+03  0.88816718843E+01  0.56834507786E+03  0.92105792889E+03  0.65864270000E+03 0. -1.
    8880022    1    1    2    0    0 -0.30239459402E+03 -0.88816718843E+01 -0.50407133076E+03  0.60745447081E+03  0.15294330000E+03 0.  0.
<mgrwt>
<rscale>  0 0.59938894E+03</rscale>
<asrwt>0</asrwt>
<pdfrwt beam="1">  1        1 0.12252201E+00 0.72479761E+03</pdfrwt>
<pdfrwt beam="2">  1       -1 0.11263374E+00 0.72479761E+03</pdfrwt>
<totfact> 0.16575040E+01</totfact>
</mgrwt>
</event>
<event>
 4    5  0.1074803E-007  0.1139927E+04  0.7818608E-02  0.9217853E-01
         -1   -1    0    0    0  501 -0.00000000000E+00  0.00000000000E+00  0.21422203596E+04  0.21422203596E+04  0.50400000000E-02 0.  1.
          1   -1    0    0  501    0  0.00000000000E+00 -0.00000000000E+00 -0.11689843374E+04  0.11689843374E+04  0.50400000000E-02 0. -1.
    8880023    1    1    2    0    0 -0.86996359215E+02  0.92631209836E+03 -0.73760166996E+03  0.13577514131E+04  0.65864270000E+03 0.  0.
    8880022    1    1    2    0    0  0.86996359215E+02 -0.92631209836E+03  0.17108376922E+04  0.19534532838E+04  0.15294330000E+03 0.  0.
<mgrwt>
<rscale>  0 0.10871044E+04</rscale>
<asrwt>0</asrwt>
<pdfrwt beam="1">  1        1 0.17984375E+00 0.11399266E+04</pdfrwt>
<pdfrwt beam="2">  1       -1 0.32957236E+00 0.11399266E+04</pdfrwt>
<totfact> 0.23756783E-01</totfact>
</mgrwt>
</event>
<event>
 4    5  0.1074803E-007  0.7315481E+03  0.7818608E-02  0.9885288E-01
          1   -1    0    0  501    0  0.00000000000E+00  0.00000000000E+00  0.28648382777E+04  0.28648382777E+04  0.50400000000E-02 0. -1.
         -1   -1    0    0    0  501 -0.00000000000E+00 -0.00000000000E+00 -0.21242960676E+03  0.21242960682E+03  0.50400000000E-02 0.  1.
    8880023    1    1    2    0    0 -0.29185877546E+03  0.12716490107E+03  0.26227169983E+04  0.27228307175E+04  0.65864270000E+03 0. -1.
    8880022    1    1    2    0    0  0.29185877546E+03 -0.12716490107E+03  0.29691672601E+02  0.35443716695E+03  0.15294330000E+03 0.  0.
<mgrwt>
<rscale>  0 0.60979616E+03</rscale>
<asrwt>0</asrwt>
<pdfrwt beam="1">  1        1 0.44074436E+00 0.73154813E+03</pdfrwt>
<pdfrwt beam="2">  1       -1 0.32681477E-01 0.73154813E+03</pdfrwt>
<totfact> 0.70010784E+00</totfact>
</mgrwt>
</event>
<event>
 4    5  0.1074803E-007  0.9845407E+03  0.7818608E-02  0.9402069E-01
         -1   -1    0    0    0  501 -0.00000000000E+00  0.00000000000E+00  0.11037184408E+04  0.11037184408E+04  0.50400000000E-02 0.  1.
          1   -1    0    0  501    0  0.00000000000E+00 -0.00000000000E+00 -0.13187898827E+04  0.13187898827E+04  0.50400000000E-02 0. -1.
    8880023    1    1    2    0    0  0.15917569771E+03 -0.71426411555E+03 -0.95430918889E+03  0.13711405339E+04  0.65864270000E+03 0.  0.
    8880022    1    1    2    0    0 -0.15917569771E+03  0.71426411555E+03  0.73923774694E+03  0.10513677896E+04  0.15294330000E+03 0.  0.
<mgrwt>
<rscale>  0 0.91905644E+03</rscale>
<asrwt>0</asrwt>
<pdfrwt beam="1">  1        1 0.20289075E+00 0.98454067E+03</pdfrwt>
<pdfrwt beam="2">  1       -1 0.16980284E+00 0.98454067E+03</pdfrwt>
<totfact> 0.21797259E+00</totfact>
</mgrwt>
</event>
<event>
 4    5  0.1074803E-007  0.1454833E+04  0.7818608E-02  0.8942206E-01
          1   -1    0    0  501    0  0.00000000000E+00  0.00000000000E+00  0.13942844746E+04  0.13942844747E+04  0.50400000000E-02 0. -1.
         -1   -1    0    0    0  501 -0.00000000000E+00 -0.00000000000E+00 -0.23336726639E+04  0.23336726639E+04  0.50400000000E-02 0.  1.
    8880023    1    1    2    0    0 -0.12858184930E+04  0.17146294909E+03  0.71422335983E+03  0.16206955155E+04  0.65864270000E+03 0.  0.
    8880022    1    1    2    0    0  0.12858184930E+04 -0.17146294909E+03 -0.16536115491E+04  0.21072616231E+04  0.15294330000E+03 0.  0.
<mgrwt>
<rscale>  0 0.14161559E+04</rscale>
<asrwt>0</asrwt>
<pdfrwt beam="1">  1        1 0.21450530E+00 0.14548330E+04</pdfrwt>
<pdfrwt beam="2">  1       -1 0.35902656E+00 0.14548330E+04</pdfrwt>
<totfact> 0.10000568E-01</totfact>
</mgrwt>
</event>
<event>
 4    5  0.1074803E-007  0.9831873E+03  0.7818608E-02  0.9403892E-01
         -1   -1    0    0    0  501 -0.00000000000E+00  0.00000000000E+00  0.18593831418E+04  0.18593831419E+04  0.50400000000E-02 0.  1.
          1   -1    0    0  501    0  0.00000000000E+00 -0.00000000000E+00 -0.16629475199E+04  0.16629475199E+04  0.50400000000E-02 0. -1.
    8880023    1    1    2    0    0  0.21010633755E+03 -0.69907250384E+03  0.16316061263E+04  0.19049398406E+04  0.65864270000E+03 0.  0.
    8880022    1    1    2    0    0 -0.21010633755E+03  0.69907250384E+03 -0.14351705044E+04  0.16173908212E+04  0.15294330000E+03 0.  0.
<mgrwt>
<rscale>  0 0.91756078E+03</rscale>
<asrwt>0</asrwt>
<pdfrwt beam="1">  1        1 0.25583808E+00 0.98318729E+03</pdfrwt>
<pdfrwt beam="2">  1       -1 0.28605895E+00 0.98318729E+03</pdfrwt>
<totfact> 0.20956131E-01</totfact>
</mgrwt>
</event>
<event>
 4    5  0.1074803E-007  0.7120290E+03  0.7818608E-02  0.9950542E-01
          1   -1    0    0  501    0  0.00000000000E+00  0.00000000000E+00  0.21282439934E+04  0.21282439934E+04  0.50400000000E-02 0. -1.
         -1   -1    0    0    0  501 -0.00000000000E+00 -0.00000000000E+00 -0.19153780236E+03  0.19153780243E+03  0.50400000000E-02 0.  1.
    8880023    1    1    2    0    0 -0.68624408831E+02 -0.26165973251E+03  0.18713481851E+04  0.20022310958E+04  0.65864270000E+03 0. -1.
    8880022    1    1    2    0    0  0.68624408831E+02  0.26165973251E+03  0.65358005949E+02  0.31755069998E+03  0.15294330000E+03 0.  1.
<mgrwt>
<rscale>  0 0.57873099E+03</rscale>
<asrwt>0</asrwt>
<pdfrwt beam="1">  1        1 0.32742216E+00 0.71202902E+03</pdfrwt>
<pdfrwt beam="2">  1       -1 0.29467354E-01 0.71202902E+03</pdfrwt>
<totfact> 0.26841752E+01</totfact>
</mgrwt>
</event>
<event>
 4    5  0.1074803E-007  0.1307516E+04  0.7818608E-02  0.9059096E-01
         -1   -1    0    0    0  501 -0.00000000000E+00  0.00000000000E+00  0.16061872756E+04  0.16061872756E+04  0.50400000000E-02 0.  1.
          1   -1    0    0  501    0  0.00000000000E+00 -0.00000000000E+00 -0.12584411457E+04  0.12584411457E+04  0.50400000000E-02 0. -1.
    8880023    1    1    2    0    0  0.11080913886E+04  0.21890918457E+03 -0.54525749699E+03  0.14166522865E+04  0.65864270000E+03 0.  0.
    8880022    1    1    2    0    0 -0.11080913886E+04 -0.21890918457E+03  0.89300362682E+03  0.14479761348E+04  0.15294330000E+03 0.  0.
<mgrwt>
<rscale>  0 0.12634088E+04</rscale>
<asrwt>0</asrwt>
<pdfrwt beam="1">  1        1 0.19360633E+00 0.13075160E+04</pdfrwt>
<pdfrwt beam="2">  1       -1 0.24710573E+00 0.13075160E+04</pdfrwt>
<totfact> 0.68322545E-01</totfact>
</mgrwt>
</event>
<event>
 4    5  0.1074803E-007  0.7389491E+03  0.7818608E-02  0.9863019E-01
         -1   -1    0    0    0  501 -0.00000000000E+00  0.00000000000E+00  0.18868901207E+04  0.18868901207E+04  0.50400000000E-02 0.  1.
          1   -1    0    0  501    0  0.00000000000E+00 -0.00000000000E+00 -0.92203307936E+03  0.92203307937E+03  0.50400000000E-02 0. -1.
    8880023    1    1    2    0    0 -0.16094995834E+03 -0.29382081829E+03 -0.75123769228E+03  0.10537570113E+04  0.65864270000E+03 0. -1.
    8880022    1    1    2    0    0  0.16094995834E+03  0.29382081829E+03  0.17160947336E+04  0.17551661887E+04  0.15294330000E+03 0.  0.
<mgrwt>
<rscale>  0 0.62087511E+03</rscale>
<asrwt>0</asrwt>
<pdfrwt beam="1">  1        1 0.14185124E+00 0.73894910E+03</pdfrwt>
<pdfrwt beam="2">  1       -1 0.29029079E+00 0.73894910E+03</pdfrwt>
<totfact> 0.70706547E-01</totfact>
</mgrwt>
</event>
<event>
 4    5  0.1074803E-007  0.6948540E+03  0.7818608E-02  0.1001926E+00
          1   -1    0    0  501    0  0.00000000000E+00  0.00000000000E+00  0.11788277483E+04  0.11788277483E+04  0.50400000000E-02 0. -1.
         -1   -1    0    0    0  501 -0.00000000000E+00 -0.00000000000E+00 -0.33899992375E+03  0.33899992379E+03  0.50400000000E-02 0.  1.
    8880023    1    1    2    0    0  0.21857751652E+03  0.35152808497E+02  0.99012750894E+03  0.12096175184E+04  0.65864270000E+03 0. -1.
    8880022    1    1    2    0    0 -0.21857751652E+03 -0.35152808497E+02 -0.15029968440E+03  0.30821015366E+03  0.15294330000E+03 0.  0.
<mgrwt>
<rscale>  0 0.54813825E+03</rscale>
<asrwt>0</asrwt>
<pdfrwt beam="1">  1        1 0.18135811E+00 0.69485398E+03</pdfrwt>
<pdfrwt beam="2">  1       -1 0.52153836E-01 0.69485398E+03</pdfrwt>
<totfact> 0.42351291E+01</totfact>
</mgrwt>
</event>
<event>
 4    5  0.1074803E-007  0.7150336E+03  0.7818608E-02  0.9939763E-01
         -1   -1    0    0    0  501 -0.00000000000E+00  0.00000000000E+00  0.56249463062E+03  0.56249463064E+03  0.50400000000E-02 0.  1.
          1   -1    0    0  501    0  0.00000000000E+00 -0.00000000000E+00 -0.68517139822E+03  0.68517139824E+03  0.50400000000E-02 0. -1.
    8880023    1    1    2    0    0  0.25952277070E+01  0.27830932943E+03 -0.40584293919E+03  0.82218095065E+03  0.65864270000E+03 0. -1.
    8880022    1    1    2    0    0 -0.25952277070E+01 -0.27830932943E+03  0.28316617158E+03  0.42548507823E+03  0.15294330000E+03 0.  0.
<mgrwt>
<rscale>  0 0.58372289E+03</rscale>
<asrwt>0</asrwt>
<pdfrwt beam="1">  1        1 0.10541098E+00 0.71503358E+03</pdfrwt>
<pdfrwt beam="2">  1       -1 0.86537636E-01 0.71503358E+03</pdfrwt>
<totfact> 0.38063752E+01</totfact>
</mgrwt>
</event>
<event>
 4    5  0.1074803E-007  0.8859738E+03  0.7818608E-02  0.9548934E-01
         -1   -1    0    0    0  501 -0.00000000000E+00  0.00000000000E+00  0.70622578962E+03  0.70622578963E+03  0.50400000000E-02 0.  1.
          1   -1    0    0  501    0  0.00000000000E+00 -0.00000000000E+00 -0.22524118694E+04  0.22524118694E+04  0.50400000000E-02 0. -1.
    8880023    1    1    2    0    0 -0.31170662964E+03 -0.50396268673E+03 -0.20061435360E+04  0.21930712496E+04  0.65864270000E+03 0. -1.
    8880022    1    1    2    0    0  0.31170662964E+03  0.50396268673E+03  0.45995745627E+03  0.76556640938E+03  0.15294330000E+03 0.  0.
<mgrwt>
<rscale>  0 0.80770291E+03</rscale>
<asrwt>0</asrwt>
<pdfrwt beam="1">  1        1 0.34652490E+00 0.88597383E+03</pdfrwt>
<pdfrwt beam="2">  1       -1 0.10865012E+00 0.88597383E+03</pdfrwt>
<totfact> 0.16289822E+00</totfact>
</mgrwt>
</event>
<event>
 4    5  0.1074803E-007  0.1010741E+04  0.7818608E-02  0.9367638E-01
         -1   -1    0    0    0  501 -0.00000000000E+00  0.00000000000E+00  0.89146858164E+03  0.89146858165E+03  0.50400000000E-02 0.  1.
          1   -1    0    0  501    0  0.00000000000E+00 -0.00000000000E+00 -0.26083813923E+04  0.26083813923E+04  0.50400000000E-02 0. -1.
    8880023    1    1    2    0    0 -0.36146767320E+03 -0.67611263341E+03 -0.23080997578E+04  0.25197067031E+04  0.65864270000E+03 0. -1.
    8880022    1    1    2    0    0  0.36146767320E+03  0.67611263341E+03  0.59118694712E+03  0.98014327080E+03  0.15294330000E+03 0.  0.
<mgrwt>
<rscale>  0 0.94787474E+03</rscale>
<asrwt>0</asrwt>
<pdfrwt beam="1">  1        1 0.40128944E+00 0.10107410E+04</pdfrwt>
<pdfrwt beam="2">  1       -1 0.13714901E+00 0.10107410E+04</pdfrwt>
<totfact> 0.51269696E-01</totfact>
</mgrwt>
</event>
<event>
 4    5  0.1074803E-007  0.8942446E+03  0.7818608E-02  0.9535335E-01
          1   -1    0    0  501    0  0.00000000000E+00  0.00000000000E+00  0.23385062544E+04  0.23385062544E+04  0.50400000000E-02 0. -1.
         -1   -1    0    0    0  501 -0.00000000000E+00 -0.00000000000E+00 -0.36357685674E+03  0.36357685677E+03  0.50400000000E-02 0.  1.
    8880023    1    1    2    0    0  0.22642737095E+03 -0.56088672482E+03  0.18653589125E+04  0.20686317582E+04  0.65864270000E+03 0.  0.
    8880022    1    1    2    0    0 -0.22642737095E+03  0.56088672482E+03  0.10957048522E+03  0.63345135302E+03  0.15294330000E+03 0.  0.
<mgrwt>
<rscale>  0 0.81728123E+03</rscale>
<asrwt>0</asrwt>
<pdfrwt beam="1">  1        1 0.35977020E+00 0.89424464E+03</pdfrwt>
<pdfrwt beam="2">  1       -1 0.55934900E-01 0.89424464E+03</pdfrwt>
<totfact> 0.58367832E+00</totfact>
</mgrwt>
</event>
<event>
 4    5  0.1074803E-007  0.1438423E+04  0.7818608E-02  0.8954388E-01
          1   -1    0    0  501    0  0.00000000000E+00  0.00000000000E+00  0.25054260639E+04  0.25054260639E+04  0.50400000000E-02 0. -1.
         -1   -1    0    0    0  501 -0.00000000000E+00 -0.00000000000E+00 -0.19604023922E+04  0.19604023922E+04  0.50400000000E-02 0.  1.
    8880023    1    1    2    0    0 -0.19753541929E+03  0.12634204970E+04  0.20377637557E+04  0.24943020917E+04  0.65864270000E+03 0.  0.
    8880022    1    1    2    0    0  0.19753541929E+03 -0.12634204970E+04 -0.14927400840E+04  0.19715263644E+04  0.15294330000E+03 0.  0.
<mgrwt>
<rscale>  0 0.13992141E+04</rscale>
<asrwt>0</asrwt>
<pdfrwt beam="1">  1        1 0.38545016E+00 0.14384234E+04</pdfrwt>
<pdfrwt beam="2">  1       -1 0.30160037E+00 0.14384234E+04</pdfrwt>
<totfact> 0.41229292E-02</totfact>
</mgrwt>
</event>
<event>
 4    5  0.1074803E-007  0.6661897E+03  0.7818608E-02  0.1018556E+00
         -1   -1    0    0    0  501 -0.00000000000E+00  0.00000000000E+00  0.75465873141E+03  0.75465873142E+03  0.50400000000E-02 0.  1.
          1   -1    0    0  501    0  0.00000000000E+00 -0.00000000000E+00 -0.36660041318E+03  0.36660041321E+03  0.50400000000E-02 0. -1.
    8880023    1    1    2    0    0  0.56912959172E+02  0.82215485609E+02 -0.28067343023E+02  0.66678066334E+03  0.65864270000E+03 0. -1.
    8880022    1    1    2    0    0 -0.56912959172E+02 -0.82215485609E+02  0.41612566125E+03  0.45447848130E+03  0.15294330000E+03 0.  0.
<mgrwt>
<rscale>  0 0.48211503E+03</rscale>
<asrwt>0</asrwt>
<pdfrwt beam="1">  1        1 0.56400064E-01 0.66618967E+03</pdfrwt>
<pdfrwt beam="2">  1       -1 0.11610134E+00 0.66618967E+03</pdfrwt>
<totfact> 0.46476431E+01</totfact>
</mgrwt>
</event>
<event>
 4    5  0.1074803E-007  0.7119815E+03  0.7818608E-02  0.9950715E-01
         -1   -1    0    0    0  501 -0.00000000000E+00  0.00000000000E+00  0.97573793547E+03  0.97573793549E+03  0.50400000000E-02 0.  1.
          1   -1    0    0  501    0  0.00000000000E+00 -0.00000000000E+00 -0.13570131945E+04  0.13570131945E+04  0.50400000000E-02 0. -1.
    8880023    1    1    2    0    0 -0.23090469209E+03  0.14067879251E+03 -0.12342987947E+04  0.14249249876E+04  0.65864270000E+03 0. -1.
    8880022    1    1    2    0    0  0.23090469209E+03 -0.14067879251E+03  0.85302353563E+03  0.90782614241E+03  0.15294330000E+03 0.  0.
<mgrwt>
<rscale>  0 0.57865137E+03</rscale>
<asrwt>0</asrwt>
<pdfrwt beam="1">  1        1 0.20877126E+00 0.71198153E+03</pdfrwt>
<pdfrwt beam="2">  1       -1 0.15011353E+00 0.71198153E+03</pdfrwt>
<totfact> 0.30126217E+00</totfact>
</mgrwt>
</event>
<event>
 4    5  0.1074803E-007  0.7060454E+03  0.7818608E-02  0.9972990E-01
         -1   -1    0    0    0  501 -0.00000000000E+00  0.00000000000E+00  0.16530674303E+04  0.16530674303E+04  0.50400000000E-02 0.  1.
          1   -1    0    0  501    0  0.00000000000E+00 -0.00000000000E+00 -0.77129647885E+03  0.77129647887E+03  0.50400000000E-02 0. -1.
    8880023    1    1    2    0    0  0.64502187229E+02 -0.24602722926E+03 -0.59176235816E+03  0.92123983006E+03  0.65864270000E+03 0. -1.
    8880022    1    1    2    0    0 -0.64502187229E+02  0.24602722926E+03  0.14735333096E+04  0.15031240791E+04  0.15294330000E+03 0.  0.
<mgrwt>
<rscale>  0 0.56850609E+03</rscale>
<asrwt>0</asrwt>
<pdfrwt beam="1">  1        1 0.11866100E+00 0.70604542E+03</pdfrwt>
<pdfrwt beam="2">  1       -1 0.25431806E+00 0.70604542E+03</pdfrwt>
<totfact> 0.16183703E+00</totfact>
</mgrwt>
</event>
<event>
 4    5  0.1074803E-007  0.9214210E+03  0.7818608E-02  0.9492484E-01
         -1   -1    0    0    0  501 -0.00000000000E+00  0.00000000000E+00  0.10903062816E+04  0.10903062817E+04  0.50400000000E-02 0.  1.
          1   -1    0    0  501    0  0.00000000000E+00 -0.00000000000E+00 -0.87427428912E+03  0.87427428913E+03  0.50400000000E-02 0. -1.
    8880023    1    1    2    0    0 -0.50635068622E+03 -0.39851658217E+03 -0.44990626019E+03  0.10253937453E+04  0.65864270000E+03 0.  0.
    8880022    1    1    2    0    0  0.50635068622E+03  0.39851658217E+03  0.66593825272E+03  0.93918682548E+03  0.15294330000E+03 0.  0.
<mgrwt>
<rscale>  0 0.84840249E+03</rscale>
<asrwt>0</asrwt>
<pdfrwt beam="1">  1        1 0.13450374E+00 0.92142102E+03</pdfrwt>
<pdfrwt beam="2">  1       -1 0.16773943E+00 0.92142102E+03</pdfrwt>
<totfact> 0.49453210E+00</totfact>
</mgrwt>
</event>
<event>
 4    5  0.1074803E-007  0.1021212E+04  0.7818608E-02  0.9354317E-01
         -1   -1    0    0    0  501 -0.00000000000E+00  0.00000000000E+00  0.58234415104E+03  0.58234415106E+03  0.50400000000E-02 0.  1.
          1   -1    0    0  501    0  0.00000000000E+00 -0.00000000000E+00 -0.20494690520E+04  0.20494690520E+04  0.50400000000E-02 0. -1.
    8880023    1    1    2    0    0 -0.77975234861E+03  0.32411687053E+02 -0.15239940963E+04  0.18345115029E+04  0.65864270000E+03 0. -1.
    8880022    1    1    2    0    0  0.77975234861E+03 -0.32411687053E+02  0.56869195339E+02  0.79730170012E+03  0.15294330000E+03 0.  0.
<mgrwt>
<rscale>  0 0.95932506E+03</rscale>
<asrwt>0</asrwt>
<pdfrwt beam="1">  1        1 0.31530293E+00 0.10212122E+04</pdfrwt>
<pdfrwt beam="2">  1       -1 0.89591409E-01 0.10212122E+04</pdfrwt>
<totfact> 0.33957862E+00</totfact>
</mgrwt>
</event>
<event>
 4    5  0.1074803E-007  0.7452063E+03  0.7818608E-02  0.9845033E-01
         -1   -1    0    0    0  501 -0.00000000000E+00  0.00000000000E+00  0.11032266496E+04  0.11032266496E+04  0.50400000000E-02 0.  1.
          1   -1    0    0  501    0  0.00000000000E+00 -0.00000000000E+00 -0.77787932708E+03  0.77787932710E+03  0.50400000000E-02 0. -1.
    8880023    1    1    2    0    0  0.32874108250E+03 -0.11598097162E+03 -0.55024710574E+03  0.92633922984E+03  0.65864270000E+03 0. -1.
    8880022    1    1    2    0    0 -0.32874108250E+03  0.11598097162E+03  0.87559442823E+03  0.95476674684E+03  0.15294330000E+03 0.  0.
<mgrwt>
<rscale>  0 0.63000816E+03</rscale>
<asrwt>0</asrwt>
<pdfrwt beam="1">  1        1 0.11967374E+00 0.74520634E+03</pdfrwt>
<pdfrwt beam="2">  1       -1 0.16972718E+00 0.74520634E+03</pdfrwt>
<totfact> 0.59176971E+00</totfact>
</mgrwt>
</event>
<event>
 4    5  0.1074803E-007  0.9622339E+03  0.7818608E-02  0.9432726E-01
         -1   -1    0    0    0  501 -0.00000000000E+00  0.00000000000E+00  0.25273554094E+03  0.25273554099E+03  0.50400000000E-02 0.  1.
          1   -1    0    0  501    0  0.00000000000E+00 -0.00000000000E+00 -0.38960170673E+04  0.38960170673E+04  0.50400000000E-02 0. -1.
    8880023    1    1    2    0    0 -0.26060932425E+03 -0.65128077926E+03 -0.31070526015E+04  0.32526404579E+04  0.65864270000E+03 0. -1.
    8880022    1    1    2    0    0  0.26060932425E+03  0.65128077926E+03 -0.53622892490E+03  0.89611215048E+03  0.15294330000E+03 0.  0.
<mgrwt>
<rscale>  0 0.89430672E+03</rscale>
<asrwt>0</asrwt>
<pdfrwt beam="1">  1        1 0.59938720E+00 0.96223390E+03</pdfrwt>
<pdfrwt beam="2">  1       -1 0.38882394E-01 0.96223390E+03</pdfrwt>
<totfact> 0.80107894E-01</totfact>
</mgrwt>
</event>
<event>
 4    5  0.1074803E-007  0.7676200E+03  0.7818608E-02  0.9785765E-01
         -1   -1    0    0    0  501 -0.00000000000E+00  0.00000000000E+00  0.60303318398E+03  0.60303318400E+03  0.50400000000E-02 0.  1.
          1   -1    0    0  501    0  0.00000000000E+00 -0.00000000000E+00 -0.84547689899E+03  0.84547689901E+03  0.50400000000E-02 0. -1.
    8880023    1    1    2    0    0  0.35551086679E+03  0.17041784515E+03 -0.53380461134E+03  0.93498010017E+03  0.65864270000E+03 0. -1.
    8880022    1    1    2    0    0 -0.35551086679E+03 -0.17041784515E+03  0.29136089633E+03  0.51352998284E+03  0.15294330000E+03 0.  0.
<mgrwt>
<rscale>  0 0.66132095E+03</rscale>
<asrwt>0</asrwt>
<pdfrwt beam="1">  1        1 0.13007337E+00 0.76761997E+03</pdfrwt>
<pdfrwt beam="2">  1       -1 0.92774336E-01 0.76761997E+03</pdfrwt>
<totfact> 0.23387028E+01</totfact>
</mgrwt>
</event>
<event>
 4    5  0.1074803E-007  0.7185997E+03  0.7818608E-02  0.9927353E-01
         -1   -1    0    0    0  501 -0.00000000000E+00  0.00000000000E+00  0.12414426015E+04  0.12414426015E+04  0.50400000000E-02 0.  1.
          1   -1    0    0  501    0  0.00000000000E+00 -0.00000000000E+00 -0.11240483730E+04  0.11240483730E+04  0.50400000000E-02 0. -1.
    8880023    1    1    2    0    0  0.51339256333E+02 -0.28273581244E+03 -0.98317309478E+03  0.12177909506E+04  0.65864270000E+03 0.  0.
    8880022    1    1    2    0    0 -0.51339256333E+02  0.28273581244E+03  0.11005673232E+04  0.11477000239E+04  0.15294330000E+03 0.  0.
<mgrwt>
<rscale>  0 0.58953764E+03</rscale>
<asrwt>0</asrwt>
<pdfrwt beam="1">  1        1 0.17293052E+00 0.71859966E+03</pdfrwt>
<pdfrwt beam="2">  1       -1 0.19099117E+00 0.71859966E+03</pdfrwt>
<totfact> 0.22197138E+00</totfact>
</mgrwt>
</event>
<event>
 4    5  0.1074803E-007  0.7165470E+03  0.7818608E-02  0.9934448E-01
         -1   -1    0    0    0  501 -0.00000000000E+00  0.00000000000E+00  0.73997829886E+03  0.73997829887E+03  0.50400000000E-02 0.  1.
          1   -1    0    0  501    0  0.00000000000E+00 -0.00000000000E+00 -0.48428347595E+03  0.48428347598E+03  0.50400000000E-02 0. -1.
    8880023    1    1    2    0    0 -0.27288552089E+03 -0.71853590877E+02 -0.12387510836E+03  0.72717583483E+03  0.65864270000E+03 0. -1.
    8880022    1    1    2    0    0  0.27288552089E+03  0.71853590877E+02  0.37956993126E+03  0.49708594002E+03  0.15294330000E+03 0.  0.
<mgrwt>
<rscale>  0 0.58620470E+03</rscale>
<asrwt>0</asrwt>
<pdfrwt beam="1">  1        1 0.74505151E-01 0.71654703E+03</pdfrwt>
<pdfrwt beam="2">  1       -1 0.11384281E+00 0.71654703E+03</pdfrwt>
<totfact> 0.33438430E+01</totfact>
</mgrwt>
</event>
<event>
 4    5  0.1074803E-007  0.7110633E+03  0.7818608E-02  0.9954074E-01
         -1   -1    0    0    0  501 -0.00000000000E+00  0.00000000000E+00  0.20350798716E+03  0.20350798722E+03  0.50400000000E-02 0.  1.
          1   -1    0    0  501    0  0.00000000000E+00 -0.00000000000E+00 -0.22749315611E+04  0.22749315611E+04  0.50400000000E-02 0. -1.
    8880023    1    1    2    0    0  0.11193579283E+01 -0.26795428771E+03 -0.20492517291E+04  0.21691112486E+04  0.65864270000E+03 0.  0.
    8880022    1    1    2    0    0 -0.11193579283E+01  0.26795428771E+03 -0.22171844769E+02  0.30932829967E+03  0.15294330000E+03 0.  0.
<mgrwt>
<rscale>  0 0.57710717E+03</rscale>
<asrwt>0</asrwt>
<pdfrwt beam="1">  1        1 0.34998945E+00 0.71106326E+03</pdfrwt>
<pdfrwt beam="2">  1       -1 0.31308923E-01 0.71106326E+03</pdfrwt>
<totfact> 0.19255750E+01</totfact>
</mgrwt>
</event>
<event>
 4    5  0.1074803E-007  0.1101380E+04  0.7818608E-02  0.9259521E-01
         -1   -1    0    0    0  501 -0.00000000000E+00  0.00000000000E+00  0.26640624112E+04  0.26640624112E+04  0.50400000000E-02 0.  1.
          1   -1    0    0  501    0  0.00000000000E+00 -0.00000000000E+00 -0.52233432573E+03  0.52233432575E+03  0.50400000000E-02 0. -1.
    8880023    1    1    2    0    0  0.88022003521E+03 -0.66634832740E+02  0.30501097485E+03  0.11428339391E+04  0.65864270000E+03 0.  0.
    8880022    1    1    2    0    0 -0.88022003521E+03  0.66634832740E+02  0.18367171106E+04  0.20435627979E+04  0.15294330000E+03 0.  0.
<mgrwt>
<rscale>  0 0.10459636E+04</rscale>
<asrwt>0</asrwt>
<pdfrwt beam="1">  1        1 0.80359127E-01 0.11013799E+04</pdfrwt>
<pdfrwt beam="2">  1       -1 0.40985575E+00 0.11013799E+04</pdfrwt>
<totfact> 0.25821195E-01</totfact>
</mgrwt>
</event>
<event>
 4    5  0.1074803E-007  0.6980114E+03  0.7818608E-02  0.1000555E+00
         -1   -1    0    0    0  501 -0.00000000000E+00  0.00000000000E+00  0.57526464153E+03  0.57526464155E+03  0.50400000000E-02 0.  1.
          1   -1    0    0  501    0  0.00000000000E+00 -0.00000000000E+00 -0.19903734799E+04  0.19903734799E+04  0.50400000000E-02 0. -1.
    8880023    1    1    2    0    0 -0.20686477524E+03 -0.10303754197E+03 -0.18905680659E+04  0.20153083110E+04  0.65864270000E+03 0.  0.
    8880022    1    1    2    0    0  0.20686477524E+03  0.10303754197E+03  0.47545922750E+03  0.55032981049E+03  0.15294330000E+03 0.  0.
<mgrwt>
<rscale>  0 0.55407438E+03</rscale>
<asrwt>0</asrwt>
<pdfrwt beam="1">  1        1 0.30621130E+00 0.69801144E+03</pdfrwt>
<pdfrwt beam="2">  1       -1 0.88502253E-01 0.69801144E+03</pdfrwt>
<totfact> 0.40238415E+00</totfact>
</mgrwt>
</event>
<event>
 4    5  0.1074803E-007  0.8602228E+03  0.7818608E-02  0.9593167E-01
          1   -1    0    0  501    0  0.00000000000E+00  0.00000000000E+00  0.18374504667E+04  0.18374504667E+04  0.50400000000E-02 0. -1.
         -1   -1    0    0    0  501 -0.00000000000E+00 -0.00000000000E+00 -0.75092959522E+03  0.75092959524E+03  0.50400000000E-02 0.  1.
    8880023    1    1    2    0    0 -0.15911193538E+02 -0.55310027551E+03  0.16010227441E+04  0.18174864825E+04  0.65864270000E+03 0. -1.
    8880022    1    1    2    0    0  0.15911193538E+02  0.55310027551E+03 -0.51450187261E+03  0.77089357942E+03  0.15294330000E+03 0.  0.
<mgrwt>
<rscale>  0 0.77750073E+03</rscale>
<asrwt>0</asrwt>
<pdfrwt beam="1">  1        1 0.28268469E+00 0.86022281E+03</pdfrwt>
<pdfrwt beam="2">  1       -1 0.11552763E+00 0.86022281E+03</pdfrwt>
<totfact> 0.26870626E+00</totfact>
</mgrwt>
</event>
<event>
 4    5  0.1074803E-007  0.7261917E+03  0.7818608E-02  0.9902166E-01
          1   -1    0    0  501    0  0.00000000000E+00  0.00000000000E+00  0.54231806079E+03  0.54231806082E+03  0.50400000000E-02 0. -1.
         -1   -1    0    0    0  501 -0.00000000000E+00 -0.00000000000E+00 -0.22731665805E+04  0.22731665805E+04  0.50400000000E-02 0.  1.
    8880023    1    1    2    0    0  0.10453140321E+03  0.28743246767E+03  0.27811445214E+03  0.77762593352E+03  0.65864270000E+03 0. -1.
    8880022    1    1    2    0    0 -0.10453140321E+03 -0.28743246767E+03 -0.20089629718E+04  0.20378587078E+04  0.15294330000E+03 0.  0.
<mgrwt>
<rscale>  0 0.60156416E+03</rscale>
<asrwt>0</asrwt>
<pdfrwt beam="1">  1        1 0.83433549E-01 0.72619174E+03</pdfrwt>
<pdfrwt beam="2">  1       -1 0.34971793E+00 0.72619174E+03</pdfrwt>
<totfact> 0.66086725E-01</totfact>
</mgrwt>
</event>
<event>
 4    5  0.1074803E-007  0.9045052E+03  0.7818608E-02  0.9518838E-01
         -1   -1    0    0    0  501 -0.00000000000E+00  0.00000000000E+00  0.26542942312E+03  0.26542942317E+03  0.50400000000E-02 0.  1.
          1   -1    0    0  501    0  0.00000000000E+00 -0.00000000000E+00 -0.24577314183E+04  0.24577314183E+04  0.50400000000E-02 0. -1.
    8880023    1    1    2    0    0 -0.23681514320E+03 -0.57292063049E+03 -0.16659587016E+04  0.18956655989E+04  0.65864270000E+03 0.  0.
    8880022    1    1    2    0    0  0.23681514320E+03  0.57292063049E+03 -0.52634329359E+03  0.82749524265E+03  0.15294330000E+03 0.  0.
<mgrwt>
<rscale>  0 0.82909133E+03</rscale>
<asrwt>0</asrwt>
<pdfrwt beam="1">  1        1 0.37811251E+00 0.90450521E+03</pdfrwt>
<pdfrwt beam="2">  1       -1 0.40835298E-01 0.90450521E+03</pdfrwt>
<totfact> 0.87505787E+00</totfact>
</mgrwt>
</event>
<event>
 4    5  0.1074803E-007  0.1373773E+04  0.7818608E-02  0.9004334E-01
         -1   -1    0    0    0  501 -0.00000000000E+00  0.00000000000E+00  0.30133032220E+04  0.30133032220E+04  0.50400000000E-02 0.  1.
          1   -1    0    0  501    0  0.00000000000E+00 -0.00000000000E+00 -0.12110324854E+04  0.12110324854E+04  0.50400000000E-02 0. -1.
    8880023    1    1    2    0    0 -0.50450495361E+03  0.10949506155E+04 -0.62544175396E+03  0.15094468167E+04  0.65864270000E+03 0.  0.
    8880022    1    1    2    0    0  0.50450495361E+03 -0.10949506155E+04  0.24277124906E+04  0.27148888907E+04  0.15294330000E+03 0.  0.
<mgrwt>
<rscale>  0 0.13323020E+04</rscale>
<asrwt>0</asrwt>
<pdfrwt beam="1">  1        1 0.18631269E+00 0.13737730E+04</pdfrwt>
<pdfrwt beam="2">  1       -1 0.46358511E+00 0.13737730E+04</pdfrwt>
<totfact> 0.26373687E-02</totfact>
</mgrwt>
</event>
<event>
 4    5  0.1074803E-007  0.8522043E+03  0.7818608E-02  0.9607584E-01
         -1   -1    0    0    0  501 -0.00000000000E+00  0.00000000000E+00  0.12409124472E+04  0.12409124472E+04  0.50400000000E-02 0.  1.
          1   -1    0    0  501    0  0.00000000000E+00 -0.00000000000E+00 -0.11137483511E+04  0.11137483511E+04  0.50400000000E-02 0. -1.
    8880023    1    1    2    0    0 -0.20648665223E+03  0.49980523389E+03 -0.86506757655E+03  0.12143286736E+04  0.65864270000E+03 0. -1.
    8880022    1    1    2    0    0  0.20648665223E+03 -0.49980523389E+03  0.99223167268E+03  0.11403321247E+04  0.15294330000E+03 0.  0.
<mgrwt>
<rscale>  0 0.76796266E+03</rscale>
<asrwt>0</asrwt>
<pdfrwt beam="1">  1        1 0.17134590E+00 0.85220433E+03</pdfrwt>
<pdfrwt beam="2">  1       -1 0.19090961E+00 0.85220433E+03</pdfrwt>
<totfact> 0.22110158E+00</totfact>
</mgrwt>
</event>
<event>
 4    5  0.1074803E-007  0.1461107E+04  0.7818608E-02  0.8937599E-01
          1   -1    0    0  501    0  0.00000000000E+00  0.00000000000E+00  0.21039664663E+04  0.21039664663E+04  0.50400000000E-02 0. -1.
         -1   -1    0    0    0  501 -0.00000000000E+00 -0.00000000000E+00 -0.18380203501E+04  0.18380203501E+04  0.50400000000E-02 0.  1.
    8880023    1    1    2    0    0  0.61685369349E+03 -0.11491363659E+04  0.15326040007E+04  0.21174768230E+04  0.65864270000E+03 0.  0.
    8880022    1    1    2    0    0 -0.61685369349E+03  0.11491363659E+04 -0.12666578845E+04  0.18245099934E+04  0.15294330000E+03 0.  0.
<mgrwt>
<rscale>  0 0.14226291E+04</rscale>
<asrwt>0</asrwt>
<pdfrwt beam="1">  1        1 0.32368715E+00 0.14611068E+04</pdfrwt>
<pdfrwt beam="2">  1       -1 0.28277236E+00 0.14611068E+04</pdfrwt>
<totfact> 0.10252713E-01</totfact>
</mgrwt>
</event>
<event>
 4    5  0.1074803E-007  0.6815601E+03  0.7818608E-02  0.1008455E+00
         -1   -1    0    0    0  501 -0.00000000000E+00  0.00000000000E+00  0.14734490400E+03  0.14734490409E+03  0.50400000000E-02 0.  1.
          1   -1    0    0  501    0  0.00000000000E+00 -0.00000000000E+00 -0.22247433670E+04  0.22247433670E+04  0.50400000000E-02 0. -1.
    8880023    1    1    2    0    0  0.11033482644E+03 -0.13616233675E+03 -0.20208766143E+04  0.21327134013E+04  0.65864270000E+03 0. -1.
    8880022    1    1    2    0    0 -0.11033482644E+03  0.13616233675E+03 -0.56521848730E+02  0.23937486976E+03  0.15294330000E+03 0.  0.
<mgrwt>
<rscale>  0 0.52093484E+03</rscale>
<asrwt>0</asrwt>
<pdfrwt beam="1">  1        1 0.34226819E+00 0.68156009E+03</pdfrwt>
<pdfrwt beam="2">  1       -1 0.22668448E-01 0.68156009E+03</pdfrwt>
<totfact> 0.36381925E+01</totfact>
</mgrwt>
</event>
<event>
 4    5  0.1074803E-007  0.7109647E+03  0.7818608E-02  0.9954436E-01
          1   -1    0    0  501    0  0.00000000000E+00  0.00000000000E+00  0.24300286251E+04  0.24300286251E+04  0.50400000000E-02 0. -1.
         -1   -1    0    0    0  501 -0.00000000000E+00 -0.00000000000E+00 -0.17229929790E+04  0.17229929790E+04  0.50400000000E-02 0.  1.
    8880023    1    1    2    0    0  0.25300426759E+03  0.87461458504E+02  0.23634963241E+04  0.24681138034E+04  0.65864270000E+03 0. -1.
    8880022    1    1    2    0    0 -0.25300426759E+03 -0.87461458504E+02 -0.16564606780E+04  0.16849078007E+04  0.15294330000E+03 0.  0.
<mgrwt>
<rscale>  0 0.57694098E+03</rscale>
<asrwt>0</asrwt>
<pdfrwt beam="1">  1        1 0.37385055E+00 0.71096475E+03</pdfrwt>
<pdfrwt beam="2">  1       -1 0.26507585E+00 0.71096475E+03</pdfrwt>
<totfact> 0.92747337E-02</totfact>
</mgrwt>
</event>
<event>
 4    5  0.1074803E-007  0.6666289E+03  0.7818608E-02  0.1018204E+00
          1   -1    0    0  501    0  0.00000000000E+00  0.00000000000E+00  0.75210331649E+03  0.75210331650E+03  0.50400000000E-02 0. -1.
         -1   -1    0    0    0  501 -0.00000000000E+00 -0.00000000000E+00 -0.78834562446E+03  0.78834562448E+03  0.50400000000E-02 0.  1.
    8880023    1    1    2    0    0  0.10274308630E+03 -0.52706366388E+01  0.58841012024E+03  0.88916848643E+03  0.65864270000E+03 0. -1.
    8880022    1    1    2    0    0 -0.10274308630E+03  0.52706366388E+01 -0.62465242822E+03  0.65128045456E+03  0.15294330000E+03 0.  0.
<mgrwt>
<rscale>  0 0.48340258E+03</rscale>
<asrwt>0</asrwt>
<pdfrwt beam="1">  1        1 0.11570820E+00 0.66662893E+03</pdfrwt>
<pdfrwt beam="2">  1       -1 0.12128394E+00 0.66662893E+03</pdfrwt>
<totfact> 0.15290888E+01</totfact>
</mgrwt>
</event>
<event>
 4    5  0.1074803E-007  0.9267004E+03  0.7818608E-02  0.9484461E-01
         -1   -1    0    0    0  501 -0.00000000000E+00  0.00000000000E+00  0.21055362167E+04  0.21055362167E+04  0.50400000000E-02 0.  1.
          1   -1    0    0  501    0  0.00000000000E+00 -0.00000000000E+00 -0.85326825794E+03  0.85326825796E+03  0.50400000000E-02 0. -1.
    8880023    1    1    2    0    0  0.34633668588E+03  0.55228102381E+03 -0.52114842670E+03  0.10631882797E+04  0.65864270000E+03 0. -1.
    8880022    1    1    2    0    0 -0.34633668588E+03 -0.55228102381E+03  0.17734163854E+04  0.18956161949E+04  0.15294330000E+03 0.  0.
<mgrwt>
<rscale>  0 0.85439220E+03</rscale>
<asrwt>0</asrwt>
<pdfrwt beam="1">  1        1 0.13127204E+00 0.92670040E+03</pdfrwt>
<pdfrwt beam="2">  1       -1 0.32392865E+00 0.92670040E+03</pdfrwt>
<totfact> 0.47261365E-01</totfact>
</mgrwt>
</event>
<event>
 4    5  0.1074803E-007  0.8115716E+03  0.7818608E-02  0.9686313E-01
          1   -1    0    0  501    0  0.00000000000E+00  0.00000000000E+00  0.11340482872E+04  0.11340482873E+04  0.50400000000E-02 0. -1.
         -1   -1    0    0    0  501 -0.00000000000E+00 -0.00000000000E+00 -0.65935575690E+03  0.65935575692E+03  0.50400000000E-02 0.  1.
    8880023    1    1    2    0    0  0.15495403184E+03  0.44813779193E+03  0.84577437397E+03  0.11721700945E+04  0.65864270000E+03 0. -1.
    8880022    1    1    2    0    0 -0.15495403184E+03 -0.44813779193E+03 -0.37108184363E+03  0.62123394967E+03  0.15294330000E+03 0.  0.
<mgrwt>
<rscale>  0 0.71837611E+03</rscale>
<asrwt>0</asrwt>
<pdfrwt beam="1">  1        1 0.17446897E+00 0.81157159E+03</pdfrwt>
<pdfrwt beam="2">  1       -1 0.10143935E+00 0.81157159E+03</pdfrwt>
<totfact> 0.11300145E+01</totfact>
</mgrwt>
</event>
<event>
 4    5  0.1074803E-007  0.6981242E+03  0.7818608E-02  0.1000507E+00
         -1   -1    0    0    0  501 -0.00000000000E+00  0.00000000000E+00  0.33668278001E+03  0.33668278004E+03  0.50400000000E-02 0.  1.
          1   -1    0    0  501    0  0.00000000000E+00 -0.00000000000E+00 -0.19642062052E+04  0.19642062052E+04  0.50400000000E-02 0. -1.
    8880023    1    1    2    0    0 -0.15151279221E+03  0.17496024150E+03 -0.18292125002E+04  0.19579059706E+04  0.65864270000E+03 0. -1.
    8880022    1    1    2    0    0  0.15151279221E+03 -0.17496024150E+03  0.20168907508E+03  0.34298301464E+03  0.15294330000E+03 0.  0.
<mgrwt>
<rscale>  0 0.55428338E+03</rscale>
<asrwt>0</asrwt>
<pdfrwt beam="1">  1        1 0.30218556E+00 0.69812421E+03</pdfrwt>
<pdfrwt beam="2">  1       -1 0.51797352E-01 0.69812421E+03</pdfrwt>
<totfact> 0.12443791E+01</totfact>
</mgrwt>
</event>
<event>
 4    5  0.1074803E-007  0.1117706E+04  0.7818608E-02  0.9241594E-01
          1   -1    0    0  501    0  0.00000000000E+00  0.00000000000E+00  0.32480053516E+04  0.32480053516E+04  0.50400000000E-02 0. -1.
         -1   -1    0    0    0  501 -0.00000000000E+00 -0.00000000000E+00 -0.12925336297E+04  0.12925336297E+04  0.50400000000E-02 0.  1.
    8880023    1    1    2    0    0  0.81975655299E+03 -0.37875664985E+03  0.29702357179E+04  0.31735733538E+04  0.65864270000E+03 0.  0.
    8880022    1    1    2    0    0 -0.81975655299E+03  0.37875664985E+03 -0.10147639960E+04  0.13669656274E+04  0.15294330000E+03 0.  0.
<mgrwt>
<rscale>  0 0.10634236E+04</rscale>
<asrwt>0</asrwt>
<pdfrwt beam="1">  1        1 0.49969313E+00 0.11177064E+04</pdfrwt>
<pdfrwt beam="2">  1       -1 0.19885133E+00 0.11177064E+04</pdfrwt>
<totfact> 0.60582416E-02</totfact>
</mgrwt>
</event>
<event>
 4    5  0.1074803E-007  0.9995179E+03  0.7818608E-02  0.9382189E-01
          1   -1    0    0  501    0  0.00000000000E+00  0.00000000000E+00  0.54513027953E+03  0.54513027955E+03  0.50400000000E-02 0. -1.
         -1   -1    0    0    0  501 -0.00000000000E+00 -0.00000000000E+00 -0.15228724790E+04  0.15228724791E+04  0.50400000000E-02 0.  1.
    8880023    1    1    2    0    0  0.64046043908E+03  0.39374646387E+03 -0.80055130290E+03  0.12805930059E+04  0.65864270000E+03 0.  0.
    8880022    1    1    2    0    0 -0.64046043908E+03 -0.39374646387E+03 -0.17719089662E+03  0.78740975274E+03  0.15294330000E+03 0.  0.
<mgrwt>
<rscale>  0 0.93556094E+03</rscale>
<asrwt>0</asrwt>
<pdfrwt beam="1">  1        1 0.83866197E-01 0.99951791E+03</pdfrwt>
<pdfrwt beam="2">  1       -1 0.23428807E+00 0.99951791E+03</pdfrwt>
<totfact> 0.34973486E+00</totfact>
</mgrwt>
</event>
<event>
 4    5  0.1074803E-007  0.6705595E+03  0.7818608E-02  0.1015265E+00
         -1   -1    0    0    0  501 -0.00000000000E+00  0.00000000000E+00  0.98702485082E+03  0.98702485083E+03  0.50400000000E-02 0.  1.
          1   -1    0    0  501    0  0.00000000000E+00 -0.00000000000E+00 -0.56042571295E+03  0.56042571297E+03  0.50400000000E-02 0. -1.
    8880023    1    1    2    0    0  0.45424946518E+01 -0.12577456788E+03 -0.34270441944E+03  0.75305803332E+03  0.65864270000E+03 0. -1.
    8880022    1    1    2    0    0 -0.45424946518E+01  0.12577456788E+03  0.76930355731E+03  0.79439253048E+03  0.15294330000E+03 0.  0.
<mgrwt>
<rscale>  0 0.49434758E+03</rscale>
<asrwt>0</asrwt>
<pdfrwt beam="1">  1        1 0.86219340E-01 0.67055953E+03</pdfrwt>
<pdfrwt beam="2">  1       -1 0.15184998E+00 0.67055953E+03</pdfrwt>
<totfact> 0.13246779E+01</totfact>
</mgrwt>
</event>
<event>
 4    5  0.1074803E-007  0.8897955E+03  0.7818608E-02  0.9542616E-01
          1   -1    0    0  501    0  0.00000000000E+00  0.00000000000E+00  0.14441198207E+04  0.14441198207E+04  0.50400000000E-02 0. -1.
         -1   -1    0    0    0  501 -0.00000000000E+00 -0.00000000000E+00 -0.67930865066E+03  0.67930865068E+03  0.50400000000E-02 0.  1.
    8880023    1    1    2    0    0  0.49498359545E+03 -0.33603125063E+03  0.11047586567E+04  0.14185301044E+04  0.65864270000E+03 0.  1.
    8880022    1    1    2    0    0 -0.49498359545E+03  0.33603125063E+03 -0.33994748665E+03  0.70489836704E+03  0.15294330000E+03 0.  0.
<mgrwt>
<rscale>  0 0.81213545E+03</rscale>
<asrwt>0</asrwt>
<pdfrwt beam="1">  1        1 0.22217228E+00 0.88979546E+03</pdfrwt>
<pdfrwt beam="2">  1       -1 0.10450902E+00 0.88979546E+03</pdfrwt>
<totfact> 0.62752991E+00</totfact>
</mgrwt>
</event>
<event>
 4    5  0.1074803E-007  0.7964788E+03  0.7818608E-02  0.9718462E-01
          1   -1    0    0  501    0  0.00000000000E+00  0.00000000000E+00  0.14757024670E+04  0.14757024671E+04  0.50400000000E-02 0. -1.
         -1   -1    0    0    0  501 -0.00000000000E+00 -0.00000000000E+00 -0.76987483987E+03  0.76987483989E+03  0.50400000000E-02 0.  1.
    8880023    1    1    2    0    0 -0.19472607833E+03  0.40329902408E+03  0.12762563755E+04  0.15043965204E+04  0.65864270000E+03 0. -1.
    8880022    1    1    2    0    0  0.19472607833E+03 -0.40329902408E+03 -0.57042874831E+03  0.74118078653E+03  0.15294330000E+03 0.  0.
<mgrwt>
<rscale>  0 0.69928143E+03</rscale>
<asrwt>0</asrwt>
<pdfrwt beam="1">  1        1 0.22703115E+00 0.79647885E+03</pdfrwt>
<pdfrwt beam="2">  1       -1 0.11844228E+00 0.79647885E+03</pdfrwt>
<totfact> 0.44960958E+00</totfact>
</mgrwt>
</event>
<event>
 4    5  0.1074803E-007  0.1100658E+04  0.7818608E-02  0.9260324E-01
          1   -1    0    0  501    0  0.00000000000E+00  0.00000000000E+00  0.34513551035E+04  0.34513551035E+04  0.50400000000E-02 0. -1.
         -1   -1    0    0    0  501 -0.00000000000E+00 -0.00000000000E+00 -0.78541471755E+03  0.78541471757E+03  0.50400000000E-02 0.  1.
    8880023    1    1    2    0    0 -0.33588650531E+03 -0.81536359929E+03  0.30651460907E+04  0.32567726827E+04  0.65864270000E+03 0.  0.
    8880022    1    1    2    0    0  0.33588650531E+03  0.81536359929E+03 -0.39920570472E+03  0.97999713835E+03  0.15294330000E+03 0.  0.
<mgrwt>
<rscale>  0 0.10451901E+04</rscale>
<asrwt>0</asrwt>
<pdfrwt beam="1">  1        1 0.53097770E+00 0.11006579E+04</pdfrwt>
<pdfrwt beam="2">  1       -1 0.12083304E+00 0.11006579E+04</pdfrwt>
<totfact> 0.16920637E-01</totfact>
</mgrwt>
</event>
<event>
 4    5  0.1074803E-007  0.7696973E+03  0.7818608E-02  0.9780620E-01
         -1   -1    0    0    0  501 -0.00000000000E+00  0.00000000000E+00  0.38737214978E+03  0.38737214981E+03  0.50400000000E-02 0.  1.
          1   -1    0    0  501    0  0.00000000000E+00 -0.00000000000E+00 -0.10027050030E+04  0.10027050030E+04  0.50400000000E-02 0. -1.
    8880023    1    1    2    0    0 -0.43032651878E+02  0.39594436147E+03 -0.57654480969E+03  0.96168491220E+03  0.65864270000E+03 0.  0.
    8880022    1    1    2    0    0  0.43032651878E+02 -0.39594436147E+03 -0.38788043547E+02  0.42839224065E+03  0.15294330000E+03 0. -1.
<mgrwt>
<rscale>  0 0.66413061E+03</rscale>
<asrwt>0</asrwt>
<pdfrwt beam="1">  1        1 0.15426231E+00 0.76969731E+03</pdfrwt>
<pdfrwt beam="2">  1       -1 0.59595716E-01 0.76969731E+03</pdfrwt>
<totfact> 0.43964902E+01</totfact>
</mgrwt>
</event>
<event>
 4    5  0.1074803E-007  0.1141930E+04  0.7818608E-02  0.9215748E-01
         -1   -1    0    0    0  501 -0.00000000000E+00  0.00000000000E+00  0.10269432066E+04  0.10269432067E+04  0.50400000000E-02 0.  1.
          1   -1    0    0  501    0  0.00000000000E+00 -0.00000000000E+00 -0.11497486578E+04  0.11497486578E+04  0.50400000000E-02 0. -1.
    8880023    1    1    2    0    0 -0.23606802848E+03 -0.90247739870E+03  0.23515289251E+03  0.11658905002E+04  0.65864270000E+03 0.  1.
    8880022    1    1    2    0    0  0.23606802848E+03  0.90247739870E+03 -0.35795834364E+03  0.10108013643E+04  0.15294330000E+03 0.  1.
<mgrwt>
<rscale>  0 0.10892349E+04</rscale>
<asrwt>0</asrwt>
<pdfrwt beam="1">  1        1 0.17688441E+00 0.11419298E+04</pdfrwt>
<pdfrwt beam="2">  1       -1 0.15799126E+00 0.11419298E+04</pdfrwt>
<totfact> 0.34773484E+00</totfact>
</mgrwt>
</event>
<event>
 4    5  0.1074803E-007  0.6832645E+03  0.7818608E-02  0.1007534E+00
         -1   -1    0    0    0  501 -0.00000000000E+00  0.00000000000E+00  0.98860447440E+02  0.98860447569E+02  0.50400000000E-02 0.  1.
          1   -1    0    0  501    0  0.00000000000E+00 -0.00000000000E+00 -0.21660080125E+04  0.21660080125E+04  0.50400000000E-02 0. -1.
    8880023    1    1    2    0    0  0.15026238701E+03  0.10228124401E+03 -0.16284068407E+04  0.17659443034E+04  0.65864270000E+03 0.  1.
    8880022    1    1    2    0    0 -0.15026238701E+03 -0.10228124401E+03 -0.43874072440E+03  0.49892415665E+03  0.15294330000E+03 0.  0.
<mgrwt>
<rscale>  0 0.52466518E+03</rscale>
<asrwt>0</asrwt>
<pdfrwt beam="1">  1        1 0.33323197E+00 0.68326455E+03</pdfrwt>
<pdfrwt beam="2">  1       -1 0.15209301E-01 0.68326455E+03</pdfrwt>
<totfact> 0.77030343E+01</totfact>
</mgrwt>
</event>
<event>
 4    5  0.1074803E-007  0.8633065E+03  0.7818608E-02  0.9587709E-01
         -1   -1    0    0    0  501 -0.00000000000E+00  0.00000000000E+00  0.13212308096E+04  0.13212308096E+04  0.50400000000E-02 0.  1.
          1   -1    0    0  501    0  0.00000000000E+00 -0.00000000000E+00 -0.10394874269E+04  0.10394874269E+04  0.50400000000E-02 0. -1.
    8880023    1    1    2    0    0 -0.53996640551E+03  0.14115280788E+03 -0.77225498846E+03  0.11583073028E+04  0.65864270000E+03 0. -1.
    8880022    1    1    2    0    0  0.53996640551E+03 -0.14115280788E+03  0.10539983712E+04  0.12024109338E+04  0.15294330000E+03 0.  0.
<mgrwt>
<rscale>  0 0.78115067E+03</rscale>
<asrwt>0</asrwt>
<pdfrwt beam="1">  1        1 0.15992114E+00 0.86330646E+03</pdfrwt>
<pdfrwt beam="2">  1       -1 0.20326628E+00 0.86330646E+03</pdfrwt>
<totfact> 0.20639243E+00</totfact>
</mgrwt>
</event>
<event>
 4    5  0.1074803E-007  0.1038340E+04  0.7818608E-02  0.9333032E-01
          1   -1    0    0  501    0  0.00000000000E+00  0.00000000000E+00  0.17725103260E+04  0.17725103260E+04  0.50400000000E-02 0. -1.
         -1   -1    0    0    0  501 -0.00000000000E+00 -0.00000000000E+00 -0.10386702265E+04  0.10386702265E+04  0.50400000000E-02 0.  1.
    8880023    1    1    2    0    0  0.48845204173E+03 -0.63698804590E+03  0.14096435197E+04  0.17507838892E+04  0.65864270000E+03 0.  0.
    8880022    1    1    2    0    0 -0.48845204173E+03  0.63698804590E+03 -0.67580342019E+03  0.10603966633E+04  0.15294330000E+03 0.  0.
<mgrwt>
<rscale>  0 0.97797956E+03</rscale>
<asrwt>0</asrwt>
<pdfrwt beam="1">  1        1 0.27269389E+00 0.10383397E+04</pdfrwt>
<pdfrwt beam="2">  1       -1 0.15979542E+00 0.10383397E+04</pdfrwt>
<totfact> 0.12508090E+00</totfact>
</mgrwt>
</event>
<event>
 4    5  0.1074803E-007  0.7991912E+03  0.7818608E-02  0.9712548E-01
         -1   -1    0    0    0  501 -0.00000000000E+00  0.00000000000E+00  0.28309798046E+03  0.28309798050E+03  0.50400000000E-02 0.  1.
          1   -1    0    0  501    0  0.00000000000E+00 -0.00000000000E+00 -0.24254541519E+04  0.24254541519E+04  0.50400000000E-02 0. -1.
    8880023    1    1    2    0    0  0.20009278819E+02  0.45221224941E+03 -0.20780718379E+04  0.22264521237E+04  0.65864270000E+03 0. -1.
    8880022    1    1    2    0    0 -0.20009278819E+02 -0.45221224941E+03 -0.64284333542E+02  0.48210000862E+03  0.15294330000E+03 0.  0.
<mgrwt>
<rscale>  0 0.70274598E+03</rscale>
<asrwt>0</asrwt>
<pdfrwt beam="1">  1        1 0.37314678E+00 0.79919115E+03</pdfrwt>
<pdfrwt beam="2">  1       -1 0.43553537E-01 0.79919115E+03</pdfrwt>
<totfact> 0.83025268E+00</totfact>
</mgrwt>
</event>
<event>
 4    5  0.1074803E-007  0.8185562E+03  0.7818608E-02  0.9672023E-01
          1   -1    0    0  501    0  0.00000000000E+00  0.00000000000E+00  0.98686671664E+03  0.98686671665E+03  0.50400000000E-02 0. -1.
         -1   -1    0    0    0  501 -0.00000000000E+00 -0.00000000000E+00 -0.95662406230E+03  0.95662406232E+03  0.50400000000E-02 0.  1.
    8880023    1    1    2    0    0  0.46857579762E+03 -0.12907653700E+03  0.71712596031E+03  0.10882572673E+04  0.65864270000E+03 0. -1.
    8880022    1    1    2    0    0 -0.46857579762E+03  0.12907653700E+03 -0.68688330598E+03  0.85523351171E+03  0.15294330000E+03 0.  0.
<mgrwt>
<rscale>  0 0.72707253E+03</rscale>
<asrwt>0</asrwt>
<pdfrwt beam="1">  1        1 0.15182565E+00 0.81855619E+03</pdfrwt>
<pdfrwt beam="2">  1       -1 0.14717293E+00 0.81855619E+03</pdfrwt>
<totfact> 0.58337301E+00</totfact>
</mgrwt>
</event>
<event>
 4    5  0.1074803E-007  0.6798003E+03  0.7818608E-02  0.1009437E+00
          1   -1    0    0  501    0  0.00000000000E+00  0.00000000000E+00  0.42606162535E+03  0.42606162538E+03  0.50400000000E-02 0. -1.
         -1   -1    0    0    0  501 -0.00000000000E+00 -0.00000000000E+00 -0.15014611754E+04  0.15014611754E+04  0.50400000000E-02 0.  1.
    8880023    1    1    2    0    0 -0.10400483650E+03 -0.13229232704E+03  0.13743567581E+03  0.69355391792E+03  0.65864270000E+03 0. -1.
    8880022    1    1    2    0    0  0.10400483650E+03  0.13229232704E+03 -0.12128352259E+04  0.12339688829E+04  0.15294330000E+03 0.  0.
<mgrwt>
<rscale>  0 0.51699073E+03</rscale>
<asrwt>0</asrwt>
<pdfrwt beam="1">  1        1 0.65547943E-01 0.67980032E+03</pdfrwt>
<pdfrwt beam="2">  1       -1 0.23099402E+00 0.67980032E+03</pdfrwt>
<totfact> 0.53734858E+00</totfact>
</mgrwt>
</event>
<event>
 4    5  0.1074803E-007  0.7748918E+03  0.7818608E-02  0.9767976E-01
          1   -1    0    0  501    0  0.00000000000E+00  0.00000000000E+00  0.46688020160E+03  0.46688020163E+03  0.50400000000E-02 0. -1.
         -1   -1    0    0    0  501 -0.00000000000E+00 -0.00000000000E+00 -0.22869537180E+04  0.22869537180E+04  0.50400000000E-02 0.  1.
    8880023    1    1    2    0    0  0.12702351718E+03  0.38795898102E+03  0.10323650386E+03  0.78173852845E+03  0.65864270000E+03 0. -1.
    8880022    1    1    2    0    0 -0.12702351718E+03 -0.38795898102E+03 -0.19233100202E+04  0.19720953911E+04  0.15294330000E+03 0.  0.
<mgrwt>
<rscale>  0 0.67109823E+03</rscale>
<asrwt>0</asrwt>
<pdfrwt beam="1">  1        1 0.71827725E-01 0.77489183E+03</pdfrwt>
<pdfrwt beam="2">  1       -1 0.35183903E+00 0.77489183E+03</pdfrwt>
<totfact> 0.77929039E-01</totfact>
</mgrwt>
</event>
<event>
 4    5  0.1074803E-007  0.6737172E+03  0.7818608E-02  0.1013127E+00
         -1   -1    0    0    0  501 -0.00000000000E+00  0.00000000000E+00  0.94881617132E+03  0.94881617133E+03  0.50400000000E-02 0.  1.
          1   -1    0    0  501    0  0.00000000000E+00 -0.00000000000E+00 -0.36129402027E+03  0.36129402030E+03  0.50400000000E-02 0. -1.
    8880023    1    1    2    0    0  0.78998322139E+01 -0.14150023128E+03 -0.13597627738E+02  0.67385445353E+03  0.65864270000E+03 0. -1.
    8880022    1    1    2    0    0 -0.78998322139E+01  0.14150023128E+03  0.60111977879E+03  0.63625573810E+03  0.15294330000E+03 0.  0.
<mgrwt>
<rscale>  0 0.50250445E+03</rscale>
<asrwt>0</asrwt>
<pdfrwt beam="1">  1        1 0.55583696E-01 0.67371725E+03</pdfrwt>
<pdfrwt beam="2">  1       -1 0.14597172E+00 0.67371725E+03</pdfrwt>
<totfact> 0.26601465E+01</totfact>
</mgrwt>
</event>
<event>
 4    5  0.1074803E-007  0.8779030E+03  0.7818608E-02  0.9562478E-01
          1   -1    0    0  501    0  0.00000000000E+00  0.00000000000E+00  0.13054429202E+04  0.13054429202E+04  0.50400000000E-02 0. -1.
         -1   -1    0    0    0  501 -0.00000000000E+00 -0.00000000000E+00 -0.12707117490E+04  0.12707117490E+04  0.50400000000E-02 0.  1.
    8880023    1    1    2    0    0 -0.55723855199E+03 -0.16244567971E+03  0.10671930866E+04  0.13818880899E+04  0.65864270000E+03 0.  0.
    8880022    1    1    2    0    0  0.55723855199E+03  0.16244567971E+03 -0.10324619154E+04  0.11942665793E+04  0.15294330000E+03 0.  0.
<mgrwt>
<rscale>  0 0.79830192E+03</rscale>
<asrwt>0</asrwt>
<pdfrwt beam="1">  1        1 0.20083737E+00 0.87790296E+03</pdfrwt>
<pdfrwt beam="2">  1       -1 0.19549411E+00 0.87790296E+03</pdfrwt>
<totfact> 0.14851374E+00</totfact>
</mgrwt>
</event>
<event>
 4    5  0.1074803E-007  0.1304975E+04  0.7818608E-02  0.9061276E-01
          1   -1    0    0  501    0  0.00000000000E+00  0.00000000000E+00  0.26876263672E+04  0.26876263672E+04  0.50400000000E-02 0. -1.
         -1   -1    0    0    0  501 -0.00000000000E+00 -0.00000000000E+00 -0.69846167329E+03  0.69846167330E+03  0.50400000000E-02 0.  1.
    8880023    1    1    2    0    0  0.95171920631E+03  0.60281018518E+03  0.18157366333E+04  0.22360365146E+04  0.65864270000E+03 0.  0.
    8880022    1    1    2    0    0 -0.95171920631E+03 -0.60281018518E+03  0.17342806066E+03  0.11500515259E+04  0.15294330000E+03 0.  0.
<mgrwt>
<rscale>  0 0.12607593E+04</rscale>
<asrwt>0</asrwt>
<pdfrwt beam="1">  1        1 0.41348098E+00 0.13049750E+04</pdfrwt>
<pdfrwt beam="2">  1       -1 0.10745564E+00 0.13049750E+04</pdfrwt>
<totfact> 0.78986893E-01</totfact>
</mgrwt>
</event>
<event>
 4    5  0.1074803E-007  0.8616647E+03  0.7818608E-02  0.9590609E-01
          1   -1    0    0  501    0  0.00000000000E+00  0.00000000000E+00  0.10153214045E+04  0.10153214045E+04  0.50400000000E-02 0. -1.
         -1   -1    0    0    0  501 -0.00000000000E+00 -0.00000000000E+00 -0.58460431245E+03  0.58460431247E+03  0.50400000000E-02 0.  1.
    8880023    1    1    2    0    0  0.16143152974E+03  0.53159727217E+03  0.53512174421E+03  0.10143082795E+04  0.65864270000E+03 0. -1.
    8880022    1    1    2    0    0 -0.16143152974E+03 -0.53159727217E+03 -0.10440465219E+03  0.58561743740E+03  0.15294330000E+03 0.  0.
<mgrwt>
<rscale>  0 0.77920859E+03</rscale>
<asrwt>0</asrwt>
<pdfrwt beam="1">  1        1 0.15620329E+00 0.86166467E+03</pdfrwt>
<pdfrwt beam="2">  1       -1 0.89939126E-01 0.86166467E+03</pdfrwt>
<totfact> 0.18103256E+01</totfact>
</mgrwt>
</event>
<event>
 4    5  0.1074803E-007  0.1128877E+04  0.7818608E-02  0.9229567E-01
          1   -1    0    0  501    0  0.00000000000E+00  0.00000000000E+00  0.11720379655E+04  0.11720379655E+04  0.50400000000E-02 0. -1.
         -1   -1    0    0    0  501 -0.00000000000E+00 -0.00000000000E+00 -0.10863839679E+04  0.10863839679E+04  0.50400000000E-02 0.  1.
    8880023    1    1    2    0    0  0.86978188535E+03 -0.28988272442E+03  0.50747647024E+03  0.12376974978E+04  0.65864270000E+03 0.  0.
    8880022    1    1    2    0    0 -0.86978188535E+03  0.28988272442E+03 -0.42182247269E+03  0.10207244356E+04  0.15294330000E+03 0.  0.
<mgrwt>
<rscale>  0 0.10753395E+04</rscale>
<asrwt>0</asrwt>
<pdfrwt beam="1">  1        1 0.18031353E+00 0.11288768E+04</pdfrwt>
<pdfrwt beam="2">  1       -1 0.16713600E+00 0.11288768E+04</pdfrwt>
<totfact> 0.28607264E+00</totfact>
</mgrwt>
</event>
<event>
 4    5  0.1074803E-007  0.7917324E+03  0.7818608E-02  0.9728966E-01
         -1   -1    0    0    0  501 -0.00000000000E+00  0.00000000000E+00  0.11159163925E+04  0.11159163926E+04  0.50400000000E-02 0.  1.
          1   -1    0    0  501    0  0.00000000000E+00 -0.00000000000E+00 -0.59326991165E+03  0.59326991167E+03  0.50400000000E-02 0. -1.
    8880023    1    1    2    0    0 -0.25152495312E+03 -0.36022925084E+03 -0.22991799102E+03  0.82444066133E+03  0.65864270000E+03 0. -1.
    8880022    1    1    2    0    0  0.25152495312E+03  0.36022925084E+03  0.75256447192E+03  0.88474564289E+03  0.15294330000E+03 0.  0.
<mgrwt>
<rscale>  0 0.69318054E+03</rscale>
<asrwt>0</asrwt>
<pdfrwt beam="1">  1        1 0.91272294E-01 0.79173235E+03</pdfrwt>
<pdfrwt beam="2">  1       -1 0.17167944E+00 0.79173235E+03</pdfrwt>
<totfact> 0.85444317E+00</totfact>
</mgrwt>
</event>
<event>
 4    5  0.1074803E-007  0.8335254E+03  0.7818608E-02  0.9642512E-01
         -1   -1    0    0    0  501 -0.00000000000E+00  0.00000000000E+00  0.56988656923E+03  0.56988656925E+03  0.50400000000E-02 0.  1.
          1   -1    0    0  501    0  0.00000000000E+00 -0.00000000000E+00 -0.92554218003E+03  0.92554218004E+03  0.50400000000E-02 0. -1.
    8880023    1    1    2    0    0  0.50427076436E+03  0.81641658083E+02 -0.46006331172E+03  0.95206240404E+03  0.65864270000E+03 0.  1.
    8880022    1    1    2    0    0 -0.50427076436E+03 -0.81641658083E+02  0.10440770092E+03  0.54336634525E+03  0.15294330000E+03 0.  0.
<mgrwt>
<rscale>  0 0.74545257E+03</rscale>
<asrwt>0</asrwt>
<pdfrwt beam="1">  1        1 0.14239110E+00 0.83352539E+03</pdfrwt>
<pdfrwt beam="2">  1       -1 0.87674857E-01 0.83352539E+03</pdfrwt>
<totfact> 0.22603657E+01</totfact>
</mgrwt>
</event>
<event>
 4    5  0.1074803E-007  0.1034024E+04  0.7818608E-02  0.9338338E-01
         -1   -1    0    0    0  501 -0.00000000000E+00  0.00000000000E+00  0.11242906558E+04  0.11242906558E+04  0.50400000000E-02 0.  1.
          1   -1    0    0  501    0  0.00000000000E+00 -0.00000000000E+00 -0.10261988799E+04  0.10261988799E+04  0.50400000000E-02 0. -1.
    8880023    1    1    2    0    0  0.76259570565E+03 -0.23204153094E+03 -0.49385588307E+03  0.11459054594E+04  0.65864270000E+03 0. -1.
    8880022    1    1    2    0    0 -0.76259570565E+03  0.23204153094E+03  0.59194765895E+03  0.10045840763E+04  0.15294330000E+03 0.  0.
<mgrwt>
<rscale>  0 0.97328742E+03</rscale>
<asrwt>0</asrwt>
<pdfrwt beam="1">  1        1 0.15787675E+00 0.10340240E+04</pdfrwt>
<pdfrwt beam="2">  1       -1 0.17296779E+00 0.10340240E+04</pdfrwt>
<totfact> 0.33756643E+00</totfact>
</mgrwt>
</event>
<event>
 4    5  0.1074803E-007  0.7013541E+03  0.7818608E-02  0.9991630E-01
         -1   -1    0    0    0  501 -0.00000000000E+00  0.00000000000E+00  0.26913008559E+03  0.26913008564E+03  0.50400000000E-02 0.  1.
          1   -1    0    0  501    0  0.00000000000E+00 -0.00000000000E+00 -0.14433217394E+04  0.14433217394E+04  0.50400000000E-02 0. -1.
    8880023    1    1    2    0    0 -0.45695778728E+01  0.24096987310E+03 -0.12353217524E+04  0.14205341949E+04  0.65864270000E+03 0.  0.
    8880022    1    1    2    0    0  0.45695778728E+01 -0.24096987310E+03  0.61130098612E+02  0.29191763008E+03  0.15294330000E+03 0.  0.
<mgrwt>
<rscale>  0 0.56018790E+03</rscale>
<asrwt>0</asrwt>
<pdfrwt beam="1">  1        1 0.22204949E+00 0.70135410E+03</pdfrwt>
<pdfrwt beam="2">  1       -1 0.41404629E-01 0.70135410E+03</pdfrwt>
<totfact> 0.42370327E+01</totfact>
</mgrwt>
</event>
<event>
 4    5  0.1074803E-007  0.1005230E+04  0.7818608E-02  0.9374747E-01
          1   -1    0    0  501    0  0.00000000000E+00  0.00000000000E+00  0.27215454782E+04  0.27215454782E+04  0.50400000000E-02 0. -1.
         -1   -1    0    0    0  501 -0.00000000000E+00 -0.00000000000E+00 -0.78338720511E+03  0.78338720513E+03  0.50400000000E-02 0.  1.
    8880023    1    1    2    0    0  0.70849215091E+03 -0.27334220824E+03  0.24007306542E+04  0.26026899491E+04  0.65864270000E+03 0.  0.
    8880022    1    1    2    0    0 -0.70849215091E+03  0.27334220824E+03 -0.46257238113E+03  0.90224273425E+03  0.15294330000E+03 0.  0.
<mgrwt>
<rscale>  0 0.94183364E+03</rscale>
<asrwt>0</asrwt>
<pdfrwt beam="1">  1        1 0.41869930E+00 0.10052300E+04</pdfrwt>
<pdfrwt beam="2">  1       -1 0.12052111E+00 0.10052300E+04</pdfrwt>
<totfact> 0.59282590E-01</totfact>
</mgrwt>
</event>
<event>
 4    5  0.1074803E-007  0.9260039E+03  0.7818608E-02  0.9485514E-01
         -1   -1    0    0    0  501 -0.00000000000E+00  0.00000000000E+00  0.44988348219E+03  0.44988348221E+03  0.50400000000E-02 0.  1.
          1   -1    0    0  501    0  0.00000000000E+00 -0.00000000000E+00 -0.19130646028E+04  0.19130646028E+04  0.50400000000E-02 0. -1.
    8880023    1    1    2    0    0 -0.61016019770E+03  0.22666625946E+03 -0.14169806343E+04  0.16927248401E+04  0.65864270000E+03 0.  0.
    8880022    1    1    2    0    0  0.61016019770E+03 -0.22666625946E+03 -0.46200486274E+02  0.67022324489E+03  0.15294330000E+03 0.  0.
<mgrwt>
<rscale>  0 0.85360297E+03</rscale>
<asrwt>0</asrwt>
<pdfrwt beam="1">  1        1 0.29431763E+00 0.92600392E+03</pdfrwt>
<pdfrwt beam="2">  1       -1 0.69212844E-01 0.92600392E+03</pdfrwt>
<totfact> 0.73508810E+00</totfact>
</mgrwt>
</event>
<event>
 4    5  0.1074803E-007  0.1104356E+04  0.7818608E-02  0.9256222E-01
          1   -1    0    0  501    0  0.00000000000E+00  0.00000000000E+00  0.22192901288E+04  0.22192901289E+04  0.50400000000E-02 0. -1.
         -1   -1    0    0    0  501 -0.00000000000E+00 -0.00000000000E+00 -0.66928102221E+03  0.66928102223E+03  0.50400000000E-02 0.  1.
    8880023    1    1    2    0    0 -0.42003109414E+02 -0.88545353306E+03  0.16478850514E+04  0.19837155969E+04  0.65864270000E+03 0. -1.
    8880022    1    1    2    0    0  0.42003109414E+02  0.88545353306E+03 -0.97875944760E+02  0.90485555421E+03  0.15294330000E+03 0.  0.
<mgrwt>
<rscale>  0 0.10491504E+04</rscale>
<asrwt>0</asrwt>
<pdfrwt beam="1">  1        1 0.34142925E+00 0.11043561E+04</pdfrwt>
<pdfrwt beam="2">  1       -1 0.10296631E+00 0.11043561E+04</pdfrwt>
<totfact> 0.18821298E+00</totfact>
</mgrwt>
</event>
<event>
 4    5  0.1074803E-007  0.7477380E+03  0.7818608E-02  0.9837954E-01
          1   -1    0    0  501    0  0.00000000000E+00  0.00000000000E+00  0.12835164325E+04  0.12835164325E+04  0.50400000000E-02 0. -1.
         -1   -1    0    0    0  501 -0.00000000000E+00 -0.00000000000E+00 -0.29114802510E+03  0.29114802515E+03  0.50400000000E-02 0.  1.
    8880023    1    1    2    0    0 -0.23948003784E+03  0.26067449199E+03  0.91448752500E+03  0.11812702989E+04  0.65864270000E+03 0.  0.
    8880022    1    1    2    0    0  0.23948003784E+03 -0.26067449199E+03  0.77880882355E+02  0.39339415876E+03  0.15294330000E+03 0.  0.
<mgrwt>
<rscale>  0 0.63364876E+03</rscale>
<asrwt>0</asrwt>
<pdfrwt beam="1">  1        1 0.19746407E+00 0.74773798E+03</pdfrwt>
<pdfrwt beam="2">  1       -1 0.44792004E-01 0.74773798E+03</pdfrwt>
<totfact> 0.47150577E+01</totfact>
</mgrwt>
</event>
<event>
 4    5  0.1074803E-007  0.6757453E+03  0.7818608E-02  0.1011841E+00
          1   -1    0    0  501    0  0.00000000000E+00  0.00000000000E+00  0.33104609023E+04  0.33104609023E+04  0.50400000000E-02 0. -1.
         -1   -1    0    0    0  501 -0.00000000000E+00 -0.00000000000E+00 -0.12603320767E+03  0.12603320777E+03  0.50400000000E-02 0.  1.
    8880023    1    1    2    0    0  0.10461037702E+03  0.10898704824E+03  0.31464472014E+04  0.32181923039E+04  0.65864270000E+03 0. -1.
    8880022    1    1    2    0    0 -0.10461037702E+03 -0.10898704824E+03  0.37980493184E+02  0.21830180609E+03  0.15294330000E+03 0.  0.
<mgrwt>
<rscale>  0 0.50749642E+03</rscale>
<asrwt>0</asrwt>
<pdfrwt beam="1">  1        1 0.50930169E+00 0.67574530E+03</pdfrwt>
<pdfrwt beam="2">  1       -1 0.19389724E-01 0.67574530E+03</pdfrwt>
<totfact> 0.81965782E+00</totfact>
</mgrwt>
</event>
<event>
 4    5  0.1074803E-007  0.6791117E+03  0.7818608E-02  0.1009831E+00
          1   -1    0    0  501    0  0.00000000000E+00  0.00000000000E+00  0.74390621170E+03  0.74390621172E+03  0.50400000000E-02 0. -1.
         -1   -1    0    0    0  501 -0.00000000000E+00 -0.00000000000E+00 -0.68313628239E+03  0.68313628240E+03  0.50400000000E-02 0.  1.
    8880023    1    1    2    0    0  0.11992482323E+03 -0.11401961639E+03  0.55941354353E+03  0.87985007535E+03  0.65864270000E+03 0. -1.
    8880022    1    1    2    0    0 -0.11992482323E+03  0.11401961639E+03 -0.49864361421E+03  0.54719241877E+03  0.15294330000E+03 0.  0.
<mgrwt>
<rscale>  0 0.51541987E+03</rscale>
<asrwt>0</asrwt>
<pdfrwt beam="1">  1        1 0.11444711E+00 0.67911166E+03</pdfrwt>
<pdfrwt beam="2">  1       -1 0.10509789E+00 0.67911166E+03</pdfrwt>
<totfact> 0.21819510E+01</totfact>
</mgrwt>
</event>
<event>
 4    5  0.1074803E-007  0.7759641E+03  0.7818608E-02  0.9765404E-01
         -1   -1    0    0    0  501 -0.00000000000E+00  0.00000000000E+00  0.25429170882E+03  0.25429170887E+03  0.50400000000E-02 0.  1.
          1   -1    0    0  501    0  0.00000000000E+00 -0.00000000000E+00 -0.22741161560E+04  0.22741161560E+04  0.50400000000E-02 0. -1.
    8880023    1    1    2    0    0  0.40973288316E+03  0.20714764529E+02 -0.19317866048E+04  0.20818068665E+04  0.65864270000E+03 0.  0.
    8880022    1    1    2    0    0 -0.40973288316E+03 -0.20714764529E+02 -0.88037842457E+02  0.44660099836E+03  0.15294330000E+03 0.  0.
<mgrwt>
<rscale>  0 0.67252667E+03</rscale>
<asrwt>0</asrwt>
<pdfrwt beam="1">  1        1 0.34986401E+00 0.77596414E+03</pdfrwt>
<pdfrwt beam="2">  1       -1 0.39121803E-01 0.77596414E+03</pdfrwt>
<totfact> 0.12839026E+01</totfact>
</mgrwt>
</event>
<event>
 4    5  0.1074803E-007  0.9190871E+03  0.7818608E-02  0.9496060E-01
          1   -1    0    0  501    0  0.00000000000E+00  0.00000000000E+00  0.25764964351E+04  0.25764964351E+04  0.50400000000E-02 0. -1.
         -1   -1    0    0    0  501 -0.00000000000E+00 -0.00000000000E+00 -0.40350981250E+03  0.40350981253E+03  0.50400000000E-02 0.  1.
    8880023    1    1    2    0    0 -0.59160854646E+03 -0.24679996039E+03  0.21297154098E+04  0.23195708279E+04  0.65864270000E+03 0.  0.
    8880022    1    1    2    0    0  0.59160854646E+03  0.24679996039E+03  0.43271212762E+02  0.66043541968E+03  0.15294330000E+03 0.  0.
<mgrwt>
<rscale>  0 0.84574911E+03</rscale>
<asrwt>0</asrwt>
<pdfrwt beam="1">  1        1 0.39638409E+00 0.91908710E+03</pdfrwt>
<pdfrwt beam="2">  1       -1 0.62078429E-01 0.91908710E+03</pdfrwt>
<totfact> 0.32560441E+00</totfact>
</mgrwt>
</event>
<event>
 4    5  0.1074803E-007  0.1007879E+04  0.7818608E-02  0.9371321E-01
          1   -1    0    0  501    0  0.00000000000E+00  0.00000000000E+00  0.13371813734E+04  0.13371813734E+04  0.50400000000E-02 0. -1.
         -1   -1    0    0    0  501 -0.00000000000E+00 -0.00000000000E+00 -0.14157292807E+04  0.14157292807E+04  0.50400000000E-02 0.  1.
    8880023    1    1    2    0    0  0.74466683881E+03 -0.16577558355E+03 -0.10849174619E+04  0.14808329920E+04  0.65864270000E+03 0.  1.
    8880022    1    1    2    0    0 -0.74466683881E+03  0.16577558355E+03  0.10063695546E+04  0.12720776621E+04  0.15294330000E+03 0.  0.
<mgrwt>
<rscale>  0 0.94473897E+03</rscale>
<asrwt>0</asrwt>
<pdfrwt beam="1">  1        1 0.20572021E+00 0.10078792E+04</pdfrwt>
<pdfrwt beam="2">  1       -1 0.21780450E+00 0.10078792E+04</pdfrwt>
<totfact> 0.97457344E-01</totfact>
</mgrwt>
</event>
<event>
 4    5  0.1074803E-007  0.1212637E+04  0.7818608E-02  0.9144935E-01
          1   -1    0    0  501    0  0.00000000000E+00  0.00000000000E+00  0.11624528848E+04  0.11624528848E+04  0.50400000000E-02 0. -1.
         -1   -1    0    0    0  501 -0.00000000000E+00 -0.00000000000E+00 -0.14789749423E+04  0.14789749423E+04  0.50400000000E-02 0.  1.
    8880023    1    1    2    0    0  0.96265493772E+03  0.33162291164E+03  0.51551101882E+03  0.13176646392E+04  0.65864270000E+03 0.  0.
    8880022    1    1    2    0    0 -0.96265493772E+03 -0.33162291164E+03 -0.83203307634E+03  0.13237631880E+04  0.15294330000E+03 0.  0.
<mgrwt>
<rscale>  0 0.11640320E+04</rscale>
<asrwt>0</asrwt>
<pdfrwt beam="1">  1        1 0.17883891E+00 0.12126370E+04</pdfrwt>
<pdfrwt beam="2">  1       -1 0.22753461E+00 0.12126370E+04</pdfrwt>
<totfact> 0.10929551E+00</totfact>
</mgrwt>
</event>
<event>
 4    5  0.1074803E-007  0.1068406E+04  0.7818608E-02  0.9297075E-01
         -1   -1    0    0    0  501 -0.00000000000E+00  0.00000000000E+00  0.80350655772E+03  0.80350655773E+03  0.50400000000E-02 0.  1.
          1   -1    0    0  501    0  0.00000000000E+00 -0.00000000000E+00 -0.20133039496E+04  0.20133039496E+04  0.50400000000E-02 0. -1.
    8880023    1    1    2    0    0  0.38598275472E+03 -0.74746179074E+03 -0.15617028660E+04  0.18921965710E+04  0.65864270000E+03 0.  0.
    8880022    1    1    2    0    0 -0.38598275472E+03  0.74746179074E+03  0.35190547407E+03  0.92461393633E+03  0.15294330000E+03 0.  0.
<mgrwt>
<rscale>  0 0.10105259E+04</rscale>
<asrwt>0</asrwt>
<pdfrwt beam="1">  1        1 0.30973907E+00 0.10684063E+04</pdfrwt>
<pdfrwt beam="2">  1       -1 0.12361639E+00 0.10684063E+04</pdfrwt>
<totfact> 0.16813805E+00</totfact>
</mgrwt>
</event>
<event>
 4    5  0.1074803E-007  0.1050220E+04  0.7818608E-02  0.9318617E-01
          1   -1    0    0  501    0  0.00000000000E+00  0.00000000000E+00  0.28476765011E+04  0.28476765011E+04  0.50400000000E-02 0. -1.
         -1   -1    0    0    0  501 -0.00000000000E+00 -0.00000000000E+00 -0.41916343074E+03  0.41916343077E+03  0.50400000000E-02 0.  1.
    8880023    1    1    2    0    0 -0.79507772811E+03  0.19236006860E+03  0.21439183303E+04  0.23873305182E+04  0.65864270000E+03 0.  0.
    8880022    1    1    2    0    0  0.79507772811E+03 -0.19236006860E+03  0.28459474007E+03  0.87950941372E+03  0.15294330000E+03 0.  0.
<mgrwt>
<rscale>  0 0.99086823E+03</rscale>
<asrwt>0</asrwt>
<pdfrwt beam="1">  1        1 0.43810410E+00 0.10502196E+04</pdfrwt>
<pdfrwt beam="2">  1       -1 0.64486679E-01 0.10502196E+04</pdfrwt>
<totfact> 0.19114858E+00</totfact>
</mgrwt>
</event>
<event>
 4    5  0.1074803E-007  0.7499314E+03  0.7818608E-02  0.9831908E-01
          1   -1    0    0  501    0  0.00000000000E+00  0.00000000000E+00  0.52297104428E+04  0.52297104428E+04  0.50400000000E-02 0. -1.
         -1   -1    0    0    0  501 -0.00000000000E+00 -0.00000000000E+00 -0.60885181710E+03  0.60885181712E+03  0.50400000000E-02 0.  1.
    8880023    1    1    2    0    0 -0.18801176817E+03  0.30534982638E+03  0.51371608944E+04  0.51916104633E+04  0.65864270000E+03 0. -1.
    8880022    1    1    2    0    0  0.18801176817E+03 -0.30534982638E+03 -0.51630226872E+03  0.64695179661E+03  0.15294330000E+03 0.  0.
<mgrwt>
<rscale>  0 0.63677935E+03</rscale>
<asrwt>0</asrwt>
<pdfrwt beam="1">  1        1 0.80457082E+00 0.74993143E+03</pdfrwt>
<pdfrwt beam="2">  1       -1 0.93669513E-01 0.74993143E+03</pdfrwt>
<totfact> 0.55751462E-03</totfact>
</mgrwt>
</event>
<event>
 4    5  0.1074803E-007  0.8099990E+03  0.7818608E-02  0.9689579E-01
         -1   -1    0    0    0  501 -0.00000000000E+00  0.00000000000E+00  0.13115358319E+04  0.13115358319E+04  0.50400000000E-02 0.  1.
          1   -1    0    0  501    0  0.00000000000E+00 -0.00000000000E+00 -0.16147474853E+04  0.16147474853E+04  0.50400000000E-02 0. -1.
    8880023    1    1    2    0    0  0.46167945310E+03 -0.95604370873E+02 -0.14589609395E+04  0.16687316568E+04  0.65864270000E+03 0. -1.
    8880022    1    1    2    0    0 -0.46167945310E+03  0.95604370873E+02  0.11557492861E+04  0.12575516604E+04  0.15294330000E+03 0.  0.
<mgrwt>
<rscale>  0 0.71640651E+03</rscale>
<asrwt>0</asrwt>
<pdfrwt beam="1">  1        1 0.24842269E+00 0.80999896E+03</pdfrwt>
<pdfrwt beam="2">  1       -1 0.20177474E+00 0.80999896E+03</pdfrwt>
<totfact> 0.83173251E-01</totfact>
</mgrwt>
</event>
<event>
 4    5  0.1074803E-007  0.1278830E+04  0.7818608E-02  0.9084061E-01
         -1   -1    0    0    0  501 -0.00000000000E+00  0.00000000000E+00  0.71631914030E+03  0.71631914032E+03  0.50400000000E-02 0.  1.
          1   -1    0    0  501    0  0.00000000000E+00 -0.00000000000E+00 -0.21607096195E+04  0.21607096195E+04  0.50400000000E-02 0. -1.
    8880023    1    1    2    0    0 -0.50318428662E+03  0.97385878492E+03 -0.11778352624E+04  0.17385918069E+04  0.65864270000E+03 0.  0.
    8880022    1    1    2    0    0  0.50318428662E+03 -0.97385878492E+03 -0.26655521679E+03  0.11384369530E+04  0.15294330000E+03 0.  0.
<mgrwt>
<rscale>  0 0.12334626E+04</rscale>
<asrwt>0</asrwt>
<pdfrwt beam="1">  1        1 0.33241686E+00 0.12788298E+04</pdfrwt>
<pdfrwt beam="2">  1       -1 0.11020295E+00 0.12788298E+04</pdfrwt>
<totfact> 0.17206928E+00</totfact>
</mgrwt>
</event>
<event>
 4    5  0.1074803E-007  0.7267200E+03  0.7818608E-02  0.9900471E-01
          1   -1    0    0  501    0  0.00000000000E+00  0.00000000000E+00  0.41030863285E+04  0.41030863285E+04  0.50400000000E-02 0. -1.
         -1   -1    0    0    0  501 -0.00000000000E+00 -0.00000000000E+00 -0.77539180226E+03  0.77539180227E+03  0.50400000000E-02 0.  1.
    8880023    1    1    2    0    0 -0.29015518238E+03 -0.10060655717E+03  0.40309848979E+04  0.40959688918E+04  0.65864270000E+03 0. -1.
    8880022    1    1    2    0    0  0.29015518238E+03  0.10060655717E+03 -0.70329037166E+03  0.78250923898E+03  0.15294330000E+03 0.  0.
<mgrwt>
<rscale>  0 0.60238470E+03</rscale>
<asrwt>0</asrwt>
<pdfrwt beam="1">  1        1 0.63124406E+00 0.72671997E+03</pdfrwt>
<pdfrwt beam="2">  1       -1 0.11929105E+00 0.72671997E+03</pdfrwt>
<totfact> 0.55407304E-02</totfact>
</mgrwt>
</event>
<event>
 4    5  0.1074803E-007  0.7000323E+03  0.7818608E-02  0.9997067E-01
         -1   -1    0    0    0  501 -0.00000000000E+00  0.00000000000E+00  0.74627893534E+03  0.74627893535E+03  0.50400000000E-02 0.  1.
          1   -1    0    0  501    0  0.00000000000E+00 -0.00000000000E+00 -0.12045934940E+04  0.12045934940E+04  0.50400000000E-02 0. -1.
    8880023    1    1    2    0    0 -0.23664312524E+03  0.15331604685E+02 -0.10691897757E+04  0.12779718344E+04  0.65864270000E+03 0.  0.
    8880022    1    1    2    0    0  0.23664312524E+03 -0.15331604685E+02  0.61087521706E+03  0.67290059493E+03  0.15294330000E+03 0.  0.
<mgrwt>
<rscale>  0 0.55779021E+03</rscale>
<asrwt>0</asrwt>
<pdfrwt beam="1">  1        1 0.18532208E+00 0.70003231E+03</pdfrwt>
<pdfrwt beam="2">  1       -1 0.11481214E+00 0.70003231E+03</pdfrwt>
<totfact> 0.76293711E+00</totfact>
</mgrwt>
</event>
<event>
 4    5  0.1074803E-007  0.6629166E+03  0.7818608E-02  0.1021349E+00
          1   -1    0    0  501    0  0.00000000000E+00  0.00000000000E+00  0.13382728135E+04  0.13382728135E+04  0.50400000000E-02 0. -1.
         -1   -1    0    0    0  501 -0.00000000000E+00 -0.00000000000E+00 -0.24936202208E+03  0.24936202213E+03  0.50400000000E-02 0.  1.
    8880023    1    1    2    0    0 -0.75066268429E+02  0.36412778501E+01  0.12092360436E+04  0.13790250973E+04  0.65864270000E+03 0. -1.
    8880022    1    1    2    0    0  0.75066268429E+02 -0.36412778501E+01 -0.12032525225E+03  0.20860973828E+03  0.15294330000E+03 0.  0.
<mgrwt>
<rscale>  0 0.47202878E+03</rscale>
<asrwt>0</asrwt>
<pdfrwt beam="1">  1        1 0.20588813E+00 0.66291659E+03</pdfrwt>
<pdfrwt beam="2">  1       -1 0.38363388E-01 0.66291659E+03</pdfrwt>
<totfact> 0.57814809E+01</totfact>
</mgrwt>
</event>
<event>
 4    5  0.1074803E-007  0.1181143E+04  0.7818608E-02  0.9175674E-01
          1   -1    0    0  501    0  0.00000000000E+00  0.00000000000E+00  0.27821513220E+04  0.27821513220E+04  0.50400000000E-02 0. -1.
         -1   -1    0    0    0  501 -0.00000000000E+00 -0.00000000000E+00 -0.15210735603E+04  0.15210735603E+04  0.50400000000E-02 0.  1.
    8880023    1    1    2    0    0  0.74296924016E+03  0.63975492847E+03  0.24707864447E+04  0.27385918867E+04  0.65864270000E+03 0.  0.
    8880022    1    1    2    0    0 -0.74296924016E+03 -0.63975492847E+03 -0.12097086830E+04  0.15646329956E+04  0.15294330000E+03 0.  0.
<mgrwt>
<rscale>  0 0.11308082E+04</rscale>
<asrwt>0</asrwt>
<pdfrwt beam="1">  1        1 0.42802328E+00 0.11811435E+04</pdfrwt>
<pdfrwt beam="2">  1       -1 0.23401132E+00 0.11811435E+04</pdfrwt>
<totfact> 0.75634279E-02</totfact>
</mgrwt>
</event>
<event>
 4    5  0.1074803E-007  0.7566664E+03  0.7818608E-02  0.9813815E-01
         -1   -1    0    0    0  501 -0.00000000000E+00  0.00000000000E+00  0.29444746497E+03  0.29444746502E+03  0.50400000000E-02 0.  1.
          1   -1    0    0  501    0  0.00000000000E+00 -0.00000000000E+00 -0.18252763678E+04  0.18252763678E+04  0.50400000000E-02 0. -1.
    8880023    1    1    2    0    0 -0.19045865137E+03 -0.32009271732E+03 -0.15412154419E+04  0.17169417841E+04  0.65864270000E+03 0. -1.
    8880022    1    1    2    0    0  0.19045865137E+03  0.32009271732E+03  0.10386539023E+02  0.40278204872E+03  0.15294330000E+03 0.  0.
<mgrwt>
<rscale>  0 0.64626369E+03</rscale>
<asrwt>0</asrwt>
<pdfrwt beam="1">  1        1 0.28081174E+00 0.75666641E+03</pdfrwt>
<pdfrwt beam="2">  1       -1 0.45299611E-01 0.75666641E+03</pdfrwt>
<totfact> 0.19657598E+01</totfact>
</mgrwt>
</event>
<event>
 4    5  0.1074803E-007  0.1027672E+04  0.7818608E-02  0.9346217E-01
          1   -1    0    0  501    0  0.00000000000E+00  0.00000000000E+00  0.33105463954E+04  0.33105463954E+04  0.50400000000E-02 0. -1.
         -1   -1    0    0    0  501 -0.00000000000E+00 -0.00000000000E+00 -0.56628050101E+03  0.56628050103E+03  0.50400000000E-02 0.  1.
    8880023    1    1    2    0    0  0.74199881023E+03 -0.26784007784E+03  0.28836315763E+04  0.30612810743E+04  0.65864270000E+03 0. -1.
    8880022    1    1    2    0    0 -0.74199881023E+03  0.26784007784E+03 -0.13936568193E+03  0.81554582213E+03  0.15294330000E+03 0.  0.
<mgrwt>
<rscale>  0 0.96637178E+03</rscale>
<asrwt>0</asrwt>
<pdfrwt beam="1">  1        1 0.50931485E+00 0.10276725E+04</pdfrwt>
<pdfrwt beam="2">  1       -1 0.87120075E-01 0.10276725E+04</pdfrwt>
<totfact> 0.46849899E-01</totfact>
</mgrwt>
</event>
<event>
 4    5  0.1074803E-007  0.7200863E+03  0.7818608E-02  0.9922294E-01
          1   -1    0    0  501    0  0.00000000000E+00  0.00000000000E+00  0.14775617863E+04  0.14775617863E+04  0.50400000000E-02 0. -1.
         -1   -1    0    0    0  501 -0.00000000000E+00 -0.00000000000E+00 -0.49766458527E+03  0.49766458530E+03  0.50400000000E-02 0.  1.
    8880023    1    1    2    0    0 -0.28589595570E+03 -0.54567725565E+02  0.13190853617E+04  0.15028341664E+04  0.65864270000E+03 0.  0.
    8880022    1    1    2    0    0  0.28589595570E+03  0.54567725565E+02 -0.33918816065E+03  0.47239220517E+03  0.15294330000E+03 0.  0.
<mgrwt>
<rscale>  0 0.59192891E+03</rscale>
<asrwt>0</asrwt>
<pdfrwt beam="1">  1        1 0.22731720E+00 0.72008634E+03</pdfrwt>
<pdfrwt beam="2">  1       -1 0.76563783E-01 0.72008634E+03</pdfrwt>
<totfact> 0.12093283E+01</totfact>
</mgrwt>
</event>
<event>
 4    5  0.1074803E-007  0.8775630E+03  0.7818608E-02  0.9563055E-01
         -1   -1    0    0    0  501 -0.00000000000E+00  0.00000000000E+00  0.51885672330E+03  0.51885672332E+03  0.50400000000E-02 0.  1.
          1   -1    0    0  501    0  0.00000000000E+00 -0.00000000000E+00 -0.30578000344E+04  0.30578000344E+04  0.50400000000E-02 0. -1.
    8880023    1    1    2    0    0 -0.10107890724E+03  0.57104254091E+03 -0.27912844975E+04  0.29259846004E+04  0.65864270000E+03 0.  0.
    8880022    1    1    2    0    0  0.10107890724E+03 -0.57104254091E+03  0.25234118643E+03  0.65067215739E+03  0.15294330000E+03 0.  0.
<mgrwt>
<rscale>  0 0.79790464E+03</rscale>
<asrwt>0</asrwt>
<pdfrwt beam="1">  1        1 0.47043076E+00 0.87756295E+03</pdfrwt>
<pdfrwt beam="2">  1       -1 0.79824113E-01 0.87756295E+03</pdfrwt>
<totfact> 0.89402837E-01</totfact>
</mgrwt>
</event>
<event>
 4    5  0.1074803E-007  0.9603912E+03  0.7818608E-02  0.9435318E-01
          1   -1    0    0  501    0  0.00000000000E+00  0.00000000000E+00  0.10025540147E+04  0.10025540147E+04  0.50400000000E-02 0. -1.
         -1   -1    0    0    0  501 -0.00000000000E+00 -0.00000000000E+00 -0.12595059997E+04  0.12595059998E+04  0.50400000000E-02 0.  1.
    8880023    1    1    2    0    0 -0.56793193835E+03  0.40742410918E+03  0.61018981135E+03  0.11378413349E+04  0.65864270000E+03 0.  0.
    8880022    1    1    2    0    0  0.56793193835E+03 -0.40742410918E+03 -0.86714179640E+03  0.11242186795E+04  0.15294330000E+03 0.  0.
<mgrwt>
<rscale>  0 0.89225245E+03</rscale>
<asrwt>0</asrwt>
<pdfrwt beam="1">  1        1 0.15423908E+00 0.96039122E+03</pdfrwt>
<pdfrwt beam="2">  1       -1 0.19377015E+00 0.96039122E+03</pdfrwt>
<totfact> 0.25272474E+00</totfact>
</mgrwt>
</event>
<event>
 4    5  0.1074803E-007  0.7970170E+03  0.7818608E-02  0.9717283E-01
          1   -1    0    0  501    0  0.00000000000E+00  0.00000000000E+00  0.13004987971E+04  0.13004987971E+04  0.50400000000E-02 0. -1.
         -1   -1    0    0    0  501 -0.00000000000E+00 -0.00000000000E+00 -0.67787893164E+03  0.67787893166E+03  0.50400000000E-02 0.  1.
    8880023    1    1    2    0    0 -0.24472888274E+03 -0.37620956965E+03  0.10647932504E+04  0.13300453897E+04  0.65864270000E+03 0. -1.
    8880022    1    1    2    0    0  0.24472888274E+03  0.37620956965E+03 -0.44217338501E+03  0.64833233898E+03  0.15294330000E+03 0.  0.
<mgrwt>
<rscale>  0 0.69997004E+03</rscale>
<asrwt>0</asrwt>
<pdfrwt beam="1">  1        1 0.20007674E+00 0.79701698E+03</pdfrwt>
<pdfrwt beam="2">  1       -1 0.10428907E+00 0.79701698E+03</pdfrwt>
<totfact> 0.80507389E+00</totfact>
</mgrwt>
</event>
<event>
 4    5  0.1074803E-007  0.9650224E+03  0.7818608E-02  0.9428822E-01
          1   -1    0    0  501    0  0.00000000000E+00  0.00000000000E+00  0.64382788510E+03  0.64382788512E+03  0.50400000000E-02 0. -1.
         -1   -1    0    0    0  501 -0.00000000000E+00 -0.00000000000E+00 -0.16504801067E+04  0.16504801067E+04  0.50400000000E-02 0.  1.
    8880023    1    1    2    0    0 -0.69220339201E+03 -0.13532390950E+03  0.10311204570E+03  0.97051553137E+03  0.65864270000E+03 0.  0.
    8880022    1    1    2    0    0  0.69220339201E+03  0.13532390950E+03 -0.11097642673E+04  0.13237924605E+04  0.15294330000E+03 0.  0.
<mgrwt>
<rscale>  0 0.89741250E+03</rscale>
<asrwt>0</asrwt>
<pdfrwt beam="1">  1        1 0.99050445E-01 0.96502244E+03</pdfrwt>
<pdfrwt beam="2">  1       -1 0.25392001E+00 0.96502244E+03</pdfrwt>
<totfact> 0.20569970E+00</totfact>
</mgrwt>
</event>
<event>
 4    5  0.1074803E-007  0.1168767E+04  0.7818608E-02  0.9188098E-01
          1   -1    0    0  501    0  0.00000000000E+00  0.00000000000E+00  0.20219454039E+04  0.20219454039E+04  0.50400000000E-02 0. -1.
         -1   -1    0    0    0  501 -0.00000000000E+00 -0.00000000000E+00 -0.11446561701E+04  0.11446561701E+04  0.50400000000E-02 0.  1.
    8880023    1    1    2    0    0 -0.76352923749E+03 -0.59095564962E+03  0.15781171057E+04  0.19637895208E+04  0.65864270000E+03 0.  0.
    8880022    1    1    2    0    0  0.76352923749E+03  0.59095564962E+03 -0.70082787193E+03  0.12028120532E+04  0.15294330000E+03 0.  0.
<mgrwt>
<rscale>  0 0.11177128E+04</rscale>
<asrwt>0</asrwt>
<pdfrwt beam="1">  1        1 0.31106852E+00 0.11687667E+04</pdfrwt>
<pdfrwt beam="2">  1       -1 0.17610095E+00 0.11687667E+04</pdfrwt>
<totfact> 0.63069060E-01</totfact>
</mgrwt>
</event>
<event>
 4    5  0.1074803E-007  0.9969695E+03  0.7818608E-02  0.9385533E-01
          1   -1    0    0  501    0  0.00000000000E+00  0.00000000000E+00  0.17913886562E+04  0.17913886562E+04  0.50400000000E-02 0. -1.
         -1   -1    0    0    0  501 -0.00000000000E+00 -0.00000000000E+00 -0.95622187158E+03  0.95622187159E+03  0.50400000000E-02 0.  1.
    8880023    1    1    2    0    0 -0.29036727563E+03 -0.68980052977E+03  0.14550593868E+04  0.17638440836E+04  0.65864270000E+03 0.  0.
    8880022    1    1    2    0    0  0.29036727563E+03  0.68980052977E+03 -0.61989260219E+03  0.98376644428E+03  0.15294330000E+03 0.  0.
<mgrwt>
<rscale>  0 0.93275859E+03</rscale>
<asrwt>0</asrwt>
<pdfrwt beam="1">  1        1 0.27559825E+00 0.99696947E+03</pdfrwt>
<pdfrwt beam="2">  1       -1 0.14711106E+00 0.99696947E+03</pdfrwt>
<totfact> 0.15315914E+00</totfact>
</mgrwt>
</event>
<event>
 4    5  0.1390737E-007  0.9569830E+03  0.7818608E-02  0.9440137E-01
         -1   -1    0    0    0  501 -0.00000000000E+00  0.00000000000E+00  0.20713929512E+04  0.20713929512E+04  0.50400000000E-02 0.  1.
          1   -1    0    0  501    0  0.00000000000E+00 -0.00000000000E+00 -0.16331330508E+04  0.16331330508E+04  0.50400000000E-02 0. -1.
    8880023    1    1    2    0    0 -0.15983441314E+03 -0.67561760464E+03 -0.14214457813E+04  0.17135706880E+04  0.65864270000E+03 0. -1.
    8880022    1    1    2    0    0  0.15983441314E+03  0.67561760464E+03  0.18597056816E+04  0.19909553140E+04  0.15294330000E+03 0.  0.
<mgrwt>
<rscale>  0 0.88844864E+03</rscale>
<asrwt>0</asrwt>
<pdfrwt beam="1">  1        1 0.25125124E+00 0.95698296E+03</pdfrwt>
<pdfrwt beam="2">  1       -1 0.31867584E+00 0.95698296E+03</pdfrwt>
<totfact> 0.13612038E-01</totfact>
</mgrwt>
</event>
<event>
 4    5  0.1074803E-007  0.8610724E+03  0.7818608E-02  0.9591659E-01
         -1   -1    0    0    0  501 -0.00000000000E+00  0.00000000000E+00  0.45109213095E+03  0.45109213098E+03  0.50400000000E-02 0.  1.
          1   -1    0    0  501    0  0.00000000000E+00 -0.00000000000E+00 -0.14071689219E+04  0.14071689219E+04  0.50400000000E-02 0. -1.
    8880023    1    1    2    0    0 -0.24065525417E+03  0.49972048090E+03 -0.95097744245E+03  0.12828888544E+04  0.65864270000E+03 0. -1.
    8880022    1    1    2    0    0  0.24065525417E+03 -0.49972048090E+03 -0.50993484580E+01  0.57537219846E+03  0.15294330000E+03 0.  0.
<mgrwt>
<rscale>  0 0.77850734E+03</rscale>
<asrwt>0</asrwt>
<pdfrwt beam="1">  1        1 0.21648752E+00 0.86107242E+03</pdfrwt>
<pdfrwt beam="2">  1       -1 0.69398790E-01 0.86107242E+03</pdfrwt>
<totfact> 0.16271768E+01</totfact>
</mgrwt>
</event>
<event>
 4    5  0.1074803E-007  0.8828872E+03  0.7818608E-02  0.9554081E-01
         -1   -1    0    0    0  501 -0.00000000000E+00  0.00000000000E+00  0.38598409740E+03  0.38598409744E+03  0.50400000000E-02 0.  1.
          1   -1    0    0  501    0  0.00000000000E+00 -0.00000000000E+00 -0.20667141484E+04  0.20667141484E+04  0.50400000000E-02 0. -1.
    8880023    1    1    2    0    0  0.36457146077E+03  0.46126693147E+03 -0.16163823290E+04  0.18417876022E+04  0.65864270000E+03 0.  0.
    8880022    1    1    2    0    0 -0.36457146077E+03 -0.46126693147E+03 -0.64347721983E+02  0.61091064356E+03  0.15294330000E+03 0.  0.
<mgrwt>
<rscale>  0 0.80411408E+03</rscale>
<asrwt>0</asrwt>
<pdfrwt beam="1">  1        1 0.31795602E+00 0.88288716E+03</pdfrwt>
<pdfrwt beam="2">  1       -1 0.59382170E-01 0.88288716E+03</pdfrwt>
<totfact> 0.79308518E+00</totfact>
</mgrwt>
</event>
<event>
 4    5  0.1074803E-007  0.7184029E+03  0.7818608E-02  0.9928028E-01
         -1   -1    0    0    0  501 -0.00000000000E+00  0.00000000000E+00  0.63325525479E+03  0.63325525481E+03  0.50400000000E-02 0.  1.
          1   -1    0    0  501    0  0.00000000000E+00 -0.00000000000E+00 -0.14756024515E+04  0.14756024515E+04  0.50400000000E-02 0. -1.
    8880023    1    1    2    0    0  0.26635480127E+03 -0.10652513645E+03 -0.13365081291E+04  0.15173518611E+04  0.65864270000E+03 0. -1.
    8880022    1    1    2    0    0 -0.26635480127E+03  0.10652513645E+03  0.49416093239E+03  0.59150584525E+03  0.15294330000E+03 0.  0.
<mgrwt>
<rscale>  0 0.58921972E+03</rscale>
<asrwt>0</asrwt>
<pdfrwt beam="1">  1        1 0.22701576E+00 0.71840288E+03</pdfrwt>
<pdfrwt beam="2">  1       -1 0.97423885E-01 0.71840288E+03</pdfrwt>
<totfact> 0.71903771E+00</totfact>
</mgrwt>
</event>
<event>
 4    5  0.1074803E-007  0.7570285E+03  0.7818608E-02  0.9812862E-01
          1   -1    0    0  501    0  0.00000000000E+00  0.00000000000E+00  0.96074134709E+03  0.96074134711E+03  0.50400000000E-02 0. -1.
         -1   -1    0    0    0  501 -0.00000000000E+00 -0.00000000000E+00 -0.50287567448E+03  0.50287567451E+03  0.50400000000E-02 0.  1.
    8880023    1    1    2    0    0 -0.29281336165E+03 -0.23139195735E+03  0.66730492883E+03  0.10091521080E+04  0.65864270000E+03 0. -1.
    8880022    1    1    2    0    0  0.29281336165E+03  0.23139195735E+03 -0.20943925622E+03  0.45446491366E+03  0.15294330000E+03 0.  0.
<mgrwt>
<rscale>  0 0.64676838E+03</rscale>
<asrwt>0</asrwt>
<pdfrwt beam="1">  1        1 0.14780636E+00 0.75702847E+03</pdfrwt>
<pdfrwt beam="2">  1       -1 0.77365489E-01 0.75702847E+03</pdfrwt>
<totfact> 0.27932669E+01</totfact>
</mgrwt>
</event>
<event>
 4    5  0.1074803E-007  0.1120228E+04  0.7818608E-02  0.9238862E-01
          1   -1    0    0  501    0  0.00000000000E+00  0.00000000000E+00  0.13952330670E+04  0.13952330670E+04  0.50400000000E-02 0. -1.
         -1   -1    0    0    0  501 -0.00000000000E+00 -0.00000000000E+00 -0.13422546460E+04  0.13422546460E+04  0.50400000000E-02 0.  1.
    8880023    1    1    2    0    0 -0.72836176689E+03  0.53906426893E+03  0.93842826829E+03  0.14613551829E+04  0.65864270000E+03 0.  0.
    8880022    1    1    2    0    0  0.72836176689E+03 -0.53906426893E+03 -0.88544984724E+03  0.12761325301E+04  0.15294330000E+03 0.  0.
<mgrwt>
<rscale>  0 0.10661158E+04</rscale>
<asrwt>0</asrwt>
<pdfrwt beam="1">  1        1 0.21465124E+00 0.11202283E+04</pdfrwt>
<pdfrwt beam="2">  1       -1 0.20650072E+00 0.11202283E+04</pdfrwt>
<totfact> 0.10408492E+00</totfact>
</mgrwt>
</event>
<event>
 4    5  0.1074803E-007  0.6749251E+03  0.7818608E-02  0.1012354E+00
          1   -1    0    0  501    0  0.00000000000E+00  0.00000000000E+00  0.40864899543E+03  0.40864899546E+03  0.50400000000E-02 0. -1.
         -1   -1    0    0    0  501 -0.00000000000E+00 -0.00000000000E+00 -0.78320040387E+03  0.78320040389E+03  0.50400000000E-02 0.  1.
    8880023    1    1    2    0    0 -0.12737539572E+03 -0.74088856756E+02  0.90147205760E+02  0.68091877276E+03  0.65864270000E+03 0. -1.
    8880022    1    1    2    0    0  0.12737539572E+03  0.74088856756E+02 -0.46469861420E+03  0.51093062659E+03  0.15294330000E+03 0.  0.
<mgrwt>
<rscale>  0 0.50549879E+03</rscale>
<asrwt>0</asrwt>
<pdfrwt beam="1">  1        1 0.62869076E-01 0.67492507E+03</pdfrwt>
<pdfrwt beam="2">  1       -1 0.12049237E+00 0.67492507E+03</pdfrwt>
<totfact> 0.36793714E+01</totfact>
</mgrwt>
</event>
<event>
 4    5  0.1074803E-007  0.7848555E+03  0.7818608E-02  0.9744553E-01
          1   -1    0    0  501    0  0.00000000000E+00  0.00000000000E+00  0.86769905266E+03  0.86769905267E+03  0.50400000000E-02 0. -1.
         -1   -1    0    0    0  501 -0.00000000000E+00 -0.00000000000E+00 -0.94977659318E+03  0.94977659319E+03  0.50400000000E-02 0.  1.
    8880023    1    1    2    0    0 -0.36241694239E+03 -0.22548138238E+03  0.60728636595E+03  0.99236829376E+03  0.65864270000E+03 0. -1.
    8880022    1    1    2    0    0  0.36241694239E+03  0.22548138238E+03 -0.68936390647E+03  0.82510735210E+03  0.15294330000E+03 0.  0.
<mgrwt>
<rscale>  0 0.68424992E+03</rscale>
<asrwt>0</asrwt>
<pdfrwt beam="1">  1        1 0.13349216E+00 0.78485546E+03</pdfrwt>
<pdfrwt beam="2">  1       -1 0.14611948E+00 0.78485546E+03</pdfrwt>
<totfact> 0.74495344E+00</totfact>
</mgrwt>
</event>
<event>
 4    5  0.1074803E-007  0.7906798E+03  0.7818608E-02  0.9731323E-01
         -1   -1    0    0    0  501 -0.00000000000E+00  0.00000000000E+00  0.29007595818E+03  0.29007595822E+03  0.50400000000E-02 0.  1.
          1   -1    0    0  501    0  0.00000000000E+00 -0.00000000000E+00 -0.13891028388E+04  0.13891028388E+04  0.50400000000E-02 0. -1.
    8880023    1    1    2    0    0  0.34223617937E+03  0.27246778571E+03 -0.81566072622E+03  0.11359916035E+04  0.65864270000E+03 0.  0.
    8880022    1    1    2    0    0 -0.34223617937E+03 -0.27246778571E+03 -0.28336615441E+03  0.54318719352E+03  0.15294330000E+03 0. -1.
<mgrwt>
<rscale>  0 0.69182081E+03</rscale>
<asrwt>0</asrwt>
<pdfrwt beam="1">  1        1 0.21370813E+00 0.79067977E+03</pdfrwt>
<pdfrwt beam="2">  1       -1 0.44627071E-01 0.79067977E+03</pdfrwt>
<totfact> 0.39836574E+01</totfact>
</mgrwt>
</event>
<event>
 4    5  0.1074803E-007  0.1358177E+04  0.7818608E-02  0.9016881E-01
          1   -1    0    0  501    0  0.00000000000E+00  0.00000000000E+00  0.28081854977E+04  0.28081854977E+04  0.50400000000E-02 0. -1.
         -1   -1    0    0    0  501 -0.00000000000E+00 -0.00000000000E+00 -0.87957744261E+03  0.87957744263E+03  0.50400000000E-02 0.  1.
    8880023    1    1    2    0    0  0.10126634572E+04 -0.62076454791E+03 -0.67615076974E+02  0.13598595172E+04  0.65864270000E+03 0.  0.
    8880022    1    1    2    0    0 -0.10126634572E+04  0.62076454791E+03  0.19962231321E+04  0.23279034232E+04  0.15294330000E+03 0.  0.
<mgrwt>
<rscale>  0 0.13161175E+04</rscale>
<asrwt>0</asrwt>
<pdfrwt beam="1">  1        1 0.43202853E+00 0.13581775E+04</pdfrwt>
<pdfrwt beam="2">  1       -1 0.13531961E+00 0.13581775E+04</pdfrwt>
<totfact> 0.36502192E-01</totfact>
</mgrwt>
</event>
<event>
 4    5  0.1074803E-007  0.7396126E+03  0.7818608E-02  0.9861077E-01
         -1   -1    0    0    0  501 -0.00000000000E+00  0.00000000000E+00  0.13513160595E+04  0.13513160595E+04  0.50400000000E-02 0.  1.
          1   -1    0    0  501    0  0.00000000000E+00 -0.00000000000E+00 -0.13760472084E+04  0.13760472084E+04  0.50400000000E-02 0. -1.
    8880023    1    1    2    0    0 -0.30996800874E+03  0.13090614857E+03 -0.12473266761E+04  0.14501209016E+04  0.65864270000E+03 0. -1.
    8880022    1    1    2    0    0  0.30996800874E+03 -0.13090614857E+03  0.12225955272E+04  0.12772423663E+04  0.15294330000E+03 0.  0.
<mgrwt>
<rscale>  0 0.62185315E+03</rscale>
<asrwt>0</asrwt>
<pdfrwt beam="1">  1        1 0.21169957E+00 0.73961260E+03</pdfrwt>
<pdfrwt beam="2">  1       -1 0.20789478E+00 0.73961260E+03</pdfrwt>
<totfact> 0.11180020E+00</totfact>
</mgrwt>
</event>
<event>
 4    5  0.1074803E-007  0.1187810E+04  0.7818608E-02  0.9169063E-01
          1   -1    0    0  501    0  0.00000000000E+00  0.00000000000E+00  0.19185565734E+04  0.19185565734E+04  0.50400000000E-02 0. -1.
         -1   -1    0    0    0  501 -0.00000000000E+00 -0.00000000000E+00 -0.73070108360E+03  0.73070108362E+03  0.50400000000E-02 0.  1.
    8880023    1    1    2    0    0 -0.98626131489E+03 -0.66119939253E+02  0.11423498826E+04  0.16479856456E+04  0.65864270000E+03 0. -1.
    8880022    1    1    2    0    0  0.98626131489E+03  0.66119939253E+02  0.45505607251E+02  0.10012720115E+04  0.15294330000E+03 0.  0.
<mgrwt>
<rscale>  0 0.11378529E+04</rscale>
<asrwt>0</asrwt>
<pdfrwt beam="1">  1        1 0.29516255E+00 0.11878104E+04</pdfrwt>
<pdfrwt beam="2">  1       -1 0.11241555E+00 0.11878104E+04</pdfrwt>
<totfact> 0.24190318E+00</totfact>
</mgrwt>
</event>
<event>
 4    5  0.1074803E-007  0.1160037E+04  0.7818608E-02  0.9196983E-01
         -1   -1    0    0    0  501 -0.00000000000E+00  0.00000000000E+00  0.17598843732E+04  0.17598843732E+04  0.50400000000E-02 0.  1.
          1   -1    0    0  501    0  0.00000000000E+00 -0.00000000000E+00 -0.14825264885E+04  0.14825264885E+04  0.50400000000E-02 0. -1.
    8880023    1    1    2    0    0 -0.95488723560E+03  0.81674946331E+01  0.13621178368E+04  0.17891482746E+04  0.65864270000E+03 0.  1.
    8880022    1    1    2    0    0  0.95488723560E+03 -0.81674946331E+01 -0.10847599521E+04  0.14532625872E+04  0.15294330000E+03 0.  0.
<mgrwt>
<rscale>  0 0.11084624E+04</rscale>
<asrwt>0</asrwt>
<pdfrwt beam="1">  1        1 0.22808100E+00 0.11600373E+04</pdfrwt>
<pdfrwt beam="2">  1       -1 0.27075144E+00 0.11600373E+04</pdfrwt>
<totfact> 0.33951369E-01</totfact>
</mgrwt>
</event>
<event>
 4    5  0.1074803E-007  0.7212713E+03  0.7818608E-02  0.9918307E-01
          1   -1    0    0  501    0  0.00000000000E+00  0.00000000000E+00  0.37304424846E+04  0.37304424846E+04  0.50400000000E-02 0. -1.
         -1   -1    0    0    0  501 -0.00000000000E+00 -0.00000000000E+00 -0.27483925285E+03  0.27483925289E+03  0.50400000000E-02 0.  1.
    8880023    1    1    2    0    0 -0.24265042901E+03  0.16596052134E+03  0.35795382954E+04  0.36514828139E+04  0.65864270000E+03 0. -1.
    8880022    1    1    2    0    0  0.24265042901E+03 -0.16596052134E+03 -0.12393506367E+03  0.35379892363E+03  0.15294330000E+03 0.  0.
<mgrwt>
<rscale>  0 0.59382176E+03</rscale>
<asrwt>0</asrwt>
<pdfrwt beam="1">  1        1 0.57391421E+00 0.72127133E+03</pdfrwt>
<pdfrwt beam="2">  1       -1 0.42282963E-01 0.72127133E+03</pdfrwt>
<totfact> 0.98958189E-01</totfact>
</mgrwt>
</event>
<event>
 4    5  0.1074803E-007  0.7489356E+03  0.7818608E-02  0.9834643E-01
         -1   -1    0    0    0  501 -0.00000000000E+00  0.00000000000E+00  0.10381724000E+04  0.10381724000E+04  0.50400000000E-02 0.  1.
          1   -1    0    0  501    0  0.00000000000E+00 -0.00000000000E+00 -0.62263645249E+03  0.62263645251E+03  0.50400000000E-02 0. -1.
    8880023    1    1    2    0    0  0.11608762094E+03 -0.33707263063E+03 -0.33152608323E+03  0.81903238287E+03  0.65864270000E+03 0.  0.
    8880022    1    1    2    0    0 -0.11608762094E+03  0.33707263063E+03  0.74706203070E+03  0.84177646960E+03  0.15294330000E+03 0.  0.
<mgrwt>
<rscale>  0 0.63536069E+03</rscale>
<asrwt>0</asrwt>
<pdfrwt beam="1">  1        1 0.95790224E-01 0.74893558E+03</pdfrwt>
<pdfrwt beam="2">  1       -1 0.15971883E+00 0.74893558E+03</pdfrwt>
<totfact> 0.98240253E+00</totfact>
</mgrwt>
</event>
<event>
 4    5  0.1074803E-007  0.9703322E+03  0.7818608E-02  0.9421445E-01
          1   -1    0    0  501    0  0.00000000000E+00  0.00000000000E+00  0.17709023548E+04  0.17709023548E+04  0.50400000000E-02 0. -1.
         -1   -1    0    0    0  501 -0.00000000000E+00 -0.00000000000E+00 -0.62624234656E+03  0.62624234658E+03  0.50400000000E-02 0.  1.
    8880023    1    1    2    0    0 -0.19856853305E+03  0.68432801136E+03  0.13288799132E+04  0.16454380327E+04  0.65864270000E+03 0. -1.
    8880022    1    1    2    0    0  0.19856853305E+03 -0.68432801136E+03 -0.18421990492E+03  0.75170666874E+03  0.15294330000E+03 0.  1.
<mgrwt>
<rscale>  0 0.90331663E+03</rscale>
<asrwt>0</asrwt>
<pdfrwt beam="1">  1        1 0.27244652E+00 0.97033216E+03</pdfrwt>
<pdfrwt beam="2">  1       -1 0.96344976E-01 0.97033216E+03</pdfrwt>
<totfact> 0.44776816E+00</totfact>
</mgrwt>
</event>
<event>
 4    5  0.1074803E-007  0.7853583E+03  0.7818608E-02  0.9743397E-01
         -1   -1    0    0    0  501 -0.00000000000E+00  0.00000000000E+00  0.40323466720E+03  0.40323466723E+03  0.50400000000E-02 0.  1.
          1   -1    0    0  501    0  0.00000000000E+00 -0.00000000000E+00 -0.20232462974E+04  0.20232462974E+04  0.50400000000E-02 0. -1.
    8880023    1    1    2    0    0 -0.31368207741E+03  0.29082814383E+03 -0.17794362328E+04  0.19450400941E+04  0.65864270000E+03 0. -1.
    8880022    1    1    2    0    0  0.31368207741E+03 -0.29082814383E+03  0.15942460254E+03  0.48144087056E+03  0.15294330000E+03 0.  0.
<mgrwt>
<rscale>  0 0.68490678E+03</rscale>
<asrwt>0</asrwt>
<pdfrwt beam="1">  1        1 0.31126866E+00 0.78535830E+03</pdfrwt>
<pdfrwt beam="2">  1       -1 0.62036103E-01 0.78535830E+03</pdfrwt>
<totfact> 0.78902087E+00</totfact>
</mgrwt>
</event>
<event>
 4    5  0.1074803E-007  0.6621152E+03  0.7818608E-02  0.1022087E+00
          1   -1    0    0  501    0  0.00000000000E+00  0.00000000000E+00  0.32646944143E+03  0.32646944146E+03  0.50400000000E-02 0. -1.
         -1   -1    0    0    0  501 -0.00000000000E+00 -0.00000000000E+00 -0.99955321246E+03  0.99955321247E+03  0.50400000000E-02 0.  1.
    8880023    1    1    2    0    0  0.87687084980E+01  0.67152744815E+02 -0.31359494752E+02  0.66285745493E+03  0.65864270000E+03 0. -1.
    8880022    1    1    2    0    0 -0.87687084980E+01 -0.67152744815E+02 -0.64172427628E+03  0.66316519900E+03  0.15294330000E+03 0.  0.
<mgrwt>
<rscale>  0 0.46941000E+03</rscale>
<asrwt>0</asrwt>
<pdfrwt beam="1">  1        1 0.50226068E-01 0.66211524E+03</pdfrwt>
<pdfrwt beam="2">  1       -1 0.15377742E+00 0.66211524E+03</pdfrwt>
<totfact> 0.26442265E+01</totfact>
</mgrwt>
</event>
<event>
 4    5  0.1074803E-007  0.7593083E+03  0.7818608E-02  0.9806901E-01
         -1   -1    0    0    0  501 -0.00000000000E+00  0.00000000000E+00  0.32286941600E+03  0.32286941604E+03  0.50400000000E-02 0.  1.
          1   -1    0    0  501    0  0.00000000000E+00 -0.00000000000E+00 -0.13206090126E+04  0.13206090127E+04  0.50400000000E-02 0. -1.
    8880023    1    1    2    0    0 -0.36688404418E+03 -0.90194235387E+02 -0.97426880759E+03  0.12352120537E+04  0.65864270000E+03 0. -1.
    8880022    1    1    2    0    0  0.36688404418E+03  0.90194235387E+02 -0.23470789064E+02  0.40826637497E+03  0.15294330000E+03 0.  0.
<mgrwt>
<rscale>  0 0.64993482E+03</rscale>
<asrwt>0</asrwt>
<pdfrwt beam="1">  1        1 0.20317061E+00 0.75930831E+03</pdfrwt>
<pdfrwt beam="2">  1       -1 0.49672219E-01 0.75930831E+03</pdfrwt>
<totfact> 0.36523502E+01</totfact>
</mgrwt>
</event>
<event>
 4    5  0.1074803E-007  0.7430814E+03  0.7818608E-02  0.9851060E-01
          1   -1    0    0  501    0  0.00000000000E+00  0.00000000000E+00  0.15513701393E+04  0.15513701393E+04  0.50400000000E-02 0. -1.
         -1   -1    0    0    0  501 -0.00000000000E+00 -0.00000000000E+00 -0.64061330939E+03  0.64061330941E+03  0.50400000000E-02 0.  1.
    8880023    1    1    2    0    0 -0.16072453877E+03 -0.30418315996E+03  0.13938209684E+04  0.15795274200E+04  0.65864270000E+03 0. -1.
    8880022    1    1    2    0    0  0.16072453877E+03  0.30418315996E+03 -0.48306413853E+03  0.61245602872E+03  0.15294330000E+03 0.  0.
<mgrwt>
<rscale>  0 0.62692881E+03</rscale>
<asrwt>0</asrwt>
<pdfrwt beam="1">  1        1 0.23867232E+00 0.74308141E+03</pdfrwt>
<pdfrwt beam="2">  1       -1 0.98555896E-01 0.74308141E+03</pdfrwt>
<totfact> 0.61929226E+00</totfact>
</mgrwt>
</event>
<event>
 4    5  0.1074803E-007  0.7402920E+03  0.7818608E-02  0.9859097E-01
         -1   -1    0    0    0  501 -0.00000000000E+00  0.00000000000E+00  0.55053440592E+03  0.55053440594E+03  0.50400000000E-02 0.  1.
          1   -1    0    0  501    0  0.00000000000E+00 -0.00000000000E+00 -0.18053445920E+04  0.18053445920E+04  0.50400000000E-02 0. -1.
    8880023    1    1    2    0    0  0.12790924298E+03  0.31282781862E+03 -0.16532835164E+04  0.18114575927E+04  0.65864270000E+03 0. -1.
    8880022    1    1    2    0    0 -0.12790924298E+03 -0.31282781862E+03  0.39847333025E+03  0.54442140524E+03  0.15294330000E+03 0.  0.
<mgrwt>
<rscale>  0 0.62285217E+03</rscale>
<asrwt>0</asrwt>
<pdfrwt beam="1">  1        1 0.27774532E+00 0.74029199E+03</pdfrwt>
<pdfrwt beam="2">  1       -1 0.84697601E-01 0.74029199E+03</pdfrwt>
<totfact> 0.58390880E+00</totfact>
</mgrwt>
</event>
<event>
 4    5  0.1074803E-007  0.7133954E+03  0.7818608E-02  0.9945602E-01
         -1   -1    0    0    0  501 -0.00000000000E+00  0.00000000000E+00  0.52023533024E+03  0.52023533026E+03  0.50400000000E-02 0.  1.
          1   -1    0    0  501    0  0.00000000000E+00 -0.00000000000E+00 -0.89559390795E+03  0.89559390797E+03  0.50400000000E-02 0. -1.
    8880023    1    1    2    0    0 -0.38876621108E+02 -0.27131413408E+03 -0.67483693545E+03  0.98200705025E+03  0.65864270000E+03 0.  0.
    8880022    1    1    2    0    0  0.38876621108E+02  0.27131413408E+03  0.29947835773E+03  0.43382218798E+03  0.15294330000E+03 0.  0.
<mgrwt>
<rscale>  0 0.58101211E+03</rscale>
<asrwt>0</asrwt>
<pdfrwt beam="1">  1        1 0.13778368E+00 0.71339537E+03</pdfrwt>
<pdfrwt beam="2">  1       -1 0.80036205E-01 0.71339537E+03</pdfrwt>
<totfact> 0.29467360E+01</totfact>
</mgrwt>
</event>
<event>
 4    5  0.1074803E-007  0.7979262E+03  0.7818608E-02  0.9715298E-01
         -1   -1    0    0    0  501 -0.00000000000E+00  0.00000000000E+00  0.57234519209E+03  0.57234519211E+03  0.50400000000E-02 0.  1.
          1   -1    0    0  501    0  0.00000000000E+00 -0.00000000000E+00 -0.11717708249E+04  0.11717708249E+04  0.50400000000E-02 0. -1.
    8880023    1    1    2    0    0  0.45000791701E+03  0.19205387220E+02 -0.88316871218E+03  0.11902407961E+04  0.65864270000E+03 0.  0.
    8880022    1    1    2    0    0 -0.45000791701E+03 -0.19205387220E+02  0.28374307935E+03  0.55387522093E+03  0.15294330000E+03 0.  0.
<mgrwt>
<rscale>  0 0.70113208E+03</rscale>
<asrwt>0</asrwt>
<pdfrwt beam="1">  1        1 0.18027243E+00 0.79792617E+03</pdfrwt>
<pdfrwt beam="2">  1       -1 0.88053107E-01 0.79792617E+03</pdfrwt>
<totfact> 0.14578385E+01</totfact>
</mgrwt>
</event>
<event>
 4    5  0.1074803E-007  0.1609545E+04  0.7818608E-02  0.8835921E-01
         -1   -1    0    0    0  501 -0.00000000000E+00  0.00000000000E+00  0.14281065436E+04  0.14281065436E+04  0.50400000000E-02 0.  1.
          1   -1    0    0  501    0  0.00000000000E+00 -0.00000000000E+00 -0.16771305863E+04  0.16771305863E+04  0.50400000000E-02 0. -1.
    8880023    1    1    2    0    0 -0.80828869679E+03  0.12261706183E+04 -0.24893386780E+03  0.16286814542E+04  0.65864270000E+03 0. -1.
    8880022    1    1    2    0    0  0.80828869679E+03 -0.12261706183E+04 -0.90174943987E-01  0.14765556757E+04  0.15294330000E+03 0.  1.
<mgrwt>
<rscale>  0 0.15752149E+04</rscale>
<asrwt>0</asrwt>
<pdfrwt beam="1">  1        1 0.25802009E+00 0.16095450E+04</pdfrwt>
<pdfrwt beam="2">  1       -1 0.21970870E+00 0.16095450E+04</pdfrwt>
<totfact> 0.51066268E-01</totfact>
</mgrwt>
</event>
<event>
 4    5  0.1074803E-007  0.6612496E+03  0.7818608E-02  0.1022911E+00
          1   -1    0    0  501    0  0.00000000000E+00  0.00000000000E+00  0.72997700214E+03  0.72997700216E+03  0.50400000000E-02 0. -1.
         -1   -1    0    0    0  501 -0.00000000000E+00 -0.00000000000E+00 -0.51873005762E+03  0.51873005765E+03  0.50400000000E-02 0.  1.
    8880023    1    1    2    0    0 -0.44111860065E+02  0.38664396192E+02  0.55798994625E+03  0.86521891919E+03  0.65864270000E+03 0. -1.
    8880022    1    1    2    0    0  0.44111860065E+02 -0.38664396192E+02 -0.34674300173E+03  0.38348814062E+03  0.15294330000E+03 0.  0.
<mgrwt>
<rscale>  0 0.46650530E+03</rscale>
<asrwt>0</asrwt>
<pdfrwt beam="1">  1        1 0.11230415E+00 0.66124957E+03</pdfrwt>
<pdfrwt beam="2">  1       -1 0.79804624E-01 0.66124957E+03</pdfrwt>
<totfact> 0.41371577E+01</totfact>
</mgrwt>
</event>
<event>
 4    5  0.1074803E-007  0.1488779E+04  0.7818608E-02  0.8917601E-01
          1   -1    0    0  501    0  0.00000000000E+00  0.00000000000E+00  0.20302953220E+04  0.20302953220E+04  0.50400000000E-02 0. -1.
         -1   -1    0    0    0  501 -0.00000000000E+00 -0.00000000000E+00 -0.13096612958E+04  0.13096612958E+04  0.50400000000E-02 0.  1.
    8880023    1    1    2    0    0  0.43902932892E+03  0.12609142676E+04  0.12009772586E+04  0.19128011198E+04  0.65864270000E+03 0.  0.
    8880022    1    1    2    0    0 -0.43902932892E+03 -0.12609142676E+04 -0.48034323230E+03  0.14271554981E+04  0.15294330000E+03 0.  0.
<mgrwt>
<rscale>  0 0.14511543E+04</rscale>
<asrwt>0</asrwt>
<pdfrwt beam="1">  1        1 0.31235312E+00 0.14887786E+04</pdfrwt>
<pdfrwt beam="2">  1       -1 0.20148636E+00 0.14887786E+04</pdfrwt>
<totfact> 0.39543030E-01</totfact>
</mgrwt>
</event>
<event>
 4    5  0.1074803E-007  0.7753527E+03  0.7818608E-02  0.9766869E-01
          1   -1    0    0  501    0  0.00000000000E+00  0.00000000000E+00  0.24560570533E+04  0.24560570533E+04  0.50400000000E-02 0. -1.
         -1   -1    0    0    0  501 -0.00000000000E+00 -0.00000000000E+00 -0.21096915600E+03  0.21096915606E+03  0.50400000000E-02 0.  1.
    8880023    1    1    2    0    0 -0.10046053891E+02  0.40897517503E+03  0.20441689506E+04  0.21862750334E+04  0.65864270000E+03 0.  0.
    8880022    1    1    2    0    0  0.10046053891E+02 -0.40897517503E+03  0.20091894672E+03  0.48075117593E+03  0.15294330000E+03 0.  0.
<mgrwt>
<rscale>  0 0.67171258E+03</rscale>
<asrwt>0</asrwt>
<pdfrwt beam="1">  1        1 0.37785493E+00 0.77535271E+03</pdfrwt>
<pdfrwt beam="2">  1       -1 0.32456793E-01 0.77535271E+03</pdfrwt>
<totfact> 0.13499378E+01</totfact>
</mgrwt>
</event>
<event>
 4    5  0.1074803E-007  0.1434811E+04  0.7818608E-02  0.8957095E-01
         -1   -1    0    0    0  501 -0.00000000000E+00  0.00000000000E+00  0.16715153780E+04  0.16715153780E+04  0.50400000000E-02 0.  1.
          1   -1    0    0  501    0  0.00000000000E+00 -0.00000000000E+00 -0.14941404621E+04  0.14941404621E+04  0.50400000000E-02 0. -1.
    8880023    1    1    2    0    0  0.88784986470E+03  0.91465532665E+03 -0.71405777220E+03  0.16026729102E+04  0.65864270000E+03 0.  0.
    8880022    1    1    2    0    0 -0.88784986470E+03 -0.91465532665E+03  0.89143268803E+03  0.15629829299E+04  0.15294330000E+03 0.  0.
<mgrwt>
<rscale>  0 0.13954822E+04</rscale>
<asrwt>0</asrwt>
<pdfrwt beam="1">  1        1 0.22986776E+00 0.14348108E+04</pdfrwt>
<pdfrwt beam="2">  1       -1 0.25715621E+00 0.14348108E+04</pdfrwt>
<totfact> 0.39389732E-01</totfact>
</mgrwt>
</event>
<event>
 4    5  0.1074803E-007  0.1005707E+04  0.7818608E-02  0.9374129E-01
          1   -1    0    0  501    0  0.00000000000E+00  0.00000000000E+00  0.31933905008E+04  0.31933905008E+04  0.50400000000E-02 0. -1.
         -1   -1    0    0    0  501 -0.00000000000E+00 -0.00000000000E+00 -0.26141455264E+03  0.26141455269E+03  0.50400000000E-02 0.  1.
    8880023    1    1    2    0    0  0.51788599208E+03  0.55626525090E+03  0.20297936839E+04  0.22652835442E+04  0.65864270000E+03 0.  0.
    8880022    1    1    2    0    0 -0.51788599208E+03 -0.55626525090E+03  0.90218226430E+03  0.11895215093E+04  0.15294330000E+03 0.  0.
<mgrwt>
<rscale>  0 0.94235727E+03</rscale>
<asrwt>0</asrwt>
<pdfrwt beam="1">  1        1 0.49129083E+00 0.10057073E+04</pdfrwt>
<pdfrwt beam="2">  1       -1 0.40217625E-01 0.10057073E+04</pdfrwt>
<totfact> 0.26716833E+00</totfact>
</mgrwt>
</event>
<event>
 4    5  0.1074803E-007  0.6738685E+03  0.7818608E-02  0.1013029E+00
          1   -1    0    0  501    0  0.00000000000E+00  0.00000000000E+00  0.12999494471E+04  0.12999494471E+04  0.50400000000E-02 0. -1.
         -1   -1    0    0    0  501 -0.00000000000E+00 -0.00000000000E+00 -0.19754689860E+04  0.19754689860E+04  0.50400000000E-02 0.  1.
    8880023    1    1    2    0    0 -0.97854090985E+01 -0.14210139889E+03  0.12064443171E+04  0.13818851828E+04  0.65864270000E+03 0. -1.
    8880022    1    1    2    0    0  0.97854090985E+01  0.14210139889E+03 -0.18819638560E+04  0.18935332503E+04  0.15294330000E+03 0.  0.
<mgrwt>
<rscale>  0 0.50288301E+03</rscale>
<asrwt>0</asrwt>
<pdfrwt beam="1">  1        1 0.19999222E+00 0.67386851E+03</pdfrwt>
<pdfrwt beam="2">  1       -1 0.30391831E+00 0.67386851E+03</pdfrwt>
<totfact> 0.30703893E-01</totfact>
</mgrwt>
</event>
<event>
 4    5  0.1074803E-007  0.9341752E+03  0.7818608E-02  0.9473258E-01
          1   -1    0    0  501    0  0.00000000000E+00  0.00000000000E+00  0.93593991293E+03  0.93593991294E+03  0.50400000000E-02 0. -1.
         -1   -1    0    0    0  501 -0.00000000000E+00 -0.00000000000E+00 -0.10492055117E+04  0.10492055117E+04  0.50400000000E-02 0.  1.
    8880023    1    1    2    0    0  0.65541108045E+03 -0.96485430112E+02  0.50867860841E+03  0.10636903946E+04  0.65864270000E+03 0. -1.
    8880022    1    1    2    0    0 -0.65541108045E+03  0.96485430112E+02 -0.62194420719E+03  0.92145503009E+03  0.15294330000E+03 0.  0.
<mgrwt>
<rscale>  0 0.86284464E+03</rscale>
<asrwt>0</asrwt>
<pdfrwt beam="1">  1        1 0.14399075E+00 0.93417521E+03</pdfrwt>
<pdfrwt beam="2">  1       -1 0.16141623E+00 0.93417521E+03</pdfrwt>
<totfact> 0.49010710E+00</totfact>
</mgrwt>
</event>
<event>
 4    5  0.1074803E-007  0.6806524E+03  0.7818608E-02  0.1008957E+00
         -1   -1    0    0    0  501 -0.00000000000E+00  0.00000000000E+00  0.35027420588E+03  0.35027420592E+03  0.50400000000E-02 0.  1.
          1   -1    0    0  501    0  0.00000000000E+00 -0.00000000000E+00 -0.74484093503E+03  0.74484093504E+03  0.50400000000E-02 0. -1.
    8880023    1    1    2    0    0  0.46212129662E+02  0.16535410166E+03 -0.49760774531E+03  0.84314958004E+03  0.65864270000E+03 0. -1.
    8880022    1    1    2    0    0 -0.46212129662E+02 -0.16535410166E+03  0.10304101616E+03  0.25196556092E+03  0.15294330000E+03 0.  0.
<mgrwt>
<rscale>  0 0.51891281E+03</rscale>
<asrwt>0</asrwt>
<pdfrwt beam="1">  1        1 0.11459091E+00 0.68065244E+03</pdfrwt>
<pdfrwt beam="2">  1       -1 0.53888340E-01 0.68065244E+03</pdfrwt>
<totfact> 0.88210689E+01</totfact>
</mgrwt>
</event>
<event>
 4    5  0.1074803E-007  0.1172271E+04  0.7818608E-02  0.9184559E-01
          1   -1    0    0  501    0  0.00000000000E+00  0.00000000000E+00  0.17049614762E+04  0.17049614762E+04  0.50400000000E-02 0. -1.
         -1   -1    0    0    0  501 -0.00000000000E+00 -0.00000000000E+00 -0.17493827487E+04  0.17493827487E+04  0.50400000000E-02 0.  1.
    8880023    1    1    2    0    0  0.85556967345E+03 -0.45651947303E+03  0.13251536302E+04  0.17692517756E+04  0.65864270000E+03 0. -1.
    8880022    1    1    2    0    0 -0.85556967345E+03  0.45651947303E+03 -0.13695749028E+04  0.16850924493E+04  0.15294330000E+03 0.  0.
<mgrwt>
<rscale>  0 0.11214231E+04</rscale>
<asrwt>0</asrwt>
<pdfrwt beam="1">  1        1 0.26230176E+00 0.11722712E+04</pdfrwt>
<pdfrwt beam="2">  1       -1 0.26913581E+00 0.11722712E+04</pdfrwt>
<totfact> 0.24420055E-01</totfact>
</mgrwt>
</event>
<event>
 4    5  0.1074803E-007  0.8423464E+03  0.7818608E-02  0.9625772E-01
          1   -1    0    0  501    0  0.00000000000E+00  0.00000000000E+00  0.24279182319E+04  0.24279182319E+04  0.50400000000E-02 0. -1.
         -1   -1    0    0    0  501 -0.00000000000E+00 -0.00000000000E+00 -0.97425711243E+03  0.97425711245E+03  0.50400000000E-02 0.  1.
    8880023    1    1    2    0    0 -0.14070428904E+03  0.50590475053E+03  0.22690431619E+04  0.24203521212E+04  0.65864270000E+03 0. -1.
    8880022    1    1    2    0    0  0.14070428904E+03 -0.50590475053E+03 -0.81538204241E+03  0.98182322322E+03  0.15294330000E+03 0.  0.
<mgrwt>
<rscale>  0 0.75613678E+03</rscale>
<asrwt>0</asrwt>
<pdfrwt beam="1">  1        1 0.37352588E+00 0.84234644E+03</pdfrwt>
<pdfrwt beam="2">  1       -1 0.14988571E+00 0.84234644E+03</pdfrwt>
<totfact> 0.55682784E-01</totfact>
</mgrwt>
</event>
<event>
 4    5  0.1074803E-007  0.1265383E+04  0.7818608E-02  0.9096045E-01
          1   -1    0    0  501    0  0.00000000000E+00  0.00000000000E+00  0.22468891447E+04  0.22468891447E+04  0.50400000000E-02 0. -1.
         -1   -1    0    0    0  501 -0.00000000000E+00 -0.00000000000E+00 -0.89340353273E+03  0.89340353274E+03  0.50400000000E-02 0.  1.
    8880023    1    1    2    0    0 -0.10797430314E+04 -0.39241759390E+02  0.15815763608E+04  0.20254823921E+04  0.65864270000E+03 0. -1.
    8880022    1    1    2    0    0  0.10797430314E+04  0.39241759390E+02 -0.22809074884E+03  0.11148102853E+04  0.15294330000E+03 0.  0.
<mgrwt>
<rscale>  0 0.12193977E+04</rscale>
<asrwt>0</asrwt>
<pdfrwt beam="1">  1        1 0.34567525E+00 0.12653834E+04</pdfrwt>
<pdfrwt beam="2">  1       -1 0.13744670E+00 0.12653834E+04</pdfrwt>
<totfact> 0.86940565E-01</totfact>
</mgrwt>
</event>
<event>
 4    5  0.1074803E-007  0.1385572E+04  0.7818608E-02  0.8994975E-01
         -1   -1    0    0    0  501 -0.00000000000E+00  0.00000000000E+00  0.60687052378E+03  0.60687052381E+03  0.50400000000E-02 0.  1.
          1   -1    0    0  501    0  0.00000000000E+00 -0.00000000000E+00 -0.38097822773E+04  0.38097822773E+04  0.50400000000E-02 0. -1.
    8880023    1    1    2    0    0  0.77966481682E+03 -0.93708235000E+03 -0.27993655076E+04  0.31235009218E+04  0.65864270000E+03 0.  0.
    8880022    1    1    2    0    0 -0.77966481682E+03  0.93708235000E+03 -0.40354624592E+03  0.12931518793E+04  0.15294330000E+03 0.  0.
<mgrwt>
<rscale>  0 0.13445352E+04</rscale>
<asrwt>0</asrwt>
<pdfrwt beam="1">  1        1 0.58612034E+00 0.13855724E+04</pdfrwt>
<pdfrwt beam="2">  1       -1 0.93364698E-01 0.13855724E+04</pdfrwt>
<totfact> 0.15306206E-01</totfact>
</mgrwt>
</event>
<event>
 4    5  0.1074803E-007  0.1264824E+04  0.7818608E-02  0.9096548E-01
          1   -1    0    0  501    0  0.00000000000E+00  0.00000000000E+00  0.13205828122E+04  0.13205828122E+04  0.50400000000E-02 0. -1.
         -1   -1    0    0    0  501 -0.00000000000E+00 -0.00000000000E+00 -0.17837337999E+04  0.17837337999E+04  0.50400000000E-02 0.  1.
    8880023    1    1    2    0    0 -0.84661543993E+03  0.67023321630E+03  0.75204075538E+03  0.14715113902E+04  0.65864270000E+03 0. -1.
    8880022    1    1    2    0    0  0.84661543993E+03 -0.67023321630E+03 -0.12151917431E+04  0.16328052219E+04  0.15294330000E+03 0.  0.
<mgrwt>
<rscale>  0 0.12188125E+04</rscale>
<asrwt>0</asrwt>
<pdfrwt beam="1">  1        1 0.20316658E+00 0.12648243E+04</pdfrwt>
<pdfrwt beam="2">  1       -1 0.27442059E+00 0.12648243E+04</pdfrwt>
<totfact> 0.41189162E-01</totfact>
</mgrwt>
</event>
<event>
 4    5  0.1074803E-007  0.7159529E+03  0.7818608E-02  0.9936526E-01
          1   -1    0    0  501    0  0.00000000000E+00  0.00000000000E+00  0.10363807727E+04  0.10363807727E+04  0.50400000000E-02 0. -1.
         -1   -1    0    0    0  501 -0.00000000000E+00 -0.00000000000E+00 -0.61759045890E+03  0.61759045892E+03  0.50400000000E-02 0.  1.
    8880023    1    1    2    0    0 -0.32611020190E+02  0.27877377677E+03  0.85373568104E+03  0.11142051501E+04  0.65864270000E+03 0. -1.
    8880022    1    1    2    0    0  0.32611020190E+02 -0.27877377677E+03 -0.43494536723E+03  0.53976608151E+03  0.15294330000E+03 0.  0.
<mgrwt>
<rscale>  0 0.58523288E+03</rscale>
<asrwt>0</asrwt>
<pdfrwt beam="1">  1        1 0.15944319E+00 0.71595286E+03</pdfrwt>
<pdfrwt beam="2">  1       -1 0.95013918E-01 0.71595286E+03</pdfrwt>
<totfact> 0.15710802E+01</totfact>
</mgrwt>
</event>
<event>
 4    5  0.1074803E-007  0.9514800E+03  0.7818608E-02  0.9447988E-01
          1   -1    0    0  501    0  0.00000000000E+00  0.00000000000E+00  0.13310939422E+04  0.13310939422E+04  0.50400000000E-02 0. -1.
         -1   -1    0    0    0  501 -0.00000000000E+00 -0.00000000000E+00 -0.58200540605E+03  0.58200540607E+03  0.50400000000E-02 0.  1.
    8880023    1    1    2    0    0  0.68000862822E+03 -0.95353576490E+02  0.74688449955E+03  0.12096076641E+04  0.65864270000E+03 0.  0.
    8880022    1    1    2    0    0 -0.68000862822E+03  0.95353576490E+02  0.22040366075E+01  0.70349168424E+03  0.15294330000E+03 0.  0.
<mgrwt>
<rscale>  0 0.88229530E+03</rscale>
<asrwt>0</asrwt>
<pdfrwt beam="1">  1        1 0.20478368E+00 0.95148003E+03</pdfrwt>
<pdfrwt beam="2">  1       -1 0.89539294E-01 0.95148003E+03</pdfrwt>
<totfact> 0.10603250E+01</totfact>
</mgrwt>
</event>
<event>
 4    5  0.1074803E-007  0.9149172E+03  0.7818608E-02  0.9502497E-01
         -1   -1    0    0    0  501 -0.00000000000E+00  0.00000000000E+00  0.70056103382E+03  0.70056103384E+03  0.50400000000E-02 0.  1.
          1   -1    0    0  501    0  0.00000000000E+00 -0.00000000000E+00 -0.23268759097E+04  0.23268759097E+04  0.50400000000E-02 0. -1.
    8880023    1    1    2    0    0  0.13514311434E+02  0.63488628770E+03 -0.20527231050E+04  0.22473863902E+04  0.65864270000E+03 0. -1.
    8880022    1    1    2    0    0 -0.13514311434E+02 -0.63488628770E+03  0.42640822910E+03  0.78005055335E+03  0.15294330000E+03 0.  0.
<mgrwt>
<rscale>  0 0.84099987E+03</rscale>
<asrwt>0</asrwt>
<pdfrwt beam="1">  1        1 0.35798091E+00 0.91491718E+03</pdfrwt>
<pdfrwt beam="2">  1       -1 0.10777862E+00 0.91491718E+03</pdfrwt>
<totfact> 0.14710104E+00</totfact>
</mgrwt>
</event>
<event>
 4    5  0.1074803E-007  0.8152275E+03  0.7818608E-02  0.9678789E-01
          1   -1    0    0  501    0  0.00000000000E+00  0.00000000000E+00  0.14082340337E+04  0.14082340337E+04  0.50400000000E-02 0. -1.
         -1   -1    0    0    0  501 -0.00000000000E+00 -0.00000000000E+00 -0.51526294993E+03  0.51526294995E+03  0.50400000000E-02 0.  1.
    8880023    1    1    2    0    0 -0.29411424546E+03  0.37984530071E+03 -0.88593124080E+02  0.82002718842E+03  0.65864270000E+03 0.  0.
    8880022    1    1    2    0    0  0.29411424546E+03 -0.37984530071E+03  0.98156420788E+03  0.11034697953E+04  0.15294330000E+03 0.  0.
<mgrwt>
<rscale>  0 0.72293825E+03</rscale>
<asrwt>0</asrwt>
<pdfrwt beam="1">  1        1 0.21665139E+00 0.81522748E+03</pdfrwt>
<pdfrwt beam="2">  1       -1 0.79271223E-01 0.81522748E+03</pdfrwt>
<totfact> 0.12383703E+01</totfact>
</mgrwt>
</event>
<event>
 4    5  0.1074803E-007  0.8203744E+03  0.7818608E-02  0.9668359E-01
         -1   -1    0    0    0  501 -0.00000000000E+00  0.00000000000E+00  0.47590930638E+03  0.47590930641E+03  0.50400000000E-02 0.  1.
          1   -1    0    0  501    0  0.00000000000E+00 -0.00000000000E+00 -0.20386601972E+04  0.20386601972E+04  0.50400000000E-02 0. -1.
    8880023    1    1    2    0    0  0.46011767473E+03  0.16581800063E+03 -0.17784788738E+04  0.19585712126E+04  0.65864270000E+03 0.  0.
    8880022    1    1    2    0    0 -0.46011767473E+03 -0.16581800063E+03  0.21572798301E+03  0.55599829100E+03  0.15294330000E+03 0.  0.
<mgrwt>
<rscale>  0 0.72932311E+03</rscale>
<asrwt>0</asrwt>
<pdfrwt beam="1">  1        1 0.31364003E+00 0.82037436E+03</pdfrwt>
<pdfrwt beam="2">  1       -1 0.73216817E-01 0.82037436E+03</pdfrwt>
<totfact> 0.54738159E+00</totfact>
</mgrwt>
</event>
<event>
 4    5  0.1074803E-007  0.1434832E+04  0.7818608E-02  0.8957079E-01
          1   -1    0    0  501    0  0.00000000000E+00  0.00000000000E+00  0.40001933586E+04  0.40001933586E+04  0.50400000000E-02 0. -1.
         -1   -1    0    0    0  501 -0.00000000000E+00 -0.00000000000E+00 -0.83299718630E+03  0.83299718632E+03  0.50400000000E-02 0.  1.
    8880023    1    1    2    0    0  0.10987660823E+04 -0.64625597279E+03  0.32438697689E+04  0.35470318535E+04  0.65864270000E+03 0.  0.
    8880022    1    1    2    0    0 -0.10987660823E+04  0.64625597279E+03 -0.76673596569E+02  0.12861586914E+04  0.15294330000E+03 0.  0.
<mgrwt>
<rscale>  0 0.13955045E+04</rscale>
<asrwt>0</asrwt>
<pdfrwt beam="1">  1        1 0.61541435E+00 0.14348324E+04</pdfrwt>
<pdfrwt beam="2">  1       -1 0.12815342E+00 0.14348324E+04</pdfrwt>
<totfact> 0.49143294E-02</totfact>
</mgrwt>
</event>
<event>
 4    5  0.1074803E-007  0.1242836E+04  0.7818608E-02  0.9116567E-01
          1   -1    0    0  501    0  0.00000000000E+00  0.00000000000E+00  0.95078005821E+03  0.95078005823E+03  0.50400000000E-02 0. -1.
         -1   -1    0    0    0  501 -0.00000000000E+00 -0.00000000000E+00 -0.22969126506E+04  0.22969126506E+04  0.50400000000E-02 0.  1.
    8880023    1    1    2    0    0 -0.87697831935E+03 -0.58458473264E+03  0.30793903323E+03  0.12804167043E+04  0.65864270000E+03 0.  0.
    8880022    1    1    2    0    0  0.87697831935E+03  0.58458473264E+03 -0.16540716257E+04  0.19672760046E+04  0.15294330000E+03 0.  0.
<mgrwt>
<rscale>  0 0.11957697E+04</rscale>
<asrwt>0</asrwt>
<pdfrwt beam="1">  1        1 0.14627386E+00 0.12428357E+04</pdfrwt>
<pdfrwt beam="2">  1       -1 0.35337118E+00 0.12428357E+04</pdfrwt>
<totfact> 0.24029530E-01</totfact>
</mgrwt>
</event>
<event>
 4    5  0.1074803E-007  0.1743496E+04  0.7818608E-02  0.8754454E-01
         -1   -1    0    0    0  501 -0.00000000000E+00  0.00000000000E+00  0.27474601783E+04  0.27474601783E+04  0.50400000000E-02 0.  1.
          1   -1    0    0  501    0  0.00000000000E+00 -0.00000000000E+00 -0.10764026540E+04  0.10764026540E+04  0.50400000000E-02 0. -1.
    8880023    1    1    2    0    0  0.29235279945E+03  0.15876071324E+04  0.12597324798E+04  0.21509771484E+04  0.65864270000E+03 0.  0.
    8880022    1    1    2    0    0 -0.29235279945E+03 -0.15876071324E+04  0.41132504449E+03  0.16728856839E+04  0.15294330000E+03 0.  0.
<mgrwt>
<rscale>  0 0.17121699E+04</rscale>
<asrwt>0</asrwt>
<pdfrwt beam="1">  1        1 0.16560041E+00 0.17434956E+04</pdfrwt>
<pdfrwt beam="2">  1       -1 0.42268618E+00 0.17434956E+04</pdfrwt>
<totfact> 0.61061696E-02</totfact>
</mgrwt>
</event>
<event>
 4    5  0.1074803E-007  0.9937208E+03  0.7818608E-02  0.9389819E-01
          1   -1    0    0  501    0  0.00000000000E+00  0.00000000000E+00  0.87086314787E+03  0.87086314788E+03  0.50400000000E-02 0. -1.
         -1   -1    0    0    0  501 -0.00000000000E+00 -0.00000000000E+00 -0.12034206846E+04  0.12034206846E+04  0.50400000000E-02 0.  1.
    8880023    1    1    2    0    0 -0.45200190601E+03  0.59107115995E+03  0.34947965390E+03  0.10533836309E+04  0.65864270000E+03 0.  0.
    8880022    1    1    2    0    0  0.45200190601E+03 -0.59107115995E+03 -0.68203719066E+03  0.10209002016E+04  0.15294330000E+03 0.  0.
<mgrwt>
<rscale>  0 0.92918276E+03</rscale>
<asrwt>0</asrwt>
<pdfrwt beam="1">  1        1 0.13397895E+00 0.99372081E+03</pdfrwt>
<pdfrwt beam="2">  1       -1 0.18514164E+00 0.99372081E+03</pdfrwt>
<totfact> 0.36934461E+00</totfact>
</mgrwt>
</event>
<event>
 4    5  0.1074803E-007  0.1308896E+04  0.7818608E-02  0.9057916E-01
          1   -1    0    0  501    0  0.00000000000E+00  0.00000000000E+00  0.10596511198E+04  0.10596511198E+04  0.50400000000E-02 0. -1.
         -1   -1    0    0    0  501 -0.00000000000E+00 -0.00000000000E+00 -0.18800875551E+04  0.18800875551E+04  0.50400000000E-02 0.  1.
    8880023    1    1    2    0    0  0.90241870978E+03 -0.68193746517E+03 -0.11599541291E+04  0.17489145268E+04  0.65864270000E+03 0.  0.
    8880022    1    1    2    0    0 -0.90241870978E+03  0.68193746517E+03  0.33951769387E+03  0.11908241481E+04  0.15294330000E+03 0.  0.
<mgrwt>
<rscale>  0 0.12648474E+04</rscale>
<asrwt>0</asrwt>
<pdfrwt beam="1">  1        1 0.16302325E+00 0.13088959E+04</pdfrwt>
<pdfrwt beam="2">  1       -1 0.28924424E+00 0.13088959E+04</pdfrwt>
<totfact> 0.51219598E-01</totfact>
</mgrwt>
</event>
<event>
 4    5  0.1074803E-007  0.8694225E+03  0.7818608E-02  0.9577018E-01
         -1   -1    0    0    0  501 -0.00000000000E+00  0.00000000000E+00  0.83338235987E+03  0.83338235989E+03  0.50400000000E-02 0.  1.
          1   -1    0    0  501    0  0.00000000000E+00 -0.00000000000E+00 -0.25688952166E+04  0.25688952166E+04  0.50400000000E-02 0. -1.
    8880023    1    1    2    0    0  0.55721977121E+03  0.10766300800E+03 -0.23777261936E+04  0.25316945421E+04  0.65864270000E+03 0.  0.
    8880022    1    1    2    0    0 -0.55721977121E+03 -0.10766300800E+03  0.64221333684E+03  0.87058303438E+03  0.15294330000E+03 0.  0.
<mgrwt>
<rscale>  0 0.78836168E+03</rscale>
<asrwt>0</asrwt>
<pdfrwt beam="1">  1        1 0.39521465E+00 0.86942245E+03</pdfrwt>
<pdfrwt beam="2">  1       -1 0.12821267E+00 0.86942245E+03</pdfrwt>
<totfact> 0.66516349E-01</totfact>
</mgrwt>
</event>
<event>
 4    5  0.1074803E-007  0.8549254E+03  0.7818608E-02  0.9602655E-01
          1   -1    0    0  501    0  0.00000000000E+00  0.00000000000E+00  0.17003905302E+04  0.17003905302E+04  0.50400000000E-02 0. -1.
         -1   -1    0    0    0  501 -0.00000000000E+00 -0.00000000000E+00 -0.33338475139E+03  0.33338475143E+03  0.50400000000E-02 0.  1.
    8880023    1    1    2    0    0 -0.29424228174E+03  0.45881222231E+03  0.11374005350E+04  0.14228764384E+04  0.65864270000E+03 0. -1.
    8880022    1    1    2    0    0  0.29424228174E+03 -0.45881222231E+03  0.22960524389E+03  0.61089884330E+03  0.15294330000E+03 0.  1.
<mgrwt>
<rscale>  0 0.77120719E+03</rscale>
<asrwt>0</asrwt>
<pdfrwt beam="1">  1        1 0.26159854E+00 0.85492537E+03</pdfrwt>
<pdfrwt beam="2">  1       -1 0.51289962E-01 0.85492537E+03</pdfrwt>
<totfact> 0.18639808E+01</totfact>
</mgrwt>
</event>
<event>
 4    5  0.1074803E-007  0.1159946E+04  0.7818608E-02  0.9197076E-01
         -1   -1    0    0    0  501 -0.00000000000E+00  0.00000000000E+00  0.11924667627E+04  0.11924667627E+04  0.50400000000E-02 0.  1.
          1   -1    0    0  501    0  0.00000000000E+00 -0.00000000000E+00 -0.16061264690E+04  0.16061264690E+04  0.50400000000E-02 0. -1.
    8880023    1    1    2    0    0 -0.94248067385E+03  0.15295527025E+03 -0.11111715565E+04  0.16062931145E+04  0.65864270000E+03 0.  0.
    8880022    1    1    2    0    0  0.94248067385E+03 -0.15295527025E+03  0.69751185025E+03  0.11923001172E+04  0.15294330000E+03 0.  0.
<mgrwt>
<rscale>  0 0.11083659E+04</rscale>
<asrwt>0</asrwt>
<pdfrwt beam="1">  1        1 0.24709638E+00 0.11599463E+04</pdfrwt>
<pdfrwt beam="2">  1       -1 0.18345642E+00 0.11599463E+04</pdfrwt>
<totfact> 0.10702758E+00</totfact>
</mgrwt>
</event>
<event>
 4    5  0.1074803E-007  0.1422687E+04  0.7818608E-02  0.8966252E-01
          1   -1    0    0  501    0  0.00000000000E+00  0.00000000000E+00  0.19489968977E+04  0.19489968977E+04  0.50400000000E-02 0. -1.
         -1   -1    0    0    0  501 -0.00000000000E+00 -0.00000000000E+00 -0.17914797321E+04  0.17914797321E+04  0.50400000000E-02 0.  1.
    8880023    1    1    2    0    0 -0.17250627090E+03 -0.12491871742E+04  0.13767399073E+04  0.19797600835E+04  0.65864270000E+03 0. -1.
    8880022    1    1    2    0    0  0.17250627090E+03  0.12491871742E+04 -0.12192227417E+04  0.17607165463E+04  0.15294330000E+03 0.  0.
<mgrwt>
<rscale>  0 0.13829518E+04</rscale>
<asrwt>0</asrwt>
<pdfrwt beam="1">  1        1 0.29984568E+00 0.14226866E+04</pdfrwt>
<pdfrwt beam="2">  1       -1 0.27561227E+00 0.14226866E+04</pdfrwt>
<totfact> 0.14610921E-01</totfact>
</mgrwt>
</event>
<event>
 4    5  0.1074803E-007  0.6645520E+03  0.7818608E-02  0.1019912E+00
          1   -1    0    0  501    0  0.00000000000E+00  0.00000000000E+00  0.36420200809E+03  0.36420200813E+03  0.50400000000E-02 0. -1.
         -1   -1    0    0    0  501 -0.00000000000E+00 -0.00000000000E+00 -0.19582560619E+04  0.19582560619E+04  0.50400000000E-02 0.  1.
    8880023    1    1    2    0    0 -0.24000401145E+02  0.85106444904E+02  0.52342499452E+02  0.66661013323E+03  0.65864270000E+03 0.  0.
    8880022    1    1    2    0    0  0.24000401145E+02 -0.85106444904E+02 -0.16463965533E+04  0.16558479368E+04  0.15294330000E+03 0.  0.
<mgrwt>
<rscale>  0 0.47718281E+03</rscale>
<asrwt>0</asrwt>
<pdfrwt beam="1">  1        1 0.56031079E-01 0.66455198E+03</pdfrwt>
<pdfrwt beam="2">  1       -1 0.30127016E+00 0.66455198E+03</pdfrwt>
<totfact> 0.23479071E+00</totfact>
</mgrwt>
</event>
<event>
 4    5  0.1074803E-007  0.8059850E+03  0.7818608E-02  0.9698002E-01
          1   -1    0    0  501    0  0.00000000000E+00  0.00000000000E+00  0.15746674922E+04  0.15746674922E+04  0.50400000000E-02 0. -1.
         -1   -1    0    0    0  501 -0.00000000000E+00 -0.00000000000E+00 -0.91562702860E+03  0.91562702861E+03  0.50400000000E-02 0.  1.
    8880023    1    1    2    0    0 -0.38749609299E+03  0.25621949101E+03  0.13923798495E+04  0.16088298546E+04  0.65864270000E+03 0. -1.
    8880022    1    1    2    0    0  0.38749609299E+03 -0.25621949101E+03 -0.73333938594E+03  0.88146466613E+03  0.15294330000E+03 0.  0.
<mgrwt>
<rscale>  0 0.71135904E+03</rscale>
<asrwt>0</asrwt>
<pdfrwt beam="1">  1        1 0.24225653E+00 0.80598502E+03</pdfrwt>
<pdfrwt beam="2">  1       -1 0.14086570E+00 0.80598502E+03</pdfrwt>
<totfact> 0.24828094E+00</totfact>
</mgrwt>
</event>
<event>
 4    5  0.1074803E-007  0.1288506E+04  0.7818608E-02  0.9075549E-01
         -1   -1    0    0    0  501 -0.00000000000E+00  0.00000000000E+00  0.61774274007E+03  0.61774274009E+03  0.50400000000E-02 0.  1.
          1   -1    0    0  501    0  0.00000000000E+00 -0.00000000000E+00 -0.44810114861E+04  0.44810114861E+04  0.50400000000E-02 0. -1.
    8880023    1    1    2    0    0 -0.63496776752E+03 -0.90733360538E+03 -0.37616215856E+04  0.39761847916E+04  0.65864270000E+03 0.  0.
    8880022    1    1    2    0    0  0.63496776752E+03  0.90733360538E+03 -0.10164716040E+03  0.11225694346E+04  0.15294330000E+03 0.  0.
<mgrwt>
<rscale>  0 0.12435730E+04</rscale>
<asrwt>0</asrwt>
<pdfrwt beam="1">  1        1 0.68938636E+00 0.12885063E+04</pdfrwt>
<pdfrwt beam="2">  1       -1 0.95037348E-01 0.12885063E+04</pdfrwt>
<totfact> 0.36496327E-02</totfact>
</mgrwt>
</event>
<event>
 4    5  0.1074803E-007  0.8303196E+03  0.7818608E-02  0.9648711E-01
          1   -1    0    0  501    0  0.00000000000E+00  0.00000000000E+00  0.10438137208E+04  0.10438137208E+04  0.50400000000E-02 0. -1.
         -1   -1    0    0    0  501 -0.00000000000E+00 -0.00000000000E+00 -0.70834054107E+03  0.70834054109E+03  0.50400000000E-02 0.  1.
    8880023    1    1    2    0    0  0.48676958488E+03  0.13665937353E+03  0.71982762508E+03  0.10989005548E+04  0.65864270000E+03 0. -1.
    8880022    1    1    2    0    0 -0.48676958488E+03 -0.13665937353E+03 -0.38435444540E+03  0.65325370711E+03  0.15294330000E+03 0.  0.
<mgrwt>
<rscale>  0 0.74154385E+03</rscale>
<asrwt>0</asrwt>
<pdfrwt beam="1">  1        1 0.16058673E+00 0.83031959E+03</pdfrwt>
<pdfrwt beam="2">  1       -1 0.10897547E+00 0.83031959E+03</pdfrwt>
<totfact> 0.11154674E+01</totfact>
</mgrwt>
</event>
<event>
 4    5  0.1074803E-007  0.8999691E+03  0.7818608E-02  0.9526081E-01
         -1   -1    0    0    0  501 -0.00000000000E+00  0.00000000000E+00  0.57705011033E+03  0.57705011035E+03  0.50400000000E-02 0.  1.
          1   -1    0    0  501    0  0.00000000000E+00 -0.00000000000E+00 -0.24311476792E+04  0.24311476792E+04  0.50400000000E-02 0. -1.
    8880023    1    1    2    0    0 -0.52784055385E+03 -0.31227962954E+03 -0.21346827827E+04  0.23166387302E+04  0.65864270000E+03 0.  0.
    8880022    1    1    2    0    0  0.52784055385E+03  0.31227962954E+03  0.28058521383E+03  0.69155905934E+03  0.15294330000E+03 0.  0.
<mgrwt>
<rscale>  0 0.82387974E+03</rscale>
<asrwt>0</asrwt>
<pdfrwt beam="1">  1        1 0.37402271E+00 0.89996912E+03</pdfrwt>
<pdfrwt beam="2">  1       -1 0.88776941E-01 0.89996912E+03</pdfrwt>
<totfact> 0.19458979E+00</totfact>
</mgrwt>
</event>
<event>
 4    5  0.1074803E-007  0.8620411E+03  0.7818608E-02  0.9589943E-01
         -1   -1    0    0    0  501 -0.00000000000E+00  0.00000000000E+00  0.10645881926E+04  0.10645881927E+04  0.50400000000E-02 0.  1.
          1   -1    0    0  501    0  0.00000000000E+00 -0.00000000000E+00 -0.67526508747E+03  0.67526508749E+03  0.50400000000E-02 0. -1.
    8880023    1    1    2    0    0 -0.15038768037E+03  0.53543271227E+03 -0.23134933436E+03  0.89254544117E+03  0.65864270000E+03 0. -1.
    8880022    1    1    2    0    0  0.15038768037E+03 -0.53543271227E+03  0.62067243953E+03  0.84730783898E+03  0.15294330000E+03 0.  0.
<mgrwt>
<rscale>  0 0.77965411E+03</rscale>
<asrwt>0</asrwt>
<pdfrwt beam="1">  1        1 0.10388694E+00 0.86204110E+03</pdfrwt>
<pdfrwt beam="2">  1       -1 0.16378280E+00 0.86204110E+03</pdfrwt>
<totfact> 0.80123814E+00</totfact>
</mgrwt>
</event>
<event>
 4    5  0.1074803E-007  0.1148395E+04  0.7818608E-02  0.9208995E-01
          1   -1    0    0  501    0  0.00000000000E+00  0.00000000000E+00  0.17382212627E+04  0.17382212627E+04  0.50400000000E-02 0. -1.
         -1   -1    0    0    0  501 -0.00000000000E+00 -0.00000000000E+00 -0.84207484822E+03  0.84207484824E+03  0.50400000000E-02 0.  1.
    8880023    1    1    2    0    0 -0.65802989734E+03 -0.67230836951E+03  0.11169081516E+04  0.16019662652E+04  0.65864270000E+03 0.  0.
    8880022    1    1    2    0    0  0.65802989734E+03  0.67230836951E+03 -0.22076173710E+03  0.97832984575E+03  0.15294330000E+03 0.  1.
<mgrwt>
<rscale>  0 0.10961067E+04</rscale>
<asrwt>0</asrwt>
<pdfrwt beam="1">  1        1 0.26741865E+00 0.11483954E+04</pdfrwt>
<pdfrwt beam="2">  1       -1 0.12954998E+00 0.11483954E+04</pdfrwt>
<totfact> 0.22702932E+00</totfact>
</mgrwt>
</event>
<event>
 4    5  0.1074803E-007  0.1189615E+04  0.7818608E-02  0.9167284E-01
          1   -1    0    0  501    0  0.00000000000E+00  0.00000000000E+00  0.89671048889E+03  0.89671048891E+03  0.50400000000E-02 0. -1.
         -1   -1    0    0    0  501 -0.00000000000E+00 -0.00000000000E+00 -0.19656658264E+04  0.19656658264E+04  0.50400000000E-02 0.  1.
    8880023    1    1    2    0    0  0.50976491650E+03 -0.84941967854E+03  0.24011889828E+03  0.12136067534E+04  0.65864270000E+03 0.  0.
    8880022    1    1    2    0    0 -0.50976491650E+03  0.84941967854E+03 -0.13090742358E+04  0.16487695619E+04  0.15294330000E+03 0.  0.
<mgrwt>
<rscale>  0 0.11397588E+04</rscale>
<asrwt>0</asrwt>
<pdfrwt beam="1">  1        1 0.13795546E+00 0.11896152E+04</pdfrwt>
<pdfrwt beam="2">  1       -1 0.30241013E+00 0.11896152E+04</pdfrwt>
<totfact> 0.57605086E-01</totfact>
</mgrwt>
</event>
<event>
 4    5  0.1074803E-007  0.1496007E+04  0.7818608E-02  0.8912461E-01
         -1   -1    0    0    0  501 -0.00000000000E+00  0.00000000000E+00  0.14281723210E+04  0.14281723210E+04  0.50400000000E-02 0.  1.
          1   -1    0    0  501    0  0.00000000000E+00 -0.00000000000E+00 -0.16306919754E+04  0.16306919754E+04  0.50400000000E-02 0. -1.
    8880023    1    1    2    0    0 -0.12809237220E+03 -0.13370935439E+04 -0.65519834961E+03  0.16331937682E+04  0.65864270000E+03 0.  0.
    8880022    1    1    2    0    0  0.12809237220E+03  0.13370935439E+04  0.45267869517E+03  0.14256705282E+04  0.15294330000E+03 0.  0.
<mgrwt>
<rscale>  0 0.14585990E+04</rscale>
<asrwt>0</asrwt>
<pdfrwt beam="1">  1        1 0.25087569E+00 0.14960070E+04</pdfrwt>
<pdfrwt beam="2">  1       -1 0.21971882E+00 0.14960070E+04</pdfrwt>
<totfact> 0.55597158E-01</totfact>
</mgrwt>
</event>
<event>
 4    5  0.1074803E-007  0.7515032E+03  0.7818608E-02  0.9827623E-01
          1   -1    0    0  501    0  0.00000000000E+00  0.00000000000E+00  0.33201885375E+04  0.33201885375E+04  0.50400000000E-02 0. -1.
         -1   -1    0    0    0  501 -0.00000000000E+00 -0.00000000000E+00 -0.57538701008E+03  0.57538701010E+03  0.50400000000E-02 0.  1.
    8880023    1    1    2    0    0  0.35571334254E+03 -0.66443949000E+02  0.32041748858E+04  0.32911234686E+04  0.65864270000E+03 0. -1.
    8880022    1    1    2    0    0 -0.35571334254E+03  0.66443949000E+02 -0.45937335838E+03  0.60445207902E+03  0.15294330000E+03 0.  0.
<mgrwt>
<rscale>  0 0.63900957E+03</rscale>
<asrwt>0</asrwt>
<pdfrwt beam="1">  1        1 0.51079823E+00 0.75150315E+03</pdfrwt>
<pdfrwt beam="2">  1       -1 0.88521080E-01 0.75150315E+03</pdfrwt>
<totfact> 0.47095587E-01</totfact>
</mgrwt>
</event>
<event>
 4    5  0.1074803E-007  0.7417525E+03  0.7818608E-02  0.9854871E-01
         -1   -1    0    0    0  501 -0.00000000000E+00  0.00000000000E+00  0.17785844259E+04  0.17785844259E+04  0.50400000000E-02 0.  1.
          1   -1    0    0  501    0  0.00000000000E+00 -0.00000000000E+00 -0.66682275757E+03  0.66682275759E+03  0.50400000000E-02 0. -1.
    8880023    1    1    2    0    0 -0.32199375776E+03  0.11272377724E+03 -0.43107502673E+03  0.85791754553E+03  0.65864270000E+03 0. -1.
    8880022    1    1    2    0    0  0.32199375776E+03 -0.11272377724E+03  0.15428366951E+04  0.15874896380E+04  0.15294330000E+03 0.  0.
<mgrwt>
<rscale>  0 0.62499169E+03</rscale>
<asrwt>0</asrwt>
<pdfrwt beam="1">  1        1 0.10258812E+00 0.74175254E+03</pdfrwt>
<pdfrwt beam="2">  1       -1 0.27362837E+00 0.74175254E+03</pdfrwt>
<totfact> 0.15095880E+00</totfact>
</mgrwt>
</event>
<event>
 4    5  0.1074803E-007  0.9594768E+03  0.7818608E-02  0.9436608E-01
         -1   -1    0    0    0  501 -0.00000000000E+00  0.00000000000E+00  0.10145640929E+04  0.10145640930E+04  0.50400000000E-02 0.  1.
          1   -1    0    0  501    0  0.00000000000E+00 -0.00000000000E+00 -0.12448273964E+04  0.12448273964E+04  0.50400000000E-02 0. -1.
    8880023    1    1    2    0    0  0.53449420233E+03  0.44844332373E+03 -0.87397897923E+03  0.12978578232E+04  0.65864270000E+03 0. -1.
    8880022    1    1    2    0    0 -0.53449420233E+03 -0.44844332373E+03  0.64371567575E+03  0.96153366615E+03  0.15294330000E+03 0.  0.
<mgrwt>
<rscale>  0 0.89123241E+03</rscale>
<asrwt>0</asrwt>
<pdfrwt beam="1">  1        1 0.19151191E+00 0.95947677E+03</pdfrwt>
<pdfrwt beam="2">  1       -1 0.15608678E+00 0.95947677E+03</pdfrwt>
<totfact> 0.31309804E+00</totfact>
</mgrwt>
</event>
<event>
 4    5  0.1074803E-007  0.6864846E+03  0.7818608E-02  0.1005870E+00
          1   -1    0    0  501    0  0.00000000000E+00  0.00000000000E+00  0.10856949808E+04  0.10856949808E+04  0.50400000000E-02 0. -1.
         -1   -1    0    0    0  501 -0.00000000000E+00 -0.00000000000E+00 -0.61245266910E+03  0.61245266912E+03  0.50400000000E-02 0.  1.
    8880023    1    1    2    0    0  0.10752882380E+03 -0.16089904216E+03  0.94368403104E+03  0.11669621701E+04  0.65864270000E+03 0. -1.
    8880022    1    1    2    0    0 -0.10752882380E+03  0.16089904216E+03 -0.47044171932E+03  0.53118547986E+03  0.15294330000E+03 0.  0.
<mgrwt>
<rscale>  0 0.53149489E+03</rscale>
<asrwt>0</asrwt>
<pdfrwt beam="1">  1        1 0.16703000E+00 0.68648464E+03</pdfrwt>
<pdfrwt beam="2">  1       -1 0.94223488E-01 0.68648464E+03</pdfrwt>
<totfact> 0.14751652E+01</totfact>
</mgrwt>
</event>
<event>
 4    5  0.1074803E-007  0.9611492E+03  0.7818608E-02  0.9434251E-01
         -1   -1    0    0    0  501 -0.00000000000E+00  0.00000000000E+00  0.73703429802E+03  0.73703429804E+03  0.50400000000E-02 0.  1.
          1   -1    0    0  501    0  0.00000000000E+00 -0.00000000000E+00 -0.10657547763E+04  0.10657547763E+04  0.50400000000E-02 0. -1.
    8880023    1    1    2    0    0 -0.11015041241E+01  0.69999736985E+03 -0.47403723294E+03  0.10716898038E+04  0.65864270000E+03 0.  0.
    8880022    1    1    2    0    0  0.11015041241E+01 -0.69999736985E+03  0.14531675471E+03  0.73109927049E+03  0.15294330000E+03 0.  0.
<mgrwt>
<rscale>  0 0.89309763E+03</rscale>
<asrwt>0</asrwt>
<pdfrwt beam="1">  1        1 0.16396227E+00 0.96114918E+03</pdfrwt>
<pdfrwt beam="2">  1       -1 0.11338989E+00 0.96114918E+03</pdfrwt>
<totfact> 0.96228237E+00</totfact>
</mgrwt>
</event>
<event>
 4    5  0.1074803E-007  0.7837545E+03  0.7818608E-02  0.9747090E-01
         -1   -1    0    0    0  501 -0.00000000000E+00  0.00000000000E+00  0.60005128458E+03  0.60005128460E+03  0.50400000000E-02 0.  1.
          1   -1    0    0  501    0  0.00000000000E+00 -0.00000000000E+00 -0.11588799096E+04  0.11588799096E+04  0.50400000000E-02 0. -1.
    8880023    1    1    2    0    0 -0.42443896955E+03 -0.17675663417E+02 -0.89970236772E+03  0.11932038488E+04  0.65864270000E+03 0.  0.
    8880022    1    1    2    0    0  0.42443896955E+03  0.17675663417E+02  0.34087374268E+03  0.56572734547E+03  0.15294330000E+03 0.  0.
<mgrwt>
<rscale>  0 0.68280947E+03</rscale>
<asrwt>0</asrwt>
<pdfrwt beam="1">  1        1 0.17828922E+00 0.78375447E+03</pdfrwt>
<pdfrwt beam="2">  1       -1 0.92315582E-01 0.78375447E+03</pdfrwt>
<totfact> 0.13449057E+01</totfact>
</mgrwt>
</event>
<event>
 4    5  0.1074803E-007  0.9919022E+03  0.7818608E-02  0.9392229E-01
         -1   -1    0    0    0  501 -0.00000000000E+00  0.00000000000E+00  0.59738842419E+03  0.59738842421E+03  0.50400000000E-02 0.  1.
          1   -1    0    0  501    0  0.00000000000E+00 -0.00000000000E+00 -0.23223334501E+04  0.23223334501E+04  0.50400000000E-02 0. -1.
    8880023    1    1    2    0    0  0.43501283257E+03 -0.60068600056E+03 -0.18992390074E+04  0.21426569602E+04  0.65864270000E+03 0.  0.
    8880022    1    1    2    0    0 -0.43501283257E+03  0.60068600056E+03  0.17429398145E+03  0.77706491412E+03  0.15294330000E+03 0.  0.
<mgrwt>
<rscale>  0 0.92717932E+03</rscale>
<asrwt>0</asrwt>
<pdfrwt beam="1">  1        1 0.35728206E+00 0.99190223E+03</pdfrwt>
<pdfrwt beam="2">  1       -1 0.91905913E-01 0.99190223E+03</pdfrwt>
<totfact> 0.21070742E+00</totfact>
</mgrwt>
</event>
<event>
 4    5  0.1074803E-007  0.9717284E+03  0.7818608E-02  0.9419518E-01
          1   -1    0    0  501    0  0.00000000000E+00  0.00000000000E+00  0.11856205976E+04  0.11856205976E+04  0.50400000000E-02 0. -1.
         -1   -1    0    0    0  501 -0.00000000000E+00 -0.00000000000E+00 -0.93209964782E+03  0.93209964783E+03  0.50400000000E-02 0.  1.
    8880023    1    1    2    0    0 -0.26537893038E+03  0.66333991297E+03  0.75582790063E+03  0.12310693882E+04  0.65864270000E+03 0.  0.
    8880022    1    1    2    0    0  0.26537893038E+03 -0.66333991297E+03 -0.50230695084E+03  0.88665085728E+03  0.15294330000E+03 0.  0.
<mgrwt>
<rscale>  0 0.90486709E+03</rscale>
<asrwt>0</asrwt>
<pdfrwt beam="1">  1        1 0.18240317E+00 0.97172837E+03</pdfrwt>
<pdfrwt beam="2">  1       -1 0.14339995E+00 0.97172837E+03</pdfrwt>
<totfact> 0.43372265E+00</totfact>
</mgrwt>
</event>
<event>
 4    5  0.1074803E-007  0.9802386E+03  0.7818608E-02  0.9407881E-01
         -1   -1    0    0    0  501 -0.00000000000E+00  0.00000000000E+00  0.15093847558E+04  0.15093847558E+04  0.50400000000E-02 0.  1.
          1   -1    0    0  501    0  0.00000000000E+00 -0.00000000000E+00 -0.15609999080E+04  0.15609999080E+04  0.50400000000E-02 0. -1.
    8880023    1    1    2    0    0 -0.23089820455E+03 -0.68829034623E+03 -0.12939802984E+04  0.16233461740E+04  0.65864270000E+03 0. -1.
    8880022    1    1    2    0    0  0.23089820455E+03  0.68829034623E+03  0.12423651462E+04  0.14470384898E+04  0.15294330000E+03 0.  0.
<mgrwt>
<rscale>  0 0.91429958E+03</rscale>
<asrwt>0</asrwt>
<pdfrwt beam="1">  1        1 0.24015383E+00 0.98023864E+03</pdfrwt>
<pdfrwt beam="2">  1       -1 0.23221304E+00 0.98023864E+03</pdfrwt>
<totfact> 0.54897374E-01</totfact>
</mgrwt>
</event>
<event>
 4    5  0.1074803E-007  0.1055141E+04  0.7818608E-02  0.9312726E-01
         -1   -1    0    0    0  501 -0.00000000000E+00  0.00000000000E+00  0.11385949923E+04  0.11385949923E+04  0.50400000000E-02 0.  1.
          1   -1    0    0  501    0  0.00000000000E+00 -0.00000000000E+00 -0.14554276891E+04  0.14554276891E+04  0.50400000000E-02 0. -1.
    8880023    1    1    2    0    0  0.76727747577E+03 -0.30132757777E+03  0.70745828697E+03  0.12703623373E+04  0.65864270000E+03 0.  0.
    8880022    1    1    2    0    0 -0.76727747577E+03  0.30132757777E+03 -0.10242909838E+04  0.13236603440E+04  0.15294330000E+03 0.  0.
<mgrwt>
<rscale>  0 0.99619655E+03</rscale>
<asrwt>0</asrwt>
<pdfrwt beam="1">  1        1 0.22391195E+00 0.10551413E+04</pdfrwt>
<pdfrwt beam="2">  1       -1 0.17516846E+00 0.10551413E+04</pdfrwt>
<totfact> 0.15815939E+00</totfact>
</mgrwt>
</event>
<event>
 4    5  0.1074803E-007  0.6694305E+03  0.7818608E-02  0.1016074E+00
          1   -1    0    0  501    0  0.00000000000E+00  0.00000000000E+00  0.15770638458E+04  0.15770638458E+04  0.50400000000E-02 0. -1.
         -1   -1    0    0    0  501 -0.00000000000E+00 -0.00000000000E+00 -0.35689169809E+03  0.35689169812E+03  0.50400000000E-02 0.  1.
    8880023    1    1    2    0    0  0.95376258753E+02 -0.72320996051E+02  0.14713330784E+04  0.16164647200E+04  0.65864270000E+03 0. -1.
    8880022    1    1    2    0    0 -0.95376258753E+02  0.72320996051E+02 -0.25116093064E+03  0.31749082396E+03  0.15294330000E+03 0.  0.
<mgrwt>
<rscale>  0 0.49130204E+03</rscale>
<asrwt>0</asrwt>
<pdfrwt beam="1">  1        1 0.24262521E+00 0.66943048E+03</pdfrwt>
<pdfrwt beam="2">  1       -1 0.54906415E-01 0.66943048E+03</pdfrwt>
<totfact> 0.20316450E+01</totfact>
</mgrwt>
</event>
<event>
 4    5  0.1074803E-007  0.8455679E+03  0.7818608E-02  0.9619769E-01
          1   -1    0    0  501    0  0.00000000000E+00  0.00000000000E+00  0.21160483731E+04  0.21160483731E+04  0.50400000000E-02 0. -1.
         -1   -1    0    0    0  501 -0.00000000000E+00 -0.00000000000E+00 -0.33738084564E+03  0.33738084568E+03  0.50400000000E-02 0.  1.
    8880023    1    1    2    0    0 -0.51101026071E+03  0.14157491498E+03  0.16963978404E+04  0.18954552968E+04  0.65864270000E+03 0.  0.
    8880022    1    1    2    0    0  0.51101026071E+03 -0.14157491498E+03  0.82269686994E+02  0.55797392189E+03  0.15294330000E+03 0.  0.
<mgrwt>
<rscale>  0 0.76001413E+03</rscale>
<asrwt>0</asrwt>
<pdfrwt beam="1">  1        1 0.32554590E+00 0.84556794E+03</pdfrwt>
<pdfrwt beam="2">  1       -1 0.51904746E-01 0.84556794E+03</pdfrwt>
<totfact> 0.95922134E+00</totfact>
</mgrwt>
</event>
<event>
 4    5  0.1074803E-007  0.8904823E+03  0.7818608E-02  0.9541487E-01
          1   -1    0    0  501    0  0.00000000000E+00  0.00000000000E+00  0.14196119678E+04  0.14196119678E+04  0.50400000000E-02 0. -1.
         -1   -1    0    0    0  501 -0.00000000000E+00 -0.00000000000E+00 -0.59284294768E+03  0.59284294771E+03  0.50400000000E-02 0.  1.
    8880023    1    1    2    0    0 -0.23402412677E+03 -0.55170749231E+03  0.10298670403E+04  0.13614642030E+04  0.65864270000E+03 0.  0.
    8880022    1    1    2    0    0  0.23402412677E+03  0.55170749231E+03 -0.20309802022E+03  0.65099071254E+03  0.15294330000E+03 0.  0.
<mgrwt>
<rscale>  0 0.81293079E+03</rscale>
<asrwt>0</asrwt>
<pdfrwt beam="1">  1        1 0.21840184E+00 0.89048226E+03</pdfrwt>
<pdfrwt beam="2">  1       -1 0.91206609E-01 0.89048226E+03</pdfrwt>
<totfact> 0.88872343E+00</totfact>
</mgrwt>
</event>
<event>
 4    5  0.1074803E-007  0.1153001E+04  0.7818608E-02  0.9204220E-01
         -1   -1    0    0    0  501 -0.00000000000E+00  0.00000000000E+00  0.92559123271E+03  0.92559123273E+03  0.50400000000E-02 0.  1.
          1   -1    0    0  501    0  0.00000000000E+00 -0.00000000000E+00 -0.16787921555E+04  0.16787921555E+04  0.50400000000E-02 0. -1.
    8880023    1    1    2    0    0  0.60769378227E+03  0.72547251691E+03  0.28866506288E+03  0.11885873256E+04  0.65864270000E+03 0.  1.
    8880022    1    1    2    0    0 -0.60769378227E+03 -0.72547251691E+03 -0.10418659856E+04  0.14157960626E+04  0.15294330000E+03 0.  0.
<mgrwt>
<rscale>  0 0.11009978E+04</rscale>
<asrwt>0</asrwt>
<pdfrwt beam="1">  1        1 0.25827572E+00 0.11530014E+04</pdfrwt>
<pdfrwt beam="2">  1       -1 0.14239865E+00 0.11530014E+04</pdfrwt>
<totfact> 0.19501464E+00</totfact>
</mgrwt>
</event>
<event>
 4    5  0.1074803E-007  0.1249648E+04  0.7818608E-02  0.9110310E-01
          1   -1    0    0  501    0  0.00000000000E+00  0.00000000000E+00  0.13096572208E+04  0.13096572208E+04  0.50400000000E-02 0. -1.
         -1   -1    0    0    0  501 -0.00000000000E+00 -0.00000000000E+00 -0.15971740426E+04  0.15971740426E+04  0.50400000000E-02 0.  1.
    8880023    1    1    2    0    0 -0.10619640282E+04  0.64801691718E+01 -0.10154995051E+04  0.16102357097E+04  0.65864270000E+03 0.  0.
    8880022    1    1    2    0    0  0.10619640282E+04 -0.64801691718E+01  0.72798268321E+03  0.12965955537E+04  0.15294330000E+03 0.  0.
<mgrwt>
<rscale>  0 0.12029142E+04</rscale>
<asrwt>0</asrwt>
<pdfrwt beam="1">  1        1 0.20148572E+00 0.12496479E+04</pdfrwt>
<pdfrwt beam="2">  1       -1 0.24571909E+00 0.12496479E+04</pdfrwt>
<totfact> 0.64528965E-01</totfact>
</mgrwt>
</event>
<event>
 4    5  0.1074803E-007  0.1328716E+04  0.7818608E-02  0.9041150E-01
          1   -1    0    0  501    0  0.00000000000E+00  0.00000000000E+00  0.23168790624E+04  0.23168790624E+04  0.50400000000E-02 0. -1.
         -1   -1    0    0    0  501 -0.00000000000E+00 -0.00000000000E+00 -0.16368184790E+04  0.16368184791E+04  0.50400000000E-02 0.  1.
    8880023    1    1    2    0    0 -0.10719351769E+04 -0.42735486292E+03  0.18667754002E+04  0.22913615610E+04  0.65864270000E+03 0.  0.
    8880022    1    1    2    0    0  0.10719351769E+04  0.42735486292E+03 -0.11867148168E+04  0.16623359804E+04  0.15294330000E+03 0.  0.
<mgrwt>
<rscale>  0 0.12854921E+04</rscale>
<asrwt>0</asrwt>
<pdfrwt beam="1">  1        1 0.35644293E+00 0.13287165E+04</pdfrwt>
<pdfrwt beam="2">  1       -1 0.25181823E+00 0.13287165E+04</pdfrwt>
<totfact> 0.11872621E-01</totfact>
</mgrwt>
</event>
<event>
 4    5  0.1074803E-007  0.6677040E+03  0.7818608E-02  0.1017365E+00
         -1   -1    0    0    0  501 -0.00000000000E+00  0.00000000000E+00  0.75863173613E+03  0.75863173615E+03  0.50400000000E-02 0.  1.
          1   -1    0    0  501    0  0.00000000000E+00 -0.00000000000E+00 -0.54263559478E+03  0.54263559480E+03  0.50400000000E-02 0. -1.
    8880023    1    1    2    0    0  0.10954967083E+03  0.41653738753E+01 -0.31473444005E+03  0.73816424645E+03  0.65864270000E+03 0. -1.
    8880022    1    1    2    0    0 -0.10954967083E+03 -0.41653738753E+01  0.53073058141E+03  0.56310308450E+03  0.15294330000E+03 0.  0.
<mgrwt>
<rscale>  0 0.48649564E+03</rscale>
<asrwt>0</asrwt>
<pdfrwt beam="1">  1        1 0.83482399E-01 0.66770404E+03</pdfrwt>
<pdfrwt beam="2">  1       -1 0.11671257E+00 0.66770404E+03</pdfrwt>
<totfact> 0.27070422E+01</totfact>
</mgrwt>
</event>
<event>
 4    5  0.1074803E-007  0.9957923E+03  0.7818608E-02  0.9387083E-01
          1   -1    0    0  501    0  0.00000000000E+00  0.00000000000E+00  0.29574891767E+04  0.29574891767E+04  0.50400000000E-02 0. -1.
         -1   -1    0    0    0  501 -0.00000000000E+00 -0.00000000000E+00 -0.36501362339E+03  0.36501362342E+03  0.50400000000E-02 0.  1.
    8880023    1    1    2    0    0  0.98718545096E+02  0.74030176749E+03  0.22993876549E+04  0.25057505566E+04  0.65864270000E+03 0. -1.
    8880022    1    1    2    0    0 -0.98718545096E+02 -0.74030176749E+03  0.29308789839E+03  0.81675224352E+03  0.15294330000E+03 0.  0.
<mgrwt>
<rscale>  0 0.93146329E+03</rscale>
<asrwt>0</asrwt>
<pdfrwt beam="1">  1        1 0.45499833E+00 0.99579228E+03</pdfrwt>
<pdfrwt beam="2">  1       -1 0.56155943E-01 0.99579228E+03</pdfrwt>
<totfact> 0.21168792E+00</totfact>
</mgrwt>
</event>
<event>
 4    5  0.1074803E-007  0.1017787E+04  0.7818608E-02  0.9358648E-01
          1   -1    0    0  501    0  0.00000000000E+00  0.00000000000E+00  0.18879702202E+04  0.18879702202E+04  0.50400000000E-02 0. -1.
         -1   -1    0    0    0  501 -0.00000000000E+00 -0.00000000000E+00 -0.94029024076E+03  0.94029024077E+03  0.50400000000E-02 0.  1.
    8880023    1    1    2    0    0 -0.45737624767E+03  0.62680757870E+03  0.15359741609E+04  0.18425817762E+04  0.65864270000E+03 0.  0.
    8880022    1    1    2    0    0  0.45737624767E+03 -0.62680757870E+03 -0.58829418150E+03  0.98567868479E+03  0.15294330000E+03 0.  0.
<mgrwt>
<rscale>  0 0.95558383E+03</rscale>
<asrwt>0</asrwt>
<pdfrwt beam="1">  1        1 0.29045695E+00 0.10177873E+04</pdfrwt>
<pdfrwt beam="2">  1       -1 0.14466004E+00 0.10177873E+04</pdfrwt>
<totfact> 0.13743802E+00</totfact>
</mgrwt>
</event>
<event>
 4    5  0.1849957E-007  0.1228741E+04  0.7818608E-02  0.9129678E-01
          1   -1    0    0  501    0  0.00000000000E+00  0.00000000000E+00  0.25146721665E+04  0.25146721665E+04  0.50400000000E-02 0. -1.
         -1   -1    0    0    0  501 -0.00000000000E+00 -0.00000000000E+00 -0.23374452731E+04  0.23374452731E+04  0.50400000000E-02 0.  1.
    8880023    1    1    2    0    0 -0.63226252808E+03 -0.82233776297E+03  0.22305376585E+04  0.25465866868E+04  0.65864270000E+03 0. -1.
    8880022    1    1    2    0    0  0.63226252808E+03  0.82233776297E+03 -0.20533107651E+04  0.23055307528E+04  0.15294330000E+03 0.  0.
<mgrwt>
<rscale>  0 0.11809709E+04</rscale>
<asrwt>0</asrwt>
<pdfrwt beam="1">  1        1 0.38687264E+00 0.12287414E+04</pdfrwt>
<pdfrwt beam="2">  1       -1 0.35960697E+00 0.12287414E+04</pdfrwt>
<totfact> 0.17553893E-02</totfact>
</mgrwt>
</event>
<event>
 4    5  0.1074803E-007  0.7345729E+03  0.7818608E-02  0.9876047E-01
         -1   -1    0    0    0  501 -0.00000000000E+00  0.00000000000E+00  0.56158531243E+03  0.56158531245E+03  0.50400000000E-02 0.  1.
          1   -1    0    0  501    0  0.00000000000E+00 -0.00000000000E+00 -0.21944303104E+04  0.21944303104E+04  0.50400000000E-02 0. -1.
    8880023    1    1    2    0    0  0.32140711738E+03 -0.49846458313E+02 -0.20662682800E+04  0.21929573675E+04  0.65864270000E+03 0. -1.
    8880022    1    1    2    0    0 -0.32140711738E+03  0.49846458313E+02  0.43342328203E+03  0.56305825535E+03  0.15294330000E+03 0.  0.
<mgrwt>
<rscale>  0 0.61436310E+03</rscale>
<asrwt>0</asrwt>
<pdfrwt beam="1">  1        1 0.33760466E+00 0.73457294E+03</pdfrwt>
<pdfrwt beam="2">  1       -1 0.86397742E-01 0.73457294E+03</pdfrwt>
<totfact> 0.30751599E+00</totfact>
</mgrwt>
</event>
<event>
 4    5  0.1074803E-007  0.8921532E+03  0.7818608E-02  0.9538747E-01
          1   -1    0    0  501    0  0.00000000000E+00  0.00000000000E+00  0.15215125140E+04  0.15215125140E+04  0.50400000000E-02 0. -1.
         -1   -1    0    0    0  501 -0.00000000000E+00 -0.00000000000E+00 -0.87246939215E+03  0.87246939216E+03  0.50400000000E-02 0.  1.
    8880023    1    1    2    0    0  0.20741318800E+03 -0.56489548427E+03  0.12461281801E+04  0.15325706464E+04  0.65864270000E+03 0. -1.
    8880022    1    1    2    0    0 -0.20741318800E+03  0.56489548427E+03 -0.59708505823E+03  0.86141125978E+03  0.15294330000E+03 0.  0.
<mgrwt>
<rscale>  0 0.81486427E+03</rscale>
<asrwt>0</asrwt>
<pdfrwt beam="1">  1        1 0.23407884E+00 0.89215321E+03</pdfrwt>
<pdfrwt beam="2">  1       -1 0.13422606E+00 0.89215321E+03</pdfrwt>
<totfact> 0.30165723E+00</totfact>
</mgrwt>
</event>
<event>
 4    5  0.1074803E-007  0.2020818E+04  0.7818608E-02  0.8609319E-01
         -1   -1    0    0    0  501 -0.00000000000E+00  0.00000000000E+00  0.13914224085E+04  0.13914224085E+04  0.50400000000E-02 0.  1.
          1   -1    0    0  501    0  0.00000000000E+00 -0.00000000000E+00 -0.36499456887E+04  0.36499456888E+04  0.50400000000E-02 0. -1.
    8880023    1    1    2    0    0 -0.36135144212E+03  0.18759856074E+04 -0.23784774810E+04  0.31210354368E+04  0.65864270000E+03 0.  0.
    8880022    1    1    2    0    0  0.36135144212E+03 -0.18759856074E+04  0.11995420078E+03  0.19203326605E+04  0.15294330000E+03 0.  0.
<mgrwt>
<rscale>  0 0.19942397E+04</rscale>
<asrwt>0</asrwt>
<pdfrwt beam="1">  1        1 0.56153011E+00 0.20208184E+04</pdfrwt>
<pdfrwt beam="2">  1       -1 0.21406499E+00 0.20208184E+04</pdfrwt>
<totfact> 0.20375470E-02</totfact>
</mgrwt>
</event>
<event>
 4    5  0.1074803E-007  0.1003108E+04  0.7818608E-02  0.9377503E-01
         -1   -1    0    0    0  501 -0.00000000000E+00  0.00000000000E+00  0.50210527640E+03  0.50210527643E+03  0.50400000000E-02 0.  1.
          1   -1    0    0  501    0  0.00000000000E+00 -0.00000000000E+00 -0.21103782824E+04  0.21103782824E+04  0.50400000000E-02 0. -1.
    8880023    1    1    2    0    0 -0.60751152258E+03 -0.45093722537E+03 -0.22440408587E+03  0.10279017615E+04  0.65864270000E+03 0.  1.
    8880022    1    1    2    0    0  0.60751152258E+03  0.45093722537E+03 -0.13838689201E+04  0.15845817973E+04  0.15294330000E+03 0.  0.
<mgrwt>
<rscale>  0 0.93950430E+03</rscale>
<asrwt>0</asrwt>
<pdfrwt beam="1">  1        1 0.32467358E+00 0.10031076E+04</pdfrwt>
<pdfrwt beam="2">  1       -1 0.77246967E-01 0.10031076E+04</pdfrwt>
<totfact> 0.42655362E+00</totfact>
</mgrwt>
</event>
<event>
 4    5  0.1074803E-007  0.1260759E+04  0.7818608E-02  0.9100210E-01
         -1   -1    0    0    0  501 -0.00000000000E+00  0.00000000000E+00  0.10595546350E+04  0.10595546350E+04  0.50400000000E-02 0.  1.
          1   -1    0    0  501    0  0.00000000000E+00 -0.00000000000E+00 -0.19917347837E+04  0.19917347837E+04  0.50400000000E-02 0. -1.
    8880023    1    1    2    0    0 -0.53315740695E+03 -0.93351312794E+03 -0.13866871216E+04  0.18741437939E+04  0.65864270000E+03 0.  0.
    8880022    1    1    2    0    0  0.53315740695E+03  0.93351312794E+03  0.45450697292E+03  0.11771456248E+04  0.15294330000E+03 0.  0.
<mgrwt>
<rscale>  0 0.12145565E+04</rscale>
<asrwt>0</asrwt>
<pdfrwt beam="1">  1        1 0.30642074E+00 0.12607592E+04</pdfrwt>
<pdfrwt beam="2">  1       -1 0.16300841E+00 0.12607592E+04</pdfrwt>
<totfact> 0.81598351E-01</totfact>
</mgrwt>
</event>
<event>
 4    5  0.1074803E-007  0.1202316E+04  0.7818608E-02  0.9154874E-01
          1   -1    0    0  501    0  0.00000000000E+00  0.00000000000E+00  0.16252084197E+04  0.16252084197E+04  0.50400000000E-02 0. -1.
         -1   -1    0    0    0  501 -0.00000000000E+00 -0.00000000000E+00 -0.16579437140E+04  0.16579437140E+04  0.50400000000E-02 0.  1.
    8880023    1    1    2    0    0 -0.35912626304E+03 -0.93956491062E+03  0.11905691592E+04  0.16920458100E+04  0.65864270000E+03 0.  0.
    8880022    1    1    2    0    0  0.35912626304E+03  0.93956491062E+03 -0.12233044536E+04  0.15911063237E+04  0.15294330000E+03 0.  0.
<mgrwt>
<rscale>  0 0.11531590E+04</rscale>
<asrwt>0</asrwt>
<pdfrwt beam="1">  1        1 0.25003206E+00 0.12023161E+04</pdfrwt>
<pdfrwt beam="2">  1       -1 0.25506827E+00 0.12023161E+04</pdfrwt>
<totfact> 0.33989159E-01</totfact>
</mgrwt>
</event>
<event>
 4    5  0.1074803E-007  0.6599855E+03  0.7818608E-02  0.1024171E+00
          1   -1    0    0  501    0  0.00000000000E+00  0.00000000000E+00  0.12690184136E+03  0.12690184146E+03  0.50400000000E-02 0. -1.
         -1   -1    0    0    0  501 -0.00000000000E+00 -0.00000000000E+00 -0.19435512632E+04  0.19435512632E+04  0.50400000000E-02 0.  1.
    8880023    1    1    2    0    0  0.24422362038E+02  0.34266962602E+02 -0.78007239624E+03  0.10218090948E+04  0.65864270000E+03 0. -1.
    8880022    1    1    2    0    0 -0.24422362038E+02 -0.34266962602E+02 -0.10365770256E+04  0.10486440099E+04  0.15294330000E+03 0.  0.
<mgrwt>
<rscale>  0 0.46210925E+03</rscale>
<asrwt>0</asrwt>
<pdfrwt beam="1">  1        1 0.19523362E-01 0.65998552E+03</pdfrwt>
<pdfrwt beam="2">  1       -1 0.29900787E+00 0.65998552E+03</pdfrwt>
<totfact> 0.95710757E+00</totfact>
</mgrwt>
</event>
<event>
 4    5  0.1074803E-007  0.1035145E+04  0.7818608E-02  0.9336956E-01
          1   -1    0    0  501    0  0.00000000000E+00  0.00000000000E+00  0.21398844989E+04  0.21398844989E+04  0.50400000000E-02 0. -1.
         -1   -1    0    0    0  501 -0.00000000000E+00 -0.00000000000E+00 -0.98259100826E+03  0.98259100827E+03  0.50400000000E-02 0.  1.
    8880023    1    1    2    0    0  0.71491978668E+03  0.35581568525E+03  0.18064651140E+04  0.20820282221E+04  0.65864270000E+03 0.  0.
    8880022    1    1    2    0    0 -0.71491978668E+03 -0.35581568525E+03 -0.64917162342E+03  0.10404472850E+04  0.15294330000E+03 0.  0.
<mgrwt>
<rscale>  0 0.97450677E+03</rscale>
<asrwt>0</asrwt>
<pdfrwt beam="1">  1        1 0.32921300E+00 0.10351451E+04</pdfrwt>
<pdfrwt beam="2">  1       -1 0.15116785E+00 0.10351451E+04</pdfrwt>
<totfact> 0.82391836E-01</totfact>
</mgrwt>
</event>
<event>
 4    5  0.1074803E-007  0.9949047E+03  0.7818608E-02  0.9388254E-01
         -1   -1    0    0    0  501 -0.00000000000E+00  0.00000000000E+00  0.35129587631E+03  0.35129587635E+03  0.50400000000E-02 0.  1.
          1   -1    0    0  501    0  0.00000000000E+00 -0.00000000000E+00 -0.27170875492E+04  0.27170875492E+04  0.50400000000E-02 0. -1.
    8880023    1    1    2    0    0 -0.93822901747E+02 -0.73974483979E+03 -0.64214375577E+03  0.11841384945E+04  0.65864270000E+03 0.  0.
    8880022    1    1    2    0    0  0.93822901747E+02  0.73974483979E+03 -0.17236479171E+04  0.18842449310E+04  0.15294330000E+03 0.  0.
<mgrwt>
<rscale>  0 0.93048634E+03</rscale>
<asrwt>0</asrwt>
<pdfrwt beam="1">  1        1 0.41801345E+00 0.99490470E+03</pdfrwt>
<pdfrwt beam="2">  1       -1 0.54045521E-01 0.99490470E+03</pdfrwt>
<totfact> 0.33755772E+00</totfact>
</mgrwt>
</event>
<event>
 4    5  0.1074803E-007  0.9412728E+03  0.7818608E-02  0.9462783E-01
          1   -1    0    0  501    0  0.00000000000E+00  0.00000000000E+00  0.46978423076E+03  0.46978423079E+03  0.50400000000E-02 0. -1.
         -1   -1    0    0    0  501 -0.00000000000E+00 -0.00000000000E+00 -0.16842451900E+04  0.16842451900E+04  0.50400000000E-02 0.  1.
    8880023    1    1    2    0    0  0.23201421908E+03  0.63115259001E+03 -0.11119121681E+04  0.14568263677E+04  0.65864270000E+03 0.  0.
    8880022    1    1    2    0    0 -0.23201421908E+03 -0.63115259001E+03 -0.10254879115E+03  0.69720305314E+03  0.15294330000E+03 0.  0.
<mgrwt>
<rscale>  0 0.87084144E+03</rscale>
<asrwt>0</asrwt>
<pdfrwt beam="1">  1        1 0.72274498E-01 0.94127275E+03</pdfrwt>
<pdfrwt beam="2">  1       -1 0.25911464E+00 0.94127275E+03</pdfrwt>
<totfact> 0.29850326E+00</totfact>
</mgrwt>
</event>
<event>
 4    5  0.1074803E-007  0.1639310E+04  0.7818608E-02  0.8817054E-01
          1   -1    0    0  501    0  0.00000000000E+00  0.00000000000E+00  0.10955319959E+04  0.10955319960E+04  0.50400000000E-02 0. -1.
         -1   -1    0    0    0  501 -0.00000000000E+00 -0.00000000000E+00 -0.27639364902E+04  0.27639364902E+04  0.50400000000E-02 0.  1.
    8880023    1    1    2    0    0  0.72008533860E+03  0.13171960771E+04 -0.40535611088E+02  0.16398114960E+04  0.65864270000E+03 0.  0.
    8880022    1    1    2    0    0 -0.72008533860E+03 -0.13171960771E+04 -0.16278688831E+04  0.22196569901E+04  0.15294330000E+03 0.  0.
<mgrwt>
<rscale>  0 0.16056999E+04</rscale>
<asrwt>0</asrwt>
<pdfrwt beam="1">  1        1 0.16854339E+00 0.16393104E+04</pdfrwt>
<pdfrwt beam="2">  1       -1 0.42522100E+00 0.16393104E+04</pdfrwt>
<totfact> 0.57347249E-02</totfact>
</mgrwt>
</event>
<event>
 4    5  0.1074803E-007  0.7512106E+03  0.7818608E-02  0.9828418E-01
         -1   -1    0    0    0  501 -0.00000000000E+00  0.00000000000E+00  0.26620158588E+03  0.26620158593E+03  0.50400000000E-02 0.  1.
          1   -1    0    0  501    0  0.00000000000E+00 -0.00000000000E+00 -0.12309916295E+04  0.12309916296E+04  0.50400000000E-02 0. -1.
    8880023    1    1    2    0    0  0.35651056747E+03  0.58372961303E+02 -0.59857762426E+03  0.96052723327E+03  0.65864270000E+03 0.  1.
    8880022    1    1    2    0    0 -0.35651056747E+03 -0.58372961303E+02 -0.36621241940E+03  0.53666598221E+03  0.15294330000E+03 0. -1.
<mgrwt>
<rscale>  0 0.63859528E+03</rscale>
<asrwt>0</asrwt>
<pdfrwt beam="1">  1        1 0.18938332E+00 0.75121062E+03</pdfrwt>
<pdfrwt beam="2">  1       -1 0.40954091E-01 0.75121062E+03</pdfrwt>
<totfact> 0.60596622E+01</totfact>
</mgrwt>
</event>
<event>
 4    5  0.1074803E-007  0.6735514E+03  0.7818608E-02  0.1013235E+00
         -1   -1    0    0    0  501 -0.00000000000E+00  0.00000000000E+00  0.71631524687E+03  0.71631524689E+03  0.50400000000E-02 0.  1.
          1   -1    0    0  501    0  0.00000000000E+00 -0.00000000000E+00 -0.15652063618E+04  0.15652063618E+04  0.50400000000E-02 0. -1.
    8880023    1    1    2    0    0  0.10123248226E+03 -0.98047329975E+02 -0.14751423965E+04  0.16216400928E+04  0.65864270000E+03 0. -1.
    8880022    1    1    2    0    0 -0.10123248226E+03  0.98047329975E+02  0.62625128155E+03  0.65988151591E+03  0.15294330000E+03 0.  0.
<mgrwt>
<rscale>  0 0.50208821E+03</rscale>
<asrwt>0</asrwt>
<pdfrwt beam="1">  1        1 0.24080098E+00 0.67355141E+03</pdfrwt>
<pdfrwt beam="2">  1       -1 0.11020235E+00 0.67355141E+03</pdfrwt>
<totfact> 0.47387740E+00</totfact>
</mgrwt>
</event>
<event>
 4    5  0.1074803E-007  0.8182905E+03  0.7818608E-02  0.9672560E-01
         -1   -1    0    0    0  501 -0.00000000000E+00  0.00000000000E+00  0.86452230790E+03  0.86452230791E+03  0.50400000000E-02 0.  1.
          1   -1    0    0  501    0  0.00000000000E+00 -0.00000000000E+00 -0.95787121232E+03  0.95787121233E+03  0.50400000000E-02 0. -1.
    8880023    1    1    2    0    0  0.46187141557E+03 -0.14987950050E+03 -0.66679818443E+03  0.10555657697E+04  0.65864270000E+03 0. -1.
    8880022    1    1    2    0    0 -0.46187141557E+03  0.14987950050E+03  0.57344928001E+03  0.76682775051E+03  0.15294330000E+03 0.  0.
<mgrwt>
<rscale>  0 0.72674316E+03</rscale>
<asrwt>0</asrwt>
<pdfrwt beam="1">  1        1 0.14736480E+00 0.81829046E+03</pdfrwt>
<pdfrwt beam="2">  1       -1 0.13300343E+00 0.81829046E+03</pdfrwt>
<totfact> 0.80042914E+00</totfact>
</mgrwt>
</event>
<event>
 4    5  0.1074803E-007  0.1281332E+04  0.7818608E-02  0.9081851E-01
          1   -1    0    0  501    0  0.00000000000E+00  0.00000000000E+00  0.25855880889E+04  0.25855880889E+04  0.50400000000E-02 0. -1.
         -1   -1    0    0    0  501 -0.00000000000E+00 -0.00000000000E+00 -0.95189677816E+03  0.95189677817E+03  0.50400000000E-02 0.  1.
    8880023    1    1    2    0    0  0.10735859111E+04 -0.23540364890E+03  0.19944985331E+04  0.23706193687E+04  0.65864270000E+03 0.  0.
    8880022    1    1    2    0    0 -0.10735859111E+04  0.23540364890E+03 -0.36080722239E+03  0.11668654983E+04  0.15294330000E+03 0.  0.
<mgrwt>
<rscale>  0 0.12360780E+04</rscale>
<asrwt>0</asrwt>
<pdfrwt beam="1">  1        1 0.39778278E+00 0.12813320E+04</pdfrwt>
<pdfrwt beam="2">  1       -1 0.14644566E+00 0.12813320E+04</pdfrwt>
<totfact> 0.42918466E-01</totfact>
</mgrwt>
</event>
<event>
 4    5  0.1074803E-007  0.9795615E+03  0.7818608E-02  0.9408800E-01
         -1   -1    0    0    0  501 -0.00000000000E+00  0.00000000000E+00  0.25479907945E+03  0.25479907950E+03  0.50400000000E-02 0.  1.
          1   -1    0    0  501    0  0.00000000000E+00 -0.00000000000E+00 -0.38772290211E+04  0.38772290211E+04  0.50400000000E-02 0. -1.
    8880023    1    1    2    0    0 -0.50909355143E+03  0.51628892566E+03 -0.30265902107E+04  0.31811615816E+04  0.65864270000E+03 0.  0.
    8880022    1    1    2    0    0  0.50909355143E+03 -0.51628892566E+03 -0.59583973099E+03  0.95086651897E+03  0.15294330000E+03 0.  0.
<mgrwt>
<rscale>  0 0.91355016E+03</rscale>
<asrwt>0</asrwt>
<pdfrwt beam="1">  1        1 0.59649673E+00 0.97956149E+03</pdfrwt>
<pdfrwt beam="2">  1       -1 0.39199861E-01 0.97956149E+03</pdfrwt>
<totfact> 0.81609862E-01</totfact>
</mgrwt>
</event>
<event>
 4    5  0.1074803E-007  0.6614008E+03  0.7818608E-02  0.1022765E+00
         -1   -1    0    0    0  501 -0.00000000000E+00  0.00000000000E+00  0.35579603838E+03  0.35579603842E+03  0.50400000000E-02 0.  1.
          1   -1    0    0  501    0  0.00000000000E+00 -0.00000000000E+00 -0.66551128195E+03  0.66551128197E+03  0.50400000000E-02 0. -1.
    8880023    1    1    2    0    0  0.32901897976E+02 -0.50579212010E+02 -0.45427193776E+03  0.80238020369E+03  0.65864270000E+03 0. -1.
    8880022    1    1    2    0    0 -0.32901897976E+02  0.50579212010E+02  0.14455669419E+03  0.21892711670E+03  0.15294330000E+03 0.  0.
<mgrwt>
<rscale>  0 0.46701862E+03</rscale>
<asrwt>0</asrwt>
<pdfrwt beam="1">  1        1 0.10238635E+00 0.66140078E+03</pdfrwt>
<pdfrwt beam="2">  1       -1 0.54737852E-01 0.66140078E+03</pdfrwt>
<totfact> 0.10163774E+02</totfact>
</mgrwt>
</event>
<event>
 4    5  0.1074803E-007  0.1148378E+04  0.7818608E-02  0.9209013E-01
         -1   -1    0    0    0  501 -0.00000000000E+00  0.00000000000E+00  0.21921072723E+04  0.21921072723E+04  0.50400000000E-02 0.  1.
          1   -1    0    0  501    0  0.00000000000E+00 -0.00000000000E+00 -0.18585500414E+04  0.18585500414E+04  0.50400000000E-02 0. -1.
    8880023    1    1    2    0    0 -0.24496173612E+03  0.90827022660E+03 -0.15562713881E+04  0.19341023490E+04  0.65864270000E+03 0.  0.
    8880022    1    1    2    0    0  0.24496173612E+03 -0.90827022660E+03  0.18898286190E+04  0.21165549647E+04  0.15294330000E+03 0.  0.
<mgrwt>
<rscale>  0 0.10960879E+04</rscale>
<asrwt>0</asrwt>
<pdfrwt beam="1">  1        1 0.28593078E+00 0.11483777E+04</pdfrwt>
<pdfrwt beam="2">  1       -1 0.33724727E+00 0.11483777E+04</pdfrwt>
<totfact> 0.69918240E-02</totfact>
</mgrwt>
</event>
<event>
 4    5  0.1074803E-007  0.7586781E+03  0.7818608E-02  0.9808542E-01
          1   -1    0    0  501    0  0.00000000000E+00  0.00000000000E+00  0.11170517015E+04  0.11170517016E+04  0.50400000000E-02 0. -1.
         -1   -1    0    0    0  501 -0.00000000000E+00 -0.00000000000E+00 -0.31129693436E+03  0.31129693440E+03  0.50400000000E-02 0.  1.
    8880023    1    1    2    0    0 -0.35955558679E+03  0.11181250846E+03  0.41598610868E+03  0.86523806315E+03  0.65864270000E+03 0.  1.
    8880022    1    1    2    0    0  0.35955558679E+03 -0.11181250846E+03  0.38976865850E+03  0.56311057280E+03  0.15294330000E+03 0. -1.
<mgrwt>
<rscale>  0 0.64906149E+03</rscale>
<asrwt>0</asrwt>
<pdfrwt beam="1">  1        1 0.17185410E+00 0.75867810E+03</pdfrwt>
<pdfrwt beam="2">  1       -1 0.47891837E-01 0.75867810E+03</pdfrwt>
<totfact> 0.54876307E+01</totfact>
</mgrwt>
</event>
<event>
 4    5  0.1074803E-007  0.7776096E+03  0.7818608E-02  0.9761482E-01
         -1   -1    0    0    0  501 -0.00000000000E+00  0.00000000000E+00  0.10114552037E+04  0.10114552037E+04  0.50400000000E-02 0.  1.
          1   -1    0    0  501    0  0.00000000000E+00 -0.00000000000E+00 -0.19995372493E+04  0.19995372493E+04  0.50400000000E-02 0. -1.
    8880023    1    1    2    0    0  0.41307177741E+03  0.15433005865E+02 -0.18699108358E+04  0.20251526389E+04  0.65864270000E+03 0. -1.
    8880022    1    1    2    0    0 -0.41307177741E+03 -0.15433005865E+02  0.88182879014E+03  0.98583981412E+03  0.15294330000E+03 0.  0.
<mgrwt>
<rscale>  0 0.67471227E+03</rscale>
<asrwt>0</asrwt>
<pdfrwt beam="1">  1        1 0.30762112E+00 0.77760959E+03</pdfrwt>
<pdfrwt beam="2">  1       -1 0.15560849E+00 0.77760959E+03</pdfrwt>
<totfact> 0.99095684E-01</totfact>
</mgrwt>
</event>
<event>
 4    5  0.1074803E-007  0.1023015E+04  0.7818608E-02  0.9352047E-01
          1   -1    0    0  501    0  0.00000000000E+00  0.00000000000E+00  0.43504439926E+03  0.43504439929E+03  0.50400000000E-02 0. -1.
         -1   -1    0    0    0  501 -0.00000000000E+00 -0.00000000000E+00 -0.25668222202E+04  0.25668222202E+04  0.50400000000E-02 0.  1.
    8880023    1    1    2    0    0 -0.90305231337E+02  0.77755712731E+03 -0.19217666120E+04  0.21770960563E+04  0.65864270000E+03 0.  1.
    8880022    1    1    2    0    0  0.90305231337E+02 -0.77755712731E+03 -0.21001120893E+03  0.82477056320E+03  0.15294330000E+03 0.  0.
<mgrwt>
<rscale>  0 0.96129313E+03</rscale>
<asrwt>0</asrwt>
<pdfrwt beam="1">  1        1 0.66929909E-01 0.10230153E+04</pdfrwt>
<pdfrwt beam="2">  1       -1 0.39489572E+00 0.10230153E+04</pdfrwt>
<totfact> 0.42475117E-01</totfact>
</mgrwt>
</event>
<event>
 4    5  0.1074803E-007  0.1145988E+04  0.7818608E-02  0.9211503E-01
         -1   -1    0    0    0  501 -0.00000000000E+00  0.00000000000E+00  0.10293036604E+04  0.10293036604E+04  0.50400000000E-02 0.  1.
          1   -1    0    0  501    0  0.00000000000E+00 -0.00000000000E+00 -0.22763884759E+04  0.22763884759E+04  0.50400000000E-02 0. -1.
    8880023    1    1    2    0    0  0.73679100835E+03 -0.58018700087E+03 -0.18530076427E+04  0.21787440135E+04  0.65864270000E+03 0. -1.
    8880022    1    1    2    0    0 -0.73679100835E+03  0.58018700087E+03  0.60592282723E+03  0.11269481228E+04  0.15294330000E+03 0.  0.
<mgrwt>
<rscale>  0 0.10935487E+04</rscale>
<asrwt>0</asrwt>
<pdfrwt beam="1">  1        1 0.35021361E+00 0.11459878E+04</pdfrwt>
<pdfrwt beam="2">  1       -1 0.15835441E+00 0.11459878E+04</pdfrwt>
<totfact> 0.57646391E-01</totfact>
</mgrwt>
</event>
<event>
 4    5  0.1074803E-007  0.6762966E+03  0.7818608E-02  0.1011501E+00
         -1   -1    0    0    0  501 -0.00000000000E+00  0.00000000000E+00  0.10301751347E+04  0.10301751347E+04  0.50400000000E-02 0.  1.
          1   -1    0    0  501    0  0.00000000000E+00 -0.00000000000E+00 -0.10007909720E+04  0.10007909720E+04  0.50400000000E-02 0. -1.
    8880023    1    1    2    0    0  0.15346423218E+03 -0.39586020546E+01 -0.87221424184E+03  0.11036914564E+04  0.65864270000E+03 0. -1.
    8880022    1    1    2    0    0 -0.15346423218E+03  0.39586020546E+01  0.90159840451E+03  0.92727465032E+03  0.15294330000E+03 0.  0.
<mgrwt>
<rscale>  0 0.50882367E+03</rscale>
<asrwt>0</asrwt>
<pdfrwt beam="1">  1        1 0.15396784E+00 0.67629664E+03</pdfrwt>
<pdfrwt beam="2">  1       -1 0.15848848E+00 0.67629664E+03</pdfrwt>
<totfact> 0.47597555E+00</totfact>
</mgrwt>
</event>
<event>
 4    5  0.1074803E-007  0.7389016E+03  0.7818608E-02  0.9863158E-01
         -1   -1    0    0    0  501 -0.00000000000E+00  0.00000000000E+00  0.10734138830E+04  0.10734138830E+04  0.50400000000E-02 0.  1.
          1   -1    0    0  501    0  0.00000000000E+00 -0.00000000000E+00 -0.20952633535E+04  0.20952633535E+04  0.50400000000E-02 0. -1.
    8880023    1    1    2    0    0  0.33192686776E+03  0.44608844851E+02 -0.19954093535E+04  0.21278237918E+04  0.65864270000E+03 0. -1.
    8880022    1    1    2    0    0 -0.33192686776E+03 -0.44608844851E+02  0.97355988300E+03  0.10408534447E+04  0.15294330000E+03 0.  0.
<mgrwt>
<rscale>  0 0.62080503E+03</rscale>
<asrwt>0</asrwt>
<pdfrwt beam="1">  1        1 0.32234821E+00 0.73890162E+03</pdfrwt>
<pdfrwt beam="2">  1       -1 0.16514060E+00 0.73890162E+03</pdfrwt>
<totfact> 0.73097041E-01</totfact>
</mgrwt>
</event>
<event>
 4    5  0.1074803E-007  0.7606417E+03  0.7818608E-02  0.9803449E-01
         -1   -1    0    0    0  501 -0.00000000000E+00  0.00000000000E+00  0.26669390734E+03  0.26669390739E+03  0.50400000000E-02 0.  1.
          1   -1    0    0  501    0  0.00000000000E+00 -0.00000000000E+00 -0.16726932851E+04  0.16726932851E+04  0.50400000000E-02 0. -1.
    8880023    1    1    2    0    0 -0.20450472038E+03  0.32084791077E+03 -0.13153035144E+04  0.15194074845E+04  0.65864270000E+03 0.  0.
    8880022    1    1    2    0    0  0.20450472038E+03 -0.32084791077E+03 -0.90695863292E+02  0.41997970800E+03  0.15294330000E+03 0.  0.
<mgrwt>
<rscale>  0 0.65177775E+03</rscale>
<asrwt>0</asrwt>
<pdfrwt beam="1">  1        1 0.25733742E+00 0.76064168E+03</pdfrwt>
<pdfrwt beam="2">  1       -1 0.41029833E-01 0.76064168E+03</pdfrwt>
<totfact> 0.29858478E+01</totfact>
</mgrwt>
</event>
<event>
 4    5  0.1074803E-007  0.6964394E+03  0.7818608E-02  0.1001231E+00
          1   -1    0    0  501    0  0.00000000000E+00  0.00000000000E+00  0.42056723072E+03  0.42056723075E+03  0.50400000000E-02 0. -1.
         -1   -1    0    0    0  501 -0.00000000000E+00 -0.00000000000E+00 -0.18197096029E+04  0.18197096029E+04  0.50400000000E-02 0.  1.
    8880023    1    1    2    0    0 -0.16670816735E+03  0.15305558135E+03  0.11135115580E+03  0.70528498510E+03  0.65864270000E+03 0. -1.
    8880022    1    1    2    0    0  0.16670816735E+03 -0.15305558135E+03 -0.15104935280E+04  0.15349918486E+04  0.15294330000E+03 0.  0.
<mgrwt>
<rscale>  0 0.55113958E+03</rscale>
<asrwt>0</asrwt>
<pdfrwt beam="1">  1        1 0.64702652E-01 0.69643939E+03</pdfrwt>
<pdfrwt beam="2">  1       -1 0.27995532E+00 0.69643939E+03</pdfrwt>
<totfact> 0.26399788E+00</totfact>
</mgrwt>
</event>
<event>
 4    5  0.1074803E-007  0.9033666E+03  0.7818608E-02  0.9520649E-01
          1   -1    0    0  501    0  0.00000000000E+00  0.00000000000E+00  0.15268172929E+04  0.15268172929E+04  0.50400000000E-02 0. -1.
         -1   -1    0    0    0  501 -0.00000000000E+00 -0.00000000000E+00 -0.45650911835E+03  0.45650911838E+03  0.50400000000E-02 0.  1.
    8880023    1    1    2    0    0 -0.30892791858E+03 -0.53555995262E+03  0.99188773114E+03  0.13416081392E+04  0.65864270000E+03 0.  1.
    8880022    1    1    2    0    0  0.30892791858E+03  0.53555995262E+03  0.78420443360E+02  0.64171827204E+03  0.15294330000E+03 0.  0.
<mgrwt>
<rscale>  0 0.82778449E+03</rscale>
<asrwt>0</asrwt>
<pdfrwt beam="1">  1        1 0.23489497E+00 0.90336655E+03</pdfrwt>
<pdfrwt beam="2">  1       -1 0.70232173E-01 0.90336655E+03</pdfrwt>
<totfact> 0.13061711E+01</totfact>
</mgrwt>
</event>
<event>
 4    5  0.1074803E-007  0.6765403E+03  0.7818608E-02  0.1011352E+00
         -1   -1    0    0    0  501 -0.00000000000E+00  0.00000000000E+00  0.82881838316E+03  0.82881838317E+03  0.50400000000E-02 0.  1.
          1   -1    0    0  501    0  0.00000000000E+00 -0.00000000000E+00 -0.11933577186E+04  0.11933577186E+04  0.50400000000E-02 0. -1.
    8880023    1    1    2    0    0  0.21470650084E+02  0.15308701536E+03 -0.10799963422E+04  0.12744014001E+04  0.65864270000E+03 0. -1.
    8880022    1    1    2    0    0 -0.21470650084E+02 -0.15308701536E+03  0.71545700672E+03  0.74777470174E+03  0.15294330000E+03 0.  0.
<mgrwt>
<rscale>  0 0.50940647E+03</rscale>
<asrwt>0</asrwt>
<pdfrwt beam="1">  1        1 0.18359349E+00 0.67654034E+03</pdfrwt>
<pdfrwt beam="2">  1       -1 0.12751052E+00 0.67654034E+03</pdfrwt>
<totfact> 0.60405743E+00</totfact>
</mgrwt>
</event>
<event>
 4    5  0.1074803E-007  0.1274228E+04  0.7818608E-02  0.9088142E-01
          1   -1    0    0  501    0  0.00000000000E+00  0.00000000000E+00  0.27698674426E+04  0.27698674426E+04  0.50400000000E-02 0. -1.
         -1   -1    0    0    0  501 -0.00000000000E+00 -0.00000000000E+00 -0.55357185778E+03  0.55357185780E+03  0.50400000000E-02 0.  1.
    8880023    1    1    2    0    0  0.30066077527E+03  0.10485462441E+04  0.16505290305E+04  0.20851624433E+04  0.65864270000E+03 0.  0.
    8880022    1    1    2    0    0 -0.30066077527E+03 -0.10485462441E+04  0.56576655424E+03  0.12382768571E+04  0.15294330000E+03 0.  0.
<mgrwt>
<rscale>  0 0.12286510E+04</rscale>
<asrwt>0</asrwt>
<pdfrwt beam="1">  1        1 0.42613345E+00 0.12742277E+04</pdfrwt>
<pdfrwt beam="2">  1       -1 0.85164902E-01 0.12742277E+04</pdfrwt>
<totfact> 0.11759625E+00</totfact>
</mgrwt>
</event>
<event>
 4    5  0.1074803E-007  0.7738516E+03  0.7818608E-02  0.9770483E-01
          1   -1    0    0  501    0  0.00000000000E+00  0.00000000000E+00  0.74360409000E+03  0.74360409002E+03  0.50400000000E-02 0. -1.
         -1   -1    0    0    0  501 -0.00000000000E+00 -0.00000000000E+00 -0.72715683779E+03  0.72715683781E+03  0.50400000000E-02 0.  1.
    8880023    1    1    2    0    0 -0.14766905236E+03  0.37845733507E+03  0.41791462556E+03  0.87948788736E+03  0.65864270000E+03 0.  0.
    8880022    1    1    2    0    0  0.14766905236E+03 -0.37845733507E+03 -0.40146737335E+03  0.59127304046E+03  0.15294330000E+03 0.  0.
<mgrwt>
<rscale>  0 0.66970937E+03</rscale>
<asrwt>0</asrwt>
<pdfrwt beam="1">  1        1 0.11440063E+00 0.77385161E+03</pdfrwt>
<pdfrwt beam="2">  1       -1 0.11187028E+00 0.77385161E+03</pdfrwt>
<totfact> 0.18650721E+01</totfact>
</mgrwt>
</event>
<event>
 4    5  0.1074803E-007  0.2454909E+04  0.7818608E-02  0.8427119E-01
          1   -1    0    0  501    0  0.00000000000E+00  0.00000000000E+00  0.26423319132E+04  0.26423319132E+04  0.50400000000E-02 0. -1.
         -1   -1    0    0    0  501 -0.00000000000E+00 -0.00000000000E+00 -0.28271728125E+04  0.28271728125E+04  0.50400000000E-02 0.  1.
    8880023    1    1    2    0    0 -0.14586382778E+04 -0.18614888909E+04 -0.13790916441E+04  0.28157539817E+04  0.65864270000E+03 0.  0.
    8880022    1    1    2    0    0  0.14586382778E+04  0.18614888909E+04  0.11942507448E+04  0.26537507439E+04  0.15294330000E+03 0.  0.
<mgrwt>
<rscale>  0 0.24333603E+04</rscale>
<asrwt>0</asrwt>
<pdfrwt beam="1">  1        1 0.40651260E+00 0.24549087E+04</pdfrwt>
<pdfrwt beam="2">  1       -1 0.43494966E+00 0.24549087E+04</pdfrwt>
<totfact> 0.37123692E-03</totfact>
</mgrwt>
</event>
<event>
 4    5  0.1074803E-007  0.8575389E+03  0.7818608E-02  0.9597956E-01
          1   -1    0    0  501    0  0.00000000000E+00  0.00000000000E+00  0.86043586376E+03  0.86043586377E+03  0.50400000000E-02 0. -1.
         -1   -1    0    0    0  501 -0.00000000000E+00 -0.00000000000E+00 -0.18519204646E+04  0.18519204646E+04  0.50400000000E-02 0.  1.
    8880023    1    1    2    0    0 -0.30192116335E+03  0.45870066358E+03  0.58360305805E+03  0.10372875316E+04  0.65864270000E+03 0. -1.
    8880022    1    1    2    0    0  0.30192116335E+03 -0.45870066358E+03 -0.15750876589E+04  0.16750687968E+04  0.15294330000E+03 0.  0.
<mgrwt>
<rscale>  0 0.77431585E+03</rscale>
<asrwt>0</asrwt>
<pdfrwt beam="1">  1        1 0.13237475E+00 0.85753886E+03</pdfrwt>
<pdfrwt beam="2">  1       -1 0.28491084E+00 0.85753886E+03</pdfrwt>
<totfact> 0.84043411E-01</totfact>
</mgrwt>
</event>
<event>
 4    5  0.1074803E-007  0.8432096E+03  0.7818608E-02  0.9624158E-01
          1   -1    0    0  501    0  0.00000000000E+00  0.00000000000E+00  0.18214917643E+04  0.18214917643E+04  0.50400000000E-02 0. -1.
         -1   -1    0    0    0  501 -0.00000000000E+00 -0.00000000000E+00 -0.47995917039E+03  0.47995917042E+03  0.50400000000E-02 0.  1.
    8880023    1    1    2    0    0  0.99898738748E+02  0.51692590182E+03  0.15086409228E+04  0.17282938946E+04  0.65864270000E+03 0. -1.
    8880022    1    1    2    0    0 -0.99898738748E+02 -0.51692590182E+03 -0.16710832892E+03  0.57315704007E+03  0.15294330000E+03 0.  0.
<mgrwt>
<rscale>  0 0.75717686E+03</rscale>
<asrwt>0</asrwt>
<pdfrwt beam="1">  1        1 0.28022951E+00 0.84320955E+03</pdfrwt>
<pdfrwt beam="2">  1       -1 0.73839871E-01 0.84320955E+03</pdfrwt>
<totfact> 0.74945307E+00</totfact>
</mgrwt>
</event>
<event>
 4    5  0.1074803E-007  0.9207643E+03  0.7818608E-02  0.9493488E-01
         -1   -1    0    0    0  501 -0.00000000000E+00  0.00000000000E+00  0.31530090732E+03  0.31530090736E+03  0.50400000000E-02 0.  1.
          1   -1    0    0  501    0  0.00000000000E+00 -0.00000000000E+00 -0.23820725723E+04  0.23820725723E+04  0.50400000000E-02 0. -1.
    8880023    1    1    2    0    0  0.58603618541E+03  0.26562812557E+03 -0.17192105111E+04  0.19502542654E+04  0.65864270000E+03 0.  1.
    8880022    1    1    2    0    0 -0.58603618541E+03 -0.26562812557E+03 -0.34756115387E+03  0.74711921432E+03  0.15294330000E+03 0. -1.
<mgrwt>
<rscale>  0 0.84765624E+03</rscale>
<asrwt>0</asrwt>
<pdfrwt beam="1">  1        1 0.36647269E+00 0.92076431E+03</pdfrwt>
<pdfrwt beam="2">  1       -1 0.48507833E-01 0.92076431E+03</pdfrwt>
<totfact> 0.71377720E+00</totfact>
</mgrwt>
</event>
<event>
 4    5  0.1074803E-007  0.8029590E+03  0.7818608E-02  0.9704434E-01
          1   -1    0    0  501    0  0.00000000000E+00  0.00000000000E+00  0.11481981985E+04  0.11481981985E+04  0.50400000000E-02 0. -1.
         -1   -1    0    0    0  501 -0.00000000000E+00 -0.00000000000E+00 -0.49736666229E+03  0.49736666231E+03  0.50400000000E-02 0.  1.
    8880023    1    1    2    0    0 -0.44762642426E+03 -0.10277921049E+03  0.80553071846E+03  0.11373754554E+04  0.65864270000E+03 0. -1.
    8880022    1    1    2    0    0  0.44762642426E+03  0.10277921049E+03 -0.15469918226E+03  0.50818940545E+03  0.15294330000E+03 0.  0.
<mgrwt>
<rscale>  0 0.70753394E+03</rscale>
<asrwt>0</asrwt>
<pdfrwt beam="1">  1        1 0.17664587E+00 0.80295902E+03</pdfrwt>
<pdfrwt beam="2">  1       -1 0.76517950E-01 0.80295902E+03</pdfrwt>
<totfact> 0.20480839E+01</totfact>
</mgrwt>
</event>
<event>
 4    5  0.1074803E-007  0.6982592E+03  0.7818608E-02  0.1000450E+00
          1   -1    0    0  501    0  0.00000000000E+00  0.00000000000E+00  0.21886006377E+04  0.21886006377E+04  0.50400000000E-02 0. -1.
         -1   -1    0    0    0  501 -0.00000000000E+00 -0.00000000000E+00 -0.26755012853E+03  0.26755012858E+03  0.50400000000E-02 0.  1.
    8880023    1    1    2    0    0  0.11177135964E+03 -0.20313280078E+03  0.20383590683E+04  0.21546400324E+04  0.65864270000E+03 0. -1.
    8880022    1    1    2    0    0 -0.11177135964E+03  0.20313280078E+03 -0.11730855915E+03  0.30151073389E+03  0.15294330000E+03 0.  0.
<mgrwt>
<rscale>  0 0.55453339E+03</rscale>
<asrwt>0</asrwt>
<pdfrwt beam="1">  1        1 0.33670778E+00 0.69825925E+03</pdfrwt>
<pdfrwt beam="2">  1       -1 0.41161560E-01 0.69825925E+03</pdfrwt>
<totfact> 0.13523610E+01</totfact>
</mgrwt>
</event>
<event>
 4    5  0.1074803E-007  0.1120205E+04  0.7818608E-02  0.9238887E-01
         -1   -1    0    0    0  501 -0.00000000000E+00  0.00000000000E+00  0.16189668736E+04  0.16189668736E+04  0.50400000000E-02 0.  1.
          1   -1    0    0  501    0  0.00000000000E+00 -0.00000000000E+00 -0.15134270211E+04  0.15134270211E+04  0.50400000000E-02 0. -1.
    8880023    1    1    2    0    0 -0.79466110942E+03 -0.43538778468E+03 -0.11309510364E+04  0.15918257614E+04  0.65864270000E+03 0. -1.
    8880022    1    1    2    0    0  0.79466110942E+03  0.43538778468E+03  0.12364908889E+04  0.15405681333E+04  0.15294330000E+03 0.  0.
<mgrwt>
<rscale>  0 0.10660909E+04</rscale>
<asrwt>0</asrwt>
<pdfrwt beam="1">  1        1 0.23283493E+00 0.11202049E+04</pdfrwt>
<pdfrwt beam="2">  1       -1 0.24907183E+00 0.11202049E+04</pdfrwt>
<totfact> 0.44918842E-01</totfact>
</mgrwt>
</event>
<event>
 4    5  0.1074803E-007  0.9479094E+03  0.7818608E-02  0.9453128E-01
          1   -1    0    0  501    0  0.00000000000E+00  0.00000000000E+00  0.21946027425E+04  0.21946027425E+04  0.50400000000E-02 0. -1.
         -1   -1    0    0    0  501 -0.00000000000E+00 -0.00000000000E+00 -0.10546063345E+04  0.10546063345E+04  0.50400000000E-02 0.  1.
    8880023    1    1    2    0    0 -0.96492007844E+01  0.68163700542E+03  0.19568388735E+04  0.21743391404E+04  0.65864270000E+03 0. -1.
    8880022    1    1    2    0    0  0.96492007844E+01 -0.68163700542E+03 -0.81684246547E+03  0.10748699366E+04  0.15294330000E+03 0.  0.
<mgrwt>
<rscale>  0 0.87829472E+03</rscale>
<asrwt>0</asrwt>
<pdfrwt beam="1">  1        1 0.33763119E+00 0.94790945E+03</pdfrwt>
<pdfrwt beam="2">  1       -1 0.16224713E+00 0.94790945E+03</pdfrwt>
<totfact> 0.63175115E-01</totfact>
</mgrwt>
</event>
<event>
 4    5  0.1074803E-007  0.1220714E+04  0.7818608E-02  0.9137245E-01
         -1   -1    0    0    0  501 -0.00000000000E+00  0.00000000000E+00  0.11430845308E+04  0.11430845308E+04  0.50400000000E-02 0.  1.
          1   -1    0    0  501    0  0.00000000000E+00 -0.00000000000E+00 -0.22510549991E+04  0.22510549991E+04  0.50400000000E-02 0. -1.
    8880023    1    1    2    0    0  0.66627339994E+03  0.78256755175E+03 -0.17787549029E+04  0.21573389691E+04  0.65864270000E+03 0.  0.
    8880022    1    1    2    0    0 -0.66627339994E+03 -0.78256755175E+03  0.67078443465E+03  0.12368005608E+04  0.15294330000E+03 0.  0.
<mgrwt>
<rscale>  0 0.11725315E+04</rscale>
<asrwt>0</asrwt>
<pdfrwt beam="1">  1        1 0.34631615E+00 0.12207139E+04</pdfrwt>
<pdfrwt beam="2">  1       -1 0.17585916E+00 0.12207139E+04</pdfrwt>
<totfact> 0.43964829E-01</totfact>
</mgrwt>
</event>
<event>
 4    5  0.1074803E-007  0.7853312E+03  0.7818608E-02  0.9743460E-01
         -1   -1    0    0    0  501 -0.00000000000E+00  0.00000000000E+00  0.14444241760E+04  0.14444241760E+04  0.50400000000E-02 0.  1.
          1   -1    0    0  501    0  0.00000000000E+00 -0.00000000000E+00 -0.30580383700E+03  0.30580383704E+03  0.50400000000E-02 0. -1.
    8880023    1    1    2    0    0 -0.37204243983E+03  0.21099595537E+03  0.39555069693E+03  0.87932100528E+03  0.65864270000E+03 0.  0.
    8880022    1    1    2    0    0  0.37204243983E+03 -0.21099595537E+03  0.74306964208E+03  0.87090700779E+03  0.15294330000E+03 0.  0.
<mgrwt>
<rscale>  0 0.68487138E+03</rscale>
<asrwt>0</asrwt>
<pdfrwt beam="1">  1        1 0.47046745E-01 0.78533119E+03</pdfrwt>
<pdfrwt beam="2">  1       -1 0.22221910E+00 0.78533119E+03</pdfrwt>
<totfact> 0.93537561E+00</totfact>
</mgrwt>
</event>
<event>
 4    5  0.1074803E-007  0.7471727E+03  0.7818608E-02  0.9839525E-01
         -1   -1    0    0    0  501 -0.00000000000E+00  0.00000000000E+00  0.21897070451E+04  0.21897070451E+04  0.50400000000E-02 0.  1.
          1   -1    0    0  501    0  0.00000000000E+00 -0.00000000000E+00 -0.61852126295E+03  0.61852126297E+03  0.50400000000E-02 0. -1.
    8880023    1    1    2    0    0 -0.24709485680E+03 -0.25179555263E+03 -0.36688029100E+03  0.83238706307E+03  0.65864270000E+03 0. -1.
    8880022    1    1    2    0    0  0.24709485680E+03  0.25179555263E+03  0.19380660731E+04  0.19758412450E+04  0.15294330000E+03 0.  0.
<mgrwt>
<rscale>  0 0.63283848E+03</rscale>
<asrwt>0</asrwt>
<pdfrwt beam="1">  1        1 0.95157117E-01 0.74717272E+03</pdfrwt>
<pdfrwt beam="2">  1       -1 0.33687801E+00 0.74717272E+03</pdfrwt>
<totfact> 0.66163359E-01</totfact>
</mgrwt>
</event>
<event>
 4    5  0.1074803E-007  0.9888513E+03  0.7818608E-02  0.9396291E-01
         -1   -1    0    0    0  501 -0.00000000000E+00  0.00000000000E+00  0.11919198992E+04  0.11919198992E+04  0.50400000000E-02 0.  1.
          1   -1    0    0  501    0  0.00000000000E+00 -0.00000000000E+00 -0.23836180047E+04  0.23836180047E+04  0.50400000000E-02 0. -1.
    8880023    1    1    2    0    0 -0.73577678857E+03 -0.51469684599E+02 -0.21441680564E+04  0.23612038183E+04  0.65864270000E+03 0. -1.
    8880022    1    1    2    0    0  0.73577678857E+03  0.51469684599E+02  0.95246995098E+03  0.12143340856E+04  0.15294330000E+03 0.  0.
<mgrwt>
<rscale>  0 0.92381538E+03</rscale>
<asrwt>0</asrwt>
<pdfrwt beam="1">  1        1 0.36671046E+00 0.98885126E+03</pdfrwt>
<pdfrwt beam="2">  1       -1 0.18337229E+00 0.98885126E+03</pdfrwt>
<totfact> 0.32727376E-01</totfact>
</mgrwt>
</event>
<event>
 4    5  0.1074803E-007  0.6818306E+03  0.7818608E-02  0.1008307E+00
          1   -1    0    0  501    0  0.00000000000E+00  0.00000000000E+00  0.23784547170E+04  0.23784547170E+04  0.50400000000E-02 0. -1.
         -1   -1    0    0    0  501 -0.00000000000E+00 -0.00000000000E+00 -0.10084356343E+03  0.10084356356E+03  0.50400000000E-02 0.  1.
    8880023    1    1    2    0    0  0.16699738148E+03 -0.56520675011E+02  0.20185963460E+04  0.21306393703E+04  0.65864270000E+03 0. -1.
    8880022    1    1    2    0    0 -0.16699738148E+03  0.56520675011E+02  0.25901480760E+03  0.34865891024E+03  0.15294330000E+03 0.  0.
<mgrwt>
<rscale>  0 0.52153249E+03</rscale>
<asrwt>0</asrwt>
<pdfrwt beam="1">  1        1 0.36591605E+00 0.68183056E+03</pdfrwt>
<pdfrwt beam="2">  1       -1 0.15514397E-01 0.68183056E+03</pdfrwt>
<totfact> 0.53695733E+01</totfact>
</mgrwt>
</event>
<event>
 4    5  0.1074803E-007  0.7369291E+03  0.7818608E-02  0.9868984E-01
          1   -1    0    0  501    0  0.00000000000E+00  0.00000000000E+00  0.15108889766E+04  0.15108889766E+04  0.50400000000E-02 0. -1.
         -1   -1    0    0    0  501 -0.00000000000E+00 -0.00000000000E+00 -0.81500193095E+03  0.81500193096E+03  0.50400000000E-02 0.  1.
    8880023    1    1    2    0    0  0.31357037929E+03  0.10453631904E+03  0.13723054011E+04  0.15576541801E+04  0.65864270000E+03 0. -1.
    8880022    1    1    2    0    0 -0.31357037929E+03 -0.10453631904E+03 -0.67641835545E+03  0.76823672743E+03  0.15294330000E+03 0.  0.
<mgrwt>
<rscale>  0 0.61788262E+03</rscale>
<asrwt>0</asrwt>
<pdfrwt beam="1">  1        1 0.23244445E+00 0.73692905E+03</pdfrwt>
<pdfrwt beam="2">  1       -1 0.12538491E+00 0.73692905E+03</pdfrwt>
<totfact> 0.37345510E+00</totfact>
</mgrwt>
</event>
<event>
 4    5  0.1074803E-007  0.1421352E+04  0.7818608E-02  0.8967267E-01
         -1   -1    0    0    0  501 -0.00000000000E+00  0.00000000000E+00  0.94865422782E+03  0.94865422783E+03  0.50400000000E-02 0.  1.
          1   -1    0    0  501    0  0.00000000000E+00 -0.00000000000E+00 -0.32356714788E+04  0.32356714788E+04  0.50400000000E-02 0. -1.
    8880023    1    1    2    0    0  0.92762362357E+01  0.12595020481E+04 -0.25210626877E+04  0.28941317765E+04  0.65864270000E+03 0.  0.
    8880022    1    1    2    0    0 -0.92762362357E+01 -0.12595020481E+04  0.23404543679E+03  0.12901939301E+04  0.15294330000E+03 0.  0.
<mgrwt>
<rscale>  0 0.13815720E+04</rscale>
<asrwt>0</asrwt>
<pdfrwt beam="1">  1        1 0.49779561E+00 0.14213521E+04</pdfrwt>
<pdfrwt beam="2">  1       -1 0.14594681E+00 0.14213521E+04</pdfrwt>
<totfact> 0.14468275E-01</totfact>
</mgrwt>
</event>
<event>
 4    5  0.1074803E-007  0.8668634E+03  0.7818608E-02  0.9581469E-01
          1   -1    0    0  501    0  0.00000000000E+00  0.00000000000E+00  0.38077228106E+03  0.38077228110E+03  0.50400000000E-02 0. -1.
         -1   -1    0    0    0  501 -0.00000000000E+00 -0.00000000000E+00 -0.15775537789E+04  0.15775537789E+04  0.50400000000E-02 0.  1.
    8880023    1    1    2    0    0 -0.24339861759E+03 -0.50832966762E+03 -0.36167139094E+03  0.93928607960E+03  0.65864270000E+03 0.  0.
    8880022    1    1    2    0    0  0.24339861759E+03  0.50832966762E+03 -0.83511010689E+03  0.10190399804E+04  0.15294330000E+03 0.  0.
<mgrwt>
<rscale>  0 0.78534891E+03</rscale>
<asrwt>0</asrwt>
<pdfrwt beam="1">  1        1 0.58580352E-01 0.86686339E+03</pdfrwt>
<pdfrwt beam="2">  1       -1 0.24270058E+00 0.86686339E+03</pdfrwt>
<totfact> 0.51011071E+00</totfact>
</mgrwt>
</event>
<event>
 4    5  0.1074803E-007  0.7128816E+03  0.7818608E-02  0.9947452E-01
          1   -1    0    0  501    0  0.00000000000E+00  0.00000000000E+00  0.13139888428E+04  0.13139888428E+04  0.50400000000E-02 0. -1.
         -1   -1    0    0    0  501 -0.00000000000E+00 -0.00000000000E+00 -0.49270537928E+03  0.49270537930E+03  0.50400000000E-02 0.  1.
    8880023    1    1    2    0    0  0.55929812276E+02 -0.26694923999E+03  0.11499801178E+04  0.13530168211E+04  0.65864270000E+03 0. -1.
    8880022    1    1    2    0    0 -0.55929812276E+02  0.26694923999E+03 -0.32869665427E+03  0.45367740100E+03  0.15294330000E+03 0.  0.
<mgrwt>
<rscale>  0 0.58015665E+03</rscale>
<asrwt>0</asrwt>
<pdfrwt beam="1">  1        1 0.20215213E+00 0.71288165E+03</pdfrwt>
<pdfrwt beam="2">  1       -1 0.75800829E-01 0.71288165E+03</pdfrwt>
<totfact> 0.16057116E+01</totfact>
</mgrwt>
</event>
<event>
 4    5  0.1074803E-007  0.1056775E+04  0.7818608E-02  0.9310780E-01
          1   -1    0    0  501    0  0.00000000000E+00  0.00000000000E+00  0.24173968669E+04  0.24173968669E+04  0.50400000000E-02 0. -1.
         -1   -1    0    0    0  501 -0.00000000000E+00 -0.00000000000E+00 -0.77367524897E+03  0.77367524899E+03  0.50400000000E-02 0.  1.
    8880023    1    1    2    0    0  0.62573230729E+03 -0.53983618696E+03  0.20126443374E+04  0.22732161059E+04  0.65864270000E+03 0.  0.
    8880022    1    1    2    0    0 -0.62573230729E+03  0.53983618696E+03 -0.36892271945E+03  0.91785600999E+03  0.15294330000E+03 0.  0.
<mgrwt>
<rscale>  0 0.99796417E+03</rscale>
<asrwt>0</asrwt>
<pdfrwt beam="1">  1        1 0.37190721E+00 0.10567754E+04</pdfrwt>
<pdfrwt beam="2">  1       -1 0.11902696E+00 0.10567754E+04</pdfrwt>
<totfact> 0.98384858E-01</totfact>
</mgrwt>
</event>
<event>
 4    5  0.1074803E-007  0.8324227E+03  0.7818608E-02  0.9644637E-01
         -1   -1    0    0    0  501 -0.00000000000E+00  0.00000000000E+00  0.35451143467E+03  0.35451143471E+03  0.50400000000E-02 0.  1.
          1   -1    0    0  501    0  0.00000000000E+00 -0.00000000000E+00 -0.16598896364E+04  0.16598896364E+04  0.50400000000E-02 0. -1.
    8880023    1    1    2    0    0  0.49247683176E+03 -0.12877837550E+03 -0.12187090001E+04  0.14758655539E+04  0.65864270000E+03 0.  0.
    8880022    1    1    2    0    0 -0.49247683176E+03  0.12877837550E+03 -0.86669201598E+02  0.53853551725E+03  0.15294330000E+03 0.  0.
<mgrwt>
<rscale>  0 0.74410968E+03</rscale>
<asrwt>0</asrwt>
<pdfrwt beam="1">  1        1 0.25536763E+00 0.83242267E+03</pdfrwt>
<pdfrwt beam="2">  1       -1 0.54540221E-01 0.83242267E+03</pdfrwt>
<totfact> 0.17692143E+01</totfact>
</mgrwt>
</event>
<event>
 4    5  0.1074803E-007  0.1215742E+04  0.7818608E-02  0.9141969E-01
          1   -1    0    0  501    0  0.00000000000E+00  0.00000000000E+00  0.78941309626E+03  0.78941309628E+03  0.50400000000E-02 0. -1.
         -1   -1    0    0    0  501 -0.00000000000E+00 -0.00000000000E+00 -0.20162808779E+04  0.20162808779E+04  0.50400000000E-02 0.  1.
    8880023    1    1    2    0    0  0.91404271548E+03 -0.45688666469E+03 -0.18612146816E+02  0.12158849158E+04  0.65864270000E+03 0.  0.
    8880022    1    1    2    0    0 -0.91404271548E+03  0.45688666469E+03 -0.12082556348E+04  0.15898090584E+04  0.15294330000E+03 0.  0.
<mgrwt>
<rscale>  0 0.11673009E+04</rscale>
<asrwt>0</asrwt>
<pdfrwt beam="1">  1        1 0.12144817E+00 0.12157425E+04</pdfrwt>
<pdfrwt beam="2">  1       -1 0.31019706E+00 0.12157425E+04</pdfrwt>
<totfact> 0.63136551E-01</totfact>
</mgrwt>
</event>
<event>
 4    5  0.1074803E-007  0.1097850E+04  0.7818608E-02  0.9263454E-01
          1   -1    0    0  501    0  0.00000000000E+00  0.00000000000E+00  0.17356282761E+04  0.17356282762E+04  0.50400000000E-02 0. -1.
         -1   -1    0    0    0  501 -0.00000000000E+00 -0.00000000000E+00 -0.20656717558E+04  0.20656717558E+04  0.50400000000E-02 0.  1.
    8880023    1    1    2    0    0 -0.79226838186E+03 -0.37917595120E+03  0.14451142385E+04  0.18148357941E+04  0.65864270000E+03 0.  0.
    8880022    1    1    2    0    0  0.79226838186E+03  0.37917595120E+03 -0.17751577182E+04  0.19864642379E+04  0.15294330000E+03 0.  0.
<mgrwt>
<rscale>  0 0.10421810E+04</rscale>
<asrwt>0</asrwt>
<pdfrwt beam="1">  1        1 0.26701973E+00 0.10978496E+04</pdfrwt>
<pdfrwt beam="2">  1       -1 0.31779565E+00 0.10978496E+04</pdfrwt>
<totfact> 0.11438068E-01</totfact>
</mgrwt>
</event>
<event>
 4    5  0.1074803E-007  0.6977794E+03  0.7818608E-02  0.1000654E+00
          1   -1    0    0  501    0  0.00000000000E+00  0.00000000000E+00  0.60266997904E+03  0.60266997906E+03  0.50400000000E-02 0. -1.
         -1   -1    0    0    0  501 -0.00000000000E+00 -0.00000000000E+00 -0.14550882590E+04  0.14550882590E+04  0.50400000000E-02 0.  1.
    8880023    1    1    2    0    0  0.23008567095E+03  0.12102624053E+02  0.38010462565E+03  0.79459148132E+03  0.65864270000E+03 0.  0.
    8880022    1    1    2    0    0 -0.23008567095E+03 -0.12102624053E+02 -0.12325229056E+04  0.12631667568E+04  0.15294330000E+03 0.  1.
<mgrwt>
<rscale>  0 0.55364368E+03</rscale>
<asrwt>0</asrwt>
<pdfrwt beam="1">  1        1 0.92718459E-01 0.69777940E+03</pdfrwt>
<pdfrwt beam="2">  1       -1 0.22385973E+00 0.69777940E+03</pdfrwt>
<totfact> 0.36994758E+00</totfact>
</mgrwt>
</event>
<event>
 4    5  0.1074803E-007  0.1006400E+04  0.7818608E-02  0.9373232E-01
          1   -1    0    0  501    0  0.00000000000E+00  0.00000000000E+00  0.51514690656E+03  0.51514690658E+03  0.50400000000E-02 0. -1.
         -1   -1    0    0    0  501 -0.00000000000E+00 -0.00000000000E+00 -0.20702318103E+04  0.20702318103E+04  0.50400000000E-02 0.  1.
    8880023    1    1    2    0    0 -0.74588737544E+03 -0.15060805369E+03 -0.15012282879E+04  0.18073536847E+04  0.65864270000E+03 0.  0.
    8880022    1    1    2    0    0  0.74588737544E+03  0.15060805369E+03 -0.53856615792E+02  0.77802503222E+03  0.15294330000E+03 0. -1.
<mgrwt>
<rscale>  0 0.94311709E+03</rscale>
<asrwt>0</asrwt>
<pdfrwt beam="1">  1        1 0.79253371E-01 0.10064000E+04</pdfrwt>
<pdfrwt beam="2">  1       -1 0.31849720E+00 0.10064000E+04</pdfrwt>
<totfact> 0.10814463E+00</totfact>
</mgrwt>
</event>
<event>
 4    5  0.1074803E-007  0.1235461E+04  0.7818608E-02  0.9123400E-01
          1   -1    0    0  501    0  0.00000000000E+00  0.00000000000E+00  0.17108558503E+04  0.17108558503E+04  0.50400000000E-02 0. -1.
         -1   -1    0    0    0  501 -0.00000000000E+00 -0.00000000000E+00 -0.14273188033E+04  0.14273188033E+04  0.50400000000E-02 0.  1.
    8880023    1    1    2    0    0 -0.21513450170E+03 -0.10228735392E+04  0.12127858496E+04  0.17312460409E+04  0.65864270000E+03 0.  0.
    8880022    1    1    2    0    0  0.21513450170E+03  0.10228735392E+04 -0.92924880266E+03  0.14069286127E+04  0.15294330000E+03 0.  0.
<mgrwt>
<rscale>  0 0.11880291E+04</rscale>
<asrwt>0</asrwt>
<pdfrwt beam="1">  1        1 0.26320859E+00 0.12354608E+04</pdfrwt>
<pdfrwt beam="2">  1       -1 0.21958751E+00 0.12354608E+04</pdfrwt>
<totfact> 0.50636059E-01</totfact>
</mgrwt>
</event>
<event>
 4    5  0.1074803E-007  0.7253286E+03  0.7818608E-02  0.9904952E-01
         -1   -1    0    0    0  501 -0.00000000000E+00  0.00000000000E+00  0.51965674768E+03  0.51965674771E+03  0.50400000000E-02 0.  1.
          1   -1    0    0  501    0  0.00000000000E+00 -0.00000000000E+00 -0.20772911016E+04  0.20772911016E+04  0.50400000000E-02 0. -1.
    8880023    1    1    2    0    0  0.22258904442E+02 -0.30297844089E+03 -0.19483192218E+04  0.20789539174E+04  0.65864270000E+03 0. -1.
    8880022    1    1    2    0    0 -0.22258904442E+02  0.30297844089E+03  0.39068486788E+03  0.51799393189E+03  0.15294330000E+03 0.  0.
<mgrwt>
<rscale>  0 0.60021912E+03</rscale>
<asrwt>0</asrwt>
<pdfrwt beam="1">  1        1 0.31958324E+00 0.72532862E+03</pdfrwt>
<pdfrwt beam="2">  1       -1 0.79947193E-01 0.72532862E+03</pdfrwt>
<totfact> 0.43587572E+00</totfact>
</mgrwt>
</event>
<event>
 4    5  0.1074803E-007  0.7082971E+03  0.7818608E-02  0.9964380E-01
          1   -1    0    0  501    0  0.00000000000E+00  0.00000000000E+00  0.12061741436E+04  0.12061741436E+04  0.50400000000E-02 0. -1.
         -1   -1    0    0    0  501 -0.00000000000E+00 -0.00000000000E+00 -0.63424067742E+03  0.63424067744E+03  0.50400000000E-02 0.  1.
    8880023    1    1    2    0    0  0.18288986091E+03  0.18554206427E+03  0.10549693884E+04  0.12706868913E+04  0.65864270000E+03 0. -1.
    8880022    1    1    2    0    0 -0.18288986091E+03 -0.18554206427E+03 -0.48303592223E+03  0.56972792982E+03  0.15294330000E+03 0.  0.
<mgrwt>
<rscale>  0 0.57240095E+03</rscale>
<asrwt>0</asrwt>
<pdfrwt beam="1">  1        1 0.18556525E+00 0.70829709E+03</pdfrwt>
<pdfrwt beam="2">  1       -1 0.97575488E-01 0.70829709E+03</pdfrwt>
<totfact> 0.11090596E+01</totfact>
</mgrwt>
</event>
<event>
 4    5  0.1074803E-007  0.1315022E+04  0.7818608E-02  0.9052695E-01
         -1   -1    0    0    0  501 -0.00000000000E+00  0.00000000000E+00  0.85957344915E+03  0.85957344917E+03  0.50400000000E-02 0.  1.
          1   -1    0    0  501    0  0.00000000000E+00 -0.00000000000E+00 -0.27970124942E+04  0.27970124942E+04  0.50400000000E-02 0. -1.
    8880023    1    1    2    0    0 -0.54368230677E+03  0.99994047845E+03  0.98901310424E+02  0.13187354119E+04  0.65864270000E+03 0.  0.
    8880022    1    1    2    0    0  0.54368230677E+03 -0.99994047845E+03 -0.20363403554E+04  0.23378505314E+04  0.15294330000E+03 0.  0.
<mgrwt>
<rscale>  0 0.12712314E+04</rscale>
<asrwt>0</asrwt>
<pdfrwt beam="1">  1        1 0.43030961E+00 0.13150215E+04</pdfrwt>
<pdfrwt beam="2">  1       -1 0.13224207E+00 0.13150215E+04</pdfrwt>
<totfact> 0.39663222E-01</totfact>
</mgrwt>
</event>
<event>
 4    5  0.1074803E-007  0.7799205E+03  0.7818608E-02  0.9756024E-01
         -1   -1    0    0    0  501 -0.00000000000E+00  0.00000000000E+00  0.53671219149E+03  0.53671219151E+03  0.50400000000E-02 0.  1.
          1   -1    0    0  501    0  0.00000000000E+00 -0.00000000000E+00 -0.88745488771E+03  0.88745488773E+03  0.50400000000E-02 0. -1.
    8880023    1    1    2    0    0 -0.65956639333E+02  0.41245054453E+03 -0.53174034880E+03  0.94394053561E+03  0.65864270000E+03 0.  0.
    8880022    1    1    2    0    0  0.65956639333E+02 -0.41245054453E+03  0.18099765258E+03  0.48022654363E+03  0.15294330000E+03 0. -1.
<mgrwt>
<rscale>  0 0.67776911E+03</rscale>
<asrwt>0</asrwt>
<pdfrwt beam="1">  1        1 0.13653152E+00 0.77992047E+03</pdfrwt>
<pdfrwt beam="2">  1       -1 0.82571107E-01 0.77992047E+03</pdfrwt>
<totfact> 0.27795065E+01</totfact>
</mgrwt>
</event>
<event>
 4    5  0.1074803E-007  0.2018638E+04  0.7818608E-02  0.8610357E-01
          1   -1    0    0  501    0  0.00000000000E+00  0.00000000000E+00  0.27222957704E+04  0.27222957704E+04  0.50400000000E-02 0. -1.
         -1   -1    0    0    0  501 -0.00000000000E+00 -0.00000000000E+00 -0.16746032499E+04  0.16746032499E+04  0.50400000000E-02 0.  1.
    8880023    1    1    2    0    0  0.18807092448E+04 -0.32252585880E+03 -0.32051847876E+03  0.20439257556E+04  0.65864270000E+03 0.  0.
    8880022    1    1    2    0    0 -0.18807092448E+04  0.32252585880E+03  0.13682109993E+04  0.23529732647E+04  0.15294330000E+03 0.  0.
<mgrwt>
<rscale>  0 0.19920280E+04</rscale>
<asrwt>0</asrwt>
<pdfrwt beam="1">  1        1 0.41881473E+00 0.20186383E+04</pdfrwt>
<pdfrwt beam="2">  1       -1 0.25763127E+00 0.20186383E+04</pdfrwt>
<totfact> 0.52250186E-02</totfact>
</mgrwt>
</event>
<event>
 4    5  0.1074803E-007  0.6756384E+03  0.7818608E-02  0.1011907E+00
          1   -1    0    0  501    0  0.00000000000E+00  0.00000000000E+00  0.30982145284E+04  0.30982145284E+04  0.50400000000E-02 0. -1.
         -1   -1    0    0    0  501 -0.00000000000E+00 -0.00000000000E+00 -0.56034508385E+03  0.56034508387E+03  0.50400000000E-02 0.  1.
    8880023    1    1    2    0    0  0.11656813132E+03  0.95336128033E+02  0.30391052505E+04  0.31133017901E+04  0.65864270000E+03 0. -1.
    8880022    1    1    2    0    0 -0.11656813132E+03 -0.95336128033E+02 -0.50123580589E+03  0.54525782220E+03  0.15294330000E+03 0.  0.
<mgrwt>
<rscale>  0 0.50723777E+03</rscale>
<asrwt>0</asrwt>
<pdfrwt beam="1">  1        1 0.47664839E+00 0.67563845E+03</pdfrwt>
<pdfrwt beam="2">  1       -1 0.86206935E-01 0.67563845E+03</pdfrwt>
<totfact> 0.74129569E-01</totfact>
</mgrwt>
</event>
<event>
 4    5  0.1074803E-007  0.7986619E+03  0.7818608E-02  0.9713697E-01
          1   -1    0    0  501    0  0.00000000000E+00  0.00000000000E+00  0.58202332262E+03  0.58202332264E+03  0.50400000000E-02 0. -1.
         -1   -1    0    0    0  501 -0.00000000000E+00 -0.00000000000E+00 -0.10094106986E+04  0.10094106986E+04  0.50400000000E-02 0.  1.
    8880023    1    1    2    0    0 -0.18844597499E+03 -0.41053472792E+03  0.18049147725E+03  0.81880280162E+03  0.65864270000E+03 0.  0.
    8880022    1    1    2    0    0  0.18844597499E+03  0.41053472792E+03 -0.60787885322E+03  0.77263121962E+03  0.15294330000E+03 0.  0.
<mgrwt>
<rscale>  0 0.70207117E+03</rscale>
<asrwt>0</asrwt>
<pdfrwt beam="1">  1        1 0.89542050E-01 0.79866192E+03</pdfrwt>
<pdfrwt beam="2">  1       -1 0.15529395E+00 0.79866192E+03</pdfrwt>
<totfact> 0.11628149E+01</totfact>
</mgrwt>
</event>
<event>
 4    5  0.1074803E-007  0.1099295E+04  0.7818608E-02  0.9261842E-01
          1   -1    0    0  501    0  0.00000000000E+00  0.00000000000E+00  0.22862914958E+04  0.22862914958E+04  0.50400000000E-02 0. -1.
         -1   -1    0    0    0  501 -0.00000000000E+00 -0.00000000000E+00 -0.99915049457E+03  0.99915049458E+03  0.50400000000E-02 0.  1.
    8880023    1    1    2    0    0 -0.83652957415E+03  0.27360006339E+03  0.19048880341E+04  0.21993288413E+04  0.65864270000E+03 0.  0.
    8880022    1    1    2    0    0  0.83652957415E+03 -0.27360006339E+03 -0.61774703288E+03  0.10861131492E+04  0.15294330000E+03 0.  0.
<mgrwt>
<rscale>  0 0.10437297E+04</rscale>
<asrwt>0</asrwt>
<pdfrwt beam="1">  1        1 0.35173715E+00 0.10992947E+04</pdfrwt>
<pdfrwt beam="2">  1       -1 0.15371546E+00 0.10992947E+04</pdfrwt>
<totfact> 0.62041313E-01</totfact>
</mgrwt>
</event>
<event>
 4    5  0.1074803E-007  0.1173764E+04  0.7818608E-02  0.9183058E-01
          1   -1    0    0  501    0  0.00000000000E+00  0.00000000000E+00  0.15832183061E+04  0.15832183061E+04  0.50400000000E-02 0. -1.
         -1   -1    0    0    0  501 -0.00000000000E+00 -0.00000000000E+00 -0.13239665994E+04  0.13239665994E+04  0.50400000000E-02 0.  1.
    8880023    1    1    2    0    0  0.27153153173E+03 -0.93283512520E+03  0.11034848331E+04  0.16110244339E+04  0.65864270000E+03 0. -1.
    8880022    1    1    2    0    0 -0.27153153173E+03  0.93283512520E+03 -0.84423312639E+03  0.12961604716E+04  0.15294330000E+03 0.  0.
<mgrwt>
<rscale>  0 0.11230026E+04</rscale>
<asrwt>0</asrwt>
<pdfrwt beam="1">  1        1 0.24357205E+00 0.11737636E+04</pdfrwt>
<pdfrwt beam="2">  1       -1 0.20368717E+00 0.11737636E+04</pdfrwt>
<totfact> 0.79998187E-01</totfact>
</mgrwt>
</event>
<event>
 4    5  0.1074803E-007  0.1163605E+04  0.7818608E-02  0.9193339E-01
         -1   -1    0    0    0  501 -0.00000000000E+00  0.00000000000E+00  0.77679957711E+03  0.77679957713E+03  0.50400000000E-02 0.  1.
          1   -1    0    0  501    0  0.00000000000E+00 -0.00000000000E+00 -0.16097321257E+04  0.16097321257E+04  0.50400000000E-02 0. -1.
    8880023    1    1    2    0    0  0.88603935913E+03  0.36756106381E+03 -0.80470281885E+03  0.14147521742E+04  0.65864270000E+03 0.  0.
    8880022    1    1    2    0    0 -0.88603935913E+03 -0.36756106381E+03 -0.28229729737E+02  0.97177952861E+03  0.15294330000E+03 0.  0.
<mgrwt>
<rscale>  0 0.11122447E+04</rscale>
<asrwt>0</asrwt>
<pdfrwt beam="1">  1        1 0.24765110E+00 0.11636052E+04</pdfrwt>
<pdfrwt beam="2">  1       -1 0.11950763E+00 0.11636052E+04</pdfrwt>
<totfact> 0.33913456E+00</totfact>
</mgrwt>
</event>
<event>
 4    5  0.1074803E-007  0.6589012E+03  0.7818608E-02  0.1025312E+00
          1   -1    0    0  501    0  0.00000000000E+00  0.00000000000E+00  0.27545298758E+04  0.27545298758E+04  0.50400000000E-02 0. -1.
         -1   -1    0    0    0  501 -0.00000000000E+00 -0.00000000000E+00 -0.42276530525E+03  0.42276530528E+03  0.50400000000E-02 0.  1.
    8880023    1    1    2    0    0  0.46380543654E+01 -0.17862154673E+02  0.26994183821E+04  0.27786706131E+04  0.65864270000E+03 0. -1.
    8880022    1    1    2    0    0 -0.46380543654E+01  0.17862154673E+02 -0.36765381151E+03  0.39862456805E+03  0.15294330000E+03 0.  0.
<mgrwt>
<rscale>  0 0.45817619E+03</rscale>
<asrwt>0</asrwt>
<pdfrwt beam="1">  1        1 0.42377382E+00 0.65890119E+03</pdfrwt>
<pdfrwt beam="2">  1       -1 0.65040817E-01 0.65890119E+03</pdfrwt>
<totfact> 0.23453903E+00</totfact>
</mgrwt>
</event>
<event>
 4    5  0.1074803E-007  0.8756295E+03  0.7818608E-02  0.9566344E-01
          1   -1    0    0  501    0  0.00000000000E+00  0.00000000000E+00  0.15290082713E+04  0.15290082714E+04  0.50400000000E-02 0. -1.
         -1   -1    0    0    0  501 -0.00000000000E+00 -0.00000000000E+00 -0.46827337511E+03  0.46827337514E+03  0.50400000000E-02 0.  1.
    8880023    1    1    2    0    0  0.57076945476E+03  0.84492693732E+02  0.10918036693E+04  0.13995578746E+04  0.65864270000E+03 0.  0.
    8880022    1    1    2    0    0 -0.57076945476E+03 -0.84492693732E+02 -0.31068773104E+02  0.59772377187E+03  0.15294330000E+03 0.  0.
<mgrwt>
<rscale>  0 0.79564355E+03</rscale>
<asrwt>0</asrwt>
<pdfrwt beam="1">  1        1 0.23523205E+00 0.87562948E+03</pdfrwt>
<pdfrwt beam="2">  1       -1 0.72042056E-01 0.87562948E+03</pdfrwt>
<totfact> 0.12392159E+01</totfact>
</mgrwt>
</event>
<event>
 4    5  0.1074803E-007  0.9119144E+03  0.7818608E-02  0.9507170E-01
          1   -1    0    0  501    0  0.00000000000E+00  0.00000000000E+00  0.12198583838E+04  0.12198583838E+04  0.50400000000E-02 0. -1.
         -1   -1    0    0    0  501 -0.00000000000E+00 -0.00000000000E+00 -0.77587387817E+03  0.77587387818E+03  0.50400000000E-02 0.  1.
    8880023    1    1    2    0    0 -0.46171701887E+03 -0.42964529043E+03  0.83635148434E+03  0.12373648180E+04  0.65864270000E+03 0.  0.
    8880022    1    1    2    0    0  0.46171701887E+03  0.42964529043E+03 -0.39236697874E+03  0.75836744400E+03  0.15294330000E+03 0.  0.
<mgrwt>
<rscale>  0 0.83757297E+03</rscale>
<asrwt>0</asrwt>
<pdfrwt beam="1">  1        1 0.18767052E+00 0.91191441E+03</pdfrwt>
<pdfrwt beam="2">  1       -1 0.11936521E+00 0.91191441E+03</pdfrwt>
<totfact> 0.65722635E+00</totfact>
</mgrwt>
</event>
<event>
 4    5  0.1074803E-007  0.1743032E+04  0.7818608E-02  0.8754721E-01
         -1   -1    0    0    0  501 -0.00000000000E+00  0.00000000000E+00  0.12949070249E+04  0.12949070249E+04  0.50400000000E-02 0.  1.
          1   -1    0    0  501    0  0.00000000000E+00 -0.00000000000E+00 -0.22811477221E+04  0.22811477221E+04  0.50400000000E-02 0. -1.
    8880023    1    1    2    0    0 -0.13381347205E+04  0.90207805633E+03 -0.87731323562E+03  0.19513682557E+04  0.65864270000E+03 0.  0.
    8880022    1    1    2    0    0  0.13381347205E+04 -0.90207805633E+03 -0.10892746158E+03  0.16246864912E+04  0.15294330000E+03 0.  0.
<mgrwt>
<rscale>  0 0.17116966E+04</rscale>
<asrwt>0</asrwt>
<pdfrwt beam="1">  1        1 0.35094580E+00 0.17430317E+04</pdfrwt>
<pdfrwt beam="2">  1       -1 0.19921647E+00 0.17430317E+04</pdfrwt>
<totfact> 0.26902465E-01</totfact>
</mgrwt>
</event>
<event>
 4    5  0.1074803E-007  0.1306696E+04  0.7818608E-02  0.9059799E-01
          1   -1    0    0  501    0  0.00000000000E+00  0.00000000000E+00  0.12932318700E+04  0.12932318700E+04  0.50400000000E-02 0. -1.
         -1   -1    0    0    0  501 -0.00000000000E+00 -0.00000000000E+00 -0.14044733488E+04  0.14044733488E+04  0.50400000000E-02 0.  1.
    8880023    1    1    2    0    0 -0.82121403367E+03 -0.77411401057E+03  0.50728030670E+03  0.14017091375E+04  0.65864270000E+03 0. -1.
    8880022    1    1    2    0    0  0.82121403367E+03  0.77411401057E+03 -0.61852178554E+03  0.12959960813E+04  0.15294330000E+03 0.  0.
<mgrwt>
<rscale>  0 0.12625542E+04</rscale>
<asrwt>0</asrwt>
<pdfrwt beam="1">  1        1 0.19895875E+00 0.13066963E+04</pdfrwt>
<pdfrwt beam="2">  1       -1 0.21607282E+00 0.13066963E+04</pdfrwt>
<totfact> 0.10354691E+00</totfact>
</mgrwt>
</event>
<event>
 4    5  0.1074803E-007  0.8194200E+03  0.7818608E-02  0.9670280E-01
         -1   -1    0    0    0  501 -0.00000000000E+00  0.00000000000E+00  0.29220933932E+03  0.29220933936E+03  0.50400000000E-02 0.  1.
          1   -1    0    0  501    0  0.00000000000E+00 -0.00000000000E+00 -0.30442157131E+04  0.30442157131E+04  0.50400000000E-02 0. -1.
    8880023    1    1    2    0    0 -0.18782819593E+03 -0.44984379516E+03 -0.27014812071E+04  0.28230213938E+04  0.65864270000E+03 0. -1.
    8880022    1    1    2    0    0  0.18782819593E+03  0.44984379516E+03 -0.50525166651E+02  0.51340365864E+03  0.15294330000E+03 0.  0.
<mgrwt>
<rscale>  0 0.72814239E+03</rscale>
<asrwt>0</asrwt>
<pdfrwt beam="1">  1        1 0.46834086E+00 0.81941996E+03</pdfrwt>
<pdfrwt beam="2">  1       -1 0.44955285E-01 0.81941996E+03</pdfrwt>
<totfact> 0.28826010E+00</totfact>
</mgrwt>
</event>
<event>
 4    5  0.1074803E-007  0.8501594E+03  0.7818608E-02  0.9611313E-01
         -1   -1    0    0    0  501 -0.00000000000E+00  0.00000000000E+00  0.97514653812E+03  0.97514653813E+03  0.50400000000E-02 0.  1.
          1   -1    0    0  501    0  0.00000000000E+00 -0.00000000000E+00 -0.78764105965E+03  0.78764105967E+03  0.50400000000E-02 0. -1.
    8880023    1    1    2    0    0 -0.40439992918E+03 -0.35414903703E+03 -0.41066982410E+03  0.94415081096E+03  0.65864270000E+03 0. -1.
    8880022    1    1    2    0    0  0.40439992918E+03  0.35414903703E+03  0.59817530257E+03  0.81863678684E+03  0.15294330000E+03 0.  0.
<mgrwt>
<rscale>  0 0.76551887E+03</rscale>
<asrwt>0</asrwt>
<pdfrwt beam="1">  1        1 0.12117555E+00 0.85015943E+03</pdfrwt>
<pdfrwt beam="2">  1       -1 0.15002254E+00 0.85015943E+03</pdfrwt>
<totfact> 0.80567604E+00</totfact>
</mgrwt>
</event>
<event>
 4    5  0.1074803E-007  0.6695593E+03  0.7818608E-02  0.1015981E+00
          1   -1    0    0  501    0  0.00000000000E+00  0.00000000000E+00  0.79535086430E+03  0.79535086431E+03  0.50400000000E-02 0. -1.
         -1   -1    0    0    0  501 -0.00000000000E+00 -0.00000000000E+00 -0.74476733187E+03  0.74476733189E+03  0.50400000000E-02 0.  1.
    8880023    1    1    2    0    0  0.11303459861E+03  0.41505250096E+02  0.63582449625E+03  0.92335394219E+03  0.65864270000E+03 0.  0.
    8880022    1    1    2    0    0 -0.11303459861E+03 -0.41505250096E+02 -0.58524096383E+03  0.61676425401E+03  0.15294330000E+03 0.  1.
<mgrwt>
<rscale>  0 0.49165339E+03</rscale>
<asrwt>0</asrwt>
<pdfrwt beam="1">  1        1 0.12236167E+00 0.66955934E+03</pdfrwt>
<pdfrwt beam="2">  1       -1 0.11457959E+00 0.66955934E+03</pdfrwt>
<totfact> 0.16062009E+01</totfact>
</mgrwt>
</event>
<event>
 4    5  0.1074803E-007  0.8575907E+03  0.7818608E-02  0.9597864E-01
          1   -1    0    0  501    0  0.00000000000E+00  0.00000000000E+00  0.29572966257E+04  0.29572966257E+04  0.50400000000E-02 0. -1.
         -1   -1    0    0    0  501 -0.00000000000E+00 -0.00000000000E+00 -0.44042248168E+03  0.44042248171E+03  0.50400000000E-02 0.  1.
    8880023    1    1    2    0    0 -0.50992265490E+03  0.20403536572E+03  0.26725060837E+04  0.28067330685E+04  0.65864270000E+03 0. -1.
    8880022    1    1    2    0    0  0.50992265490E+03 -0.20403536572E+03 -0.15563193969E+03  0.59098603885E+03  0.15294330000E+03 0.  0.
<mgrwt>
<rscale>  0 0.77437740E+03</rscale>
<asrwt>0</asrwt>
<pdfrwt beam="1">  1        1 0.45496871E+00 0.85759067E+03</pdfrwt>
<pdfrwt beam="2">  1       -1 0.67757306E-01 0.85759067E+03</pdfrwt>
<totfact> 0.14906910E+00</totfact>
</mgrwt>
</event>
<event>
 4    5  0.1074803E-007  0.1140328E+04  0.7818608E-02  0.9217431E-01
         -1   -1    0    0    0  501 -0.00000000000E+00  0.00000000000E+00  0.91547678366E+03  0.91547678367E+03  0.50400000000E-02 0.  1.
          1   -1    0    0  501    0  0.00000000000E+00 -0.00000000000E+00 -0.13030136605E+04  0.13030136605E+04  0.50400000000E-02 0. -1.
    8880023    1    1    2    0    0 -0.45206996890E+03  0.81373813080E+03 -0.54197789516E+03  0.12625716801E+04  0.65864270000E+03 0.  0.
    8880022    1    1    2    0    0  0.45206996890E+03 -0.81373813080E+03  0.15444101834E+03  0.95591876405E+03  0.15294330000E+03 0.  0.
<mgrwt>
<rscale>  0 0.10875310E+04</rscale>
<asrwt>0</asrwt>
<pdfrwt beam="1">  1        1 0.20046364E+00 0.11403277E+04</pdfrwt>
<pdfrwt beam="2">  1       -1 0.14084258E+00 0.11403277E+04</pdfrwt>
<totfact> 0.36683958E+00</totfact>
</mgrwt>
</event>
<event>
 4    5  0.1074803E-007  0.9003328E+03  0.7818608E-02  0.9525498E-01
         -1   -1    0    0    0  501 -0.00000000000E+00  0.00000000000E+00  0.14278260485E+04  0.14278260485E+04  0.50400000000E-02 0.  1.
          1   -1    0    0  501    0  0.00000000000E+00 -0.00000000000E+00 -0.71085693057E+03  0.71085693059E+03  0.50400000000E-02 0. -1.
    8880023    1    1    2    0    0 -0.55996759555E+03 -0.25144632947E+03 -0.29312481625E+03  0.94684810230E+03  0.65864270000E+03 0.  0.
    8880022    1    1    2    0    0  0.55996759555E+03  0.25144632947E+03  0.10100939342E+04  0.11918348768E+04  0.15294330000E+03 0.  0.
<mgrwt>
<rscale>  0 0.82429813E+03</rscale>
<asrwt>0</asrwt>
<pdfrwt beam="1">  1        1 0.10936261E+00 0.90033281E+03</pdfrwt>
<pdfrwt beam="2">  1       -1 0.21966554E+00 0.90033281E+03</pdfrwt>
<totfact> 0.29969363E+00</totfact>
</mgrwt>
</event>
<event>
 4    5  0.1074803E-007  0.8337285E+03  0.7818608E-02  0.9642121E-01
          1   -1    0    0  501    0  0.00000000000E+00  0.00000000000E+00  0.34038036844E+03  0.34038036848E+03  0.50400000000E-02 0. -1.
         -1   -1    0    0    0  501 -0.00000000000E+00 -0.00000000000E+00 -0.18369598967E+04  0.18369598967E+04  0.50400000000E-02 0.  1.
    8880023    1    1    2    0    0  0.48638518132E+03  0.15723377892E+03 -0.33394747956E+03  0.89812255913E+03  0.65864270000E+03 0. -1.
    8880022    1    1    2    0    0 -0.48638518132E+03 -0.15723377892E+03 -0.11626320487E+04  0.12792177061E+04  0.15294330000E+03 0.  0.
<mgrwt>
<rscale>  0 0.74569974E+03</rscale>
<asrwt>0</asrwt>
<pdfrwt beam="1">  1        1 0.52366212E-01 0.83372850E+03</pdfrwt>
<pdfrwt beam="2">  1       -1 0.28260921E+00 0.83372850E+03</pdfrwt>
<totfact> 0.32867549E+00</totfact>
</mgrwt>
</event>
<event>
 4    5  0.1074803E-007  0.1483037E+04  0.7818608E-02  0.8921708E-01
         -1   -1    0    0    0  501 -0.00000000000E+00  0.00000000000E+00  0.25144701783E+04  0.25144701783E+04  0.50400000000E-02 0.  1.
          1   -1    0    0  501    0  0.00000000000E+00 -0.00000000000E+00 -0.86432075759E+03  0.86432075760E+03  0.50400000000E-02 0. -1.
    8880023    1    1    2    0    0 -0.48397251367E+03 -0.12374804819E+04  0.37251143908E+03  0.15291050701E+04  0.65864270000E+03 0.  0.
    8880022    1    1    2    0    0  0.48397251367E+03  0.12374804819E+04  0.12776379817E+04  0.18496858658E+04  0.15294330000E+03 0.  0.
<mgrwt>
<rscale>  0 0.14452386E+04</rscale>
<asrwt>0</asrwt>
<pdfrwt beam="1">  1        1 0.13297242E+00 0.14830366E+04</pdfrwt>
<pdfrwt beam="2">  1       -1 0.38684157E+00 0.14830366E+04</pdfrwt>
<totfact> 0.16395638E-01</totfact>
</mgrwt>
</event>
<event>
 4    5  0.1074803E-007  0.1251044E+04  0.7818608E-02  0.9109033E-01
          1   -1    0    0  501    0  0.00000000000E+00  0.00000000000E+00  0.32467550478E+04  0.32467550478E+04  0.50400000000E-02 0. -1.
         -1   -1    0    0    0  501 -0.00000000000E+00 -0.00000000000E+00 -0.88943979073E+03  0.88943979075E+03  0.50400000000E-02 0.  1.
    8880023    1    1    2    0    0  0.66798014551E+03 -0.82770977198E+03  0.27266284980E+04  0.29999356849E+04  0.65864270000E+03 0.  0.
    8880022    1    1    2    0    0 -0.66798014551E+03  0.82770977198E+03 -0.36931324086E+03  0.11362591537E+04  0.15294330000E+03 0.  0.
<mgrwt>
<rscale>  0 0.12043778E+04</rscale>
<asrwt>0</asrwt>
<pdfrwt beam="1">  1        1 0.49950077E+00 0.12510440E+04</pdfrwt>
<pdfrwt beam="2">  1       -1 0.13683689E+00 0.12510440E+04</pdfrwt>
<totfact> 0.17247491E-01</totfact>
</mgrwt>
</event>
<event>
 4    5  0.1074803E-007  0.1575964E+04  0.7818608E-02  0.8857778E-01
         -1   -1    0    0    0  501 -0.00000000000E+00  0.00000000000E+00  0.98672749781E+03  0.98672749783E+03  0.50400000000E-02 0.  1.
          1   -1    0    0  501    0  0.00000000000E+00 -0.00000000000E+00 -0.25338259164E+04  0.25338259164E+04  0.50400000000E-02 0. -1.
    8880023    1    1    2    0    0 -0.13015087719E+04 -0.59659539855E+03 -0.13344757142E+04  0.20650633866E+04  0.65864270000E+03 0.  0.
    8880022    1    1    2    0    0  0.13015087719E+04  0.59659539855E+03 -0.21262270442E+03  0.14554900276E+04  0.15294330000E+03 0.  0.
<mgrwt>
<rscale>  0 0.15407810E+04</rscale>
<asrwt>0</asrwt>
<pdfrwt beam="1">  1        1 0.38981937E+00 0.15759636E+04</pdfrwt>
<pdfrwt beam="2">  1       -1 0.15180423E+00 0.15759636E+04</pdfrwt>
<totfact> 0.40829161E-01</totfact>
</mgrwt>
</event>
<event>
 4    5  0.1074803E-007  0.9528235E+03  0.7818608E-02  0.9446063E-01
          1   -1    0    0  501    0  0.00000000000E+00  0.00000000000E+00  0.14235124371E+04  0.14235124371E+04  0.50400000000E-02 0. -1.
         -1   -1    0    0    0  501 -0.00000000000E+00 -0.00000000000E+00 -0.51725084761E+03  0.51725084763E+03  0.50400000000E-02 0.  1.
    8880023    1    1    2    0    0  0.47807733082E+03 -0.49548414860E+03  0.76389907704E+03  0.12212348185E+04  0.65864270000E+03 0.  0.
    8880022    1    1    2    0    0 -0.47807733082E+03  0.49548414860E+03  0.14236251245E+03  0.71952846623E+03  0.15294330000E+03 0.  0.
<mgrwt>
<rscale>  0 0.88379896E+03</rscale>
<asrwt>0</asrwt>
<pdfrwt beam="1">  1        1 0.21900191E+00 0.95282353E+03</pdfrwt>
<pdfrwt beam="2">  1       -1 0.79577053E-01 0.95282353E+03</pdfrwt>
<totfact> 0.11789659E+01</totfact>
</mgrwt>
</event>
<event>
 4    5  0.1074803E-007  0.1132993E+04  0.7818608E-02  0.9225182E-01
         -1   -1    0    0    0  501 -0.00000000000E+00  0.00000000000E+00  0.96042217832E+03  0.96042217833E+03  0.50400000000E-02 0.  1.
          1   -1    0    0  501    0  0.00000000000E+00 -0.00000000000E+00 -0.23582408531E+04  0.23582408531E+04  0.50400000000E-02 0. -1.
    8880023    1    1    2    0    0  0.21976551568E+03 -0.89530224692E+03  0.47274690517E+03  0.12276656051E+04  0.65864270000E+03 0.  0.
    8880022    1    1    2    0    0 -0.21976551568E+03  0.89530224692E+03 -0.18705655799E+04  0.20909974264E+04  0.15294330000E+03 0.  0.
<mgrwt>
<rscale>  0 0.10797247E+04</rscale>
<asrwt>0</asrwt>
<pdfrwt beam="1">  1        1 0.36280628E+00 0.11329930E+04</pdfrwt>
<pdfrwt beam="2">  1       -1 0.14775726E+00 0.11329930E+04</pdfrwt>
<totfact> 0.61374942E-01</totfact>
</mgrwt>
</event>
<event>
 4    5  0.1074803E-007  0.1021087E+04  0.7818608E-02  0.9354474E-01
         -1   -1    0    0    0  501 -0.00000000000E+00  0.00000000000E+00  0.79063558470E+03  0.79063558471E+03  0.50400000000E-02 0.  1.
          1   -1    0    0  501    0  0.00000000000E+00 -0.00000000000E+00 -0.15252561355E+04  0.15252561355E+04  0.50400000000E-02 0. -1.
    8880023    1    1    2    0    0 -0.28849466675E+03 -0.72496898477E+03 -0.10462097228E+04  0.14619077235E+04  0.65864270000E+03 0.  0.
    8880022    1    1    2    0    0  0.28849466675E+03  0.72496898477E+03  0.31158917197E+03  0.85398399676E+03  0.15294330000E+03 0.  1.
<mgrwt>
<rscale>  0 0.95918872E+03</rscale>
<asrwt>0</asrwt>
<pdfrwt beam="1">  1        1 0.23465479E+00 0.10210874E+04</pdfrwt>
<pdfrwt beam="2">  1       -1 0.12163624E+00 0.10210874E+04</pdfrwt>
<totfact> 0.37735643E+00</totfact>
</mgrwt>
</event>
<event>
 4    5  0.1074803E-007  0.8319687E+03  0.7818608E-02  0.9645514E-01
          1   -1    0    0  501    0  0.00000000000E+00  0.00000000000E+00  0.73740207227E+03  0.73740207229E+03  0.50400000000E-02 0. -1.
         -1   -1    0    0    0  501 -0.00000000000E+00 -0.00000000000E+00 -0.14822207987E+04  0.14822207987E+04  0.50400000000E-02 0.  1.
    8880023    1    1    2    0    0  0.36768506444E+03 -0.35095502624E+03  0.42556695174E+03  0.93449407367E+03  0.65864270000E+03 0. -1.
    8880022    1    1    2    0    0 -0.36768506444E+03  0.35095502624E+03 -0.11703856781E+04  0.12851287973E+04  0.15294330000E+03 0.  0.
<mgrwt>
<rscale>  0 0.74355636E+03</rscale>
<asrwt>0</asrwt>
<pdfrwt beam="1">  1        1 0.11344647E+00 0.83196872E+03</pdfrwt>
<pdfrwt beam="2">  1       -1 0.22803397E+00 0.83196872E+03</pdfrwt>
<totfact> 0.25176962E+00</totfact>
</mgrwt>
</event>
<event>
 4    5  0.1074803E-007  0.1250011E+04  0.7818608E-02  0.9109978E-01
          1   -1    0    0  501    0  0.00000000000E+00  0.00000000000E+00  0.87791802595E+03  0.87791802597E+03  0.50400000000E-02 0. -1.
         -1   -1    0    0    0  501 -0.00000000000E+00 -0.00000000000E+00 -0.18909372818E+04  0.18909372818E+04  0.50400000000E-02 0.  1.
    8880023    1    1    2    0    0 -0.49515696177E+03 -0.93996583484E+03 -0.11352122647E+04  0.16885595280E+04  0.65864270000E+03 0.  0.
    8880022    1    1    2    0    0  0.49515696177E+03  0.93996583484E+03  0.12219300880E+03  0.10802957798E+04  0.15294330000E+03 0.  0.
<mgrwt>
<rscale>  0 0.12032944E+04</rscale>
<asrwt>0</asrwt>
<pdfrwt beam="1">  1        1 0.13506431E+00 0.12500106E+04</pdfrwt>
<pdfrwt beam="2">  1       -1 0.29091343E+00 0.12500106E+04</pdfrwt>
<totfact> 0.70308042E-01</totfact>
</mgrwt>
</event>
<event>
 4    5  0.1074803E-007  0.1226969E+04  0.7818608E-02  0.9131342E-01
          1   -1    0    0  501    0  0.00000000000E+00  0.00000000000E+00  0.18933052503E+04  0.18933052503E+04  0.50400000000E-02 0. -1.
         -1   -1    0    0    0  501 -0.00000000000E+00 -0.00000000000E+00 -0.95186167560E+03  0.95186167562E+03  0.50400000000E-02 0.  1.
    8880023    1    1    2    0    0 -0.10230223373E+04  0.15832614758E+03  0.12526337905E+04  0.17534376210E+04  0.65864270000E+03 0.  0.
    8880022    1    1    2    0    0  0.10230223373E+04 -0.15832614758E+03 -0.31119021583E+03  0.10917293048E+04  0.15294330000E+03 0.  0.
<mgrwt>
<rscale>  0 0.11791078E+04</rscale>
<asrwt>0</asrwt>
<pdfrwt beam="1">  1        1 0.29127773E+00 0.12269687E+04</pdfrwt>
<pdfrwt beam="2">  1       -1 0.14644026E+00 0.12269687E+04</pdfrwt>
<totfact> 0.12829552E+00</totfact>
</mgrwt>
</event>
<event>
 4    5  0.1074803E-007  0.2011526E+04  0.7818608E-02  0.8613754E-01
         -1   -1    0    0    0  501 -0.00000000000E+00  0.00000000000E+00  0.18162122511E+04  0.18162122511E+04  0.50400000000E-02 0.  1.
          1   -1    0    0  501    0  0.00000000000E+00 -0.00000000000E+00 -0.25730627558E+04  0.25730627558E+04  0.50400000000E-02 0. -1.
    8880023    1    1    2    0    0 -0.42338538487E+03  0.18528819797E+04  0.54064088159E+03  0.20829137245E+04  0.65864270000E+03 0.  0.
    8880022    1    1    2    0    0  0.42338538487E+03 -0.18528819797E+04 -0.12974913863E+04  0.23063612824E+04  0.15294330000E+03 0.  0.
<mgrwt>
<rscale>  0 0.19848126E+04</rscale>
<asrwt>0</asrwt>
<pdfrwt beam="1">  1        1 0.39585581E+00 0.20115260E+04</pdfrwt>
<pdfrwt beam="2">  1       -1 0.27941727E+00 0.20115260E+04</pdfrwt>
<totfact> 0.48028472E-02</totfact>
</mgrwt>
</event>
<event>
 4    5  0.1074803E-007  0.8596724E+03  0.7818608E-02  0.9594146E-01
         -1   -1    0    0    0  501 -0.00000000000E+00  0.00000000000E+00  0.38829063782E+03  0.38829063785E+03  0.50400000000E-02 0.  1.
          1   -1    0    0  501    0  0.00000000000E+00 -0.00000000000E+00 -0.20748149599E+04  0.20748149599E+04  0.50400000000E-02 0. -1.
    8880023    1    1    2    0    0 -0.99457403544E+01 -0.55238352768E+03 -0.16829937401E+04  0.18898424841E+04  0.65864270000E+03 0.  0.
    8880022    1    1    2    0    0  0.99457403544E+01  0.55238352768E+03 -0.35305819797E+01  0.57326311361E+03  0.15294330000E+03 0.  1.
<mgrwt>
<rscale>  0 0.77684825E+03</rscale>
<asrwt>0</asrwt>
<pdfrwt beam="1">  1        1 0.31920229E+00 0.85967243E+03</pdfrwt>
<pdfrwt beam="2">  1       -1 0.59737022E-01 0.85967243E+03</pdfrwt>
<totfact> 0.77657174E+00</totfact>
</mgrwt>
</event>
<event>
 4    5  0.1074803E-007  0.8571615E+03  0.7818608E-02  0.9598633E-01
          1   -1    0    0  501    0  0.00000000000E+00  0.00000000000E+00  0.15750399460E+04  0.15750399460E+04  0.50400000000E-02 0. -1.
         -1   -1    0    0    0  501 -0.00000000000E+00 -0.00000000000E+00 -0.70134916194E+03  0.70134916196E+03  0.50400000000E-02 0.  1.
    8880023    1    1    2    0    0  0.14281173286E+03 -0.52964179097E+03  0.13054736601E+04  0.15617257446E+04  0.65864270000E+03 0. -1.
    8880022    1    1    2    0    0 -0.14281173286E+03  0.52964179097E+03 -0.43178287610E+03  0.71466336334E+03  0.15294330000E+03 0.  0.
<mgrwt>
<rscale>  0 0.77386744E+03</rscale>
<asrwt>0</asrwt>
<pdfrwt beam="1">  1        1 0.24231384E+00 0.85716149E+03</pdfrwt>
<pdfrwt beam="2">  1       -1 0.10789987E+00 0.85716149E+03</pdfrwt>
<totfact> 0.47561017E+00</totfact>
</mgrwt>
</event>
<event>
 4    5  0.1074803E-007  0.1151540E+04  0.7818608E-02  0.9205732E-01
          1   -1    0    0  501    0  0.00000000000E+00  0.00000000000E+00  0.34383519597E+04  0.34383519597E+04  0.50400000000E-02 0. -1.
         -1   -1    0    0    0  501 -0.00000000000E+00 -0.00000000000E+00 -0.35224766451E+03  0.35224766454E+03  0.50400000000E-02 0.  1.
    8880023    1    1    2    0    0 -0.35028336506E+03 -0.87723200220E+03  0.22156687861E+04  0.24970448129E+04  0.65864270000E+03 0.  0.
    8880022    1    1    2    0    0  0.35028336506E+03  0.87723200220E+03  0.87043550909E+03  0.12935548114E+04  0.15294330000E+03 0.  0.
<mgrwt>
<rscale>  0 0.10994464E+04</rscale>
<asrwt>0</asrwt>
<pdfrwt beam="1">  1        1 0.52897722E+00 0.11515401E+04</pdfrwt>
<pdfrwt beam="2">  1       -1 0.54191949E-01 0.11515401E+04</pdfrwt>
<totfact> 0.97410977E-01</totfact>
</mgrwt>
</event>
<event>
 4    5  0.1074803E-007  0.7075673E+03  0.7818608E-02  0.9967148E-01
         -1   -1    0    0    0  501 -0.00000000000E+00  0.00000000000E+00  0.15362013065E+03  0.15362013073E+03  0.50400000000E-02 0.  1.
          1   -1    0    0  501    0  0.00000000000E+00 -0.00000000000E+00 -0.25981393674E+04  0.25981393674E+04  0.50400000000E-02 0. -1.
    8880023    1    1    2    0    0 -0.25615019645E+03  0.35048664559E+02 -0.23218840924E+04  0.24273024691E+04  0.65864270000E+03 0. -1.
    8880022    1    1    2    0    0  0.25615019645E+03 -0.35048664559E+02 -0.12263514442E+03  0.32445702904E+03  0.15294330000E+03 0.  0.
<mgrwt>
<rscale>  0 0.57114516E+03</rscale>
<asrwt>0</asrwt>
<pdfrwt beam="1">  1        1 0.39971372E+00 0.70756734E+03</pdfrwt>
<pdfrwt beam="2">  1       -1 0.23633868E-01 0.70756734E+03</pdfrwt>
<totfact> 0.18858251E+01</totfact>
</mgrwt>
</event>
<event>
 4    5  0.1074803E-007  0.9362376E+03  0.7818608E-02  0.9470198E-01
         -1   -1    0    0    0  501 -0.00000000000E+00  0.00000000000E+00  0.56992923880E+03  0.56992923882E+03  0.50400000000E-02 0.  1.
          1   -1    0    0  501    0  0.00000000000E+00 -0.00000000000E+00 -0.11571603110E+04  0.11571603111E+04  0.50400000000E-02 0. -1.
    8880023    1    1    2    0    0  0.66527022463E+03  0.12090925145E+02 -0.27095062743E+03  0.97465640665E+03  0.65864270000E+03 0.  1.
    8880022    1    1    2    0    0 -0.66527022463E+03 -0.12090925145E+02 -0.31628044482E+03  0.75243314324E+03  0.15294330000E+03 0. -1.
<mgrwt>
<rscale>  0 0.86517119E+03</rscale>
<asrwt>0</asrwt>
<pdfrwt beam="1">  1        1 0.17802466E+00 0.93623761E+03</pdfrwt>
<pdfrwt beam="2">  1       -1 0.87681422E-01 0.93623761E+03</pdfrwt>
<totfact> 0.14846727E+01</totfact>
</mgrwt>
</event>
<event>
 4    5  0.1074803E-007  0.8511332E+03  0.7818608E-02  0.9609535E-01
         -1   -1    0    0    0  501 -0.00000000000E+00  0.00000000000E+00  0.14070725191E+04  0.14070725191E+04  0.50400000000E-02 0.  1.
          1   -1    0    0  501    0  0.00000000000E+00 -0.00000000000E+00 -0.11089377805E+04  0.11089377805E+04  0.50400000000E-02 0. -1.
    8880023    1    1    2    0    0  0.53832366097E+03 -0.28725582727E+02 -0.87205587178E+03  0.12185684933E+04  0.65864270000E+03 0.  0.
    8880022    1    1    2    0    0 -0.53832366097E+03  0.28725582727E+02  0.11701906104E+04  0.12974418063E+04  0.15294330000E+03 0.  1.
<mgrwt>
<rscale>  0 0.76668319E+03</rscale>
<asrwt>0</asrwt>
<pdfrwt beam="1">  1        1 0.17060581E+00 0.85113320E+03</pdfrwt>
<pdfrwt beam="2">  1       -1 0.21647270E+00 0.85113320E+03</pdfrwt>
<totfact> 0.14925197E+00</totfact>
</mgrwt>
</event>
<event>
 4    5  0.1074803E-007  0.7606387E+03  0.7818608E-02  0.9803457E-01
          1   -1    0    0  501    0  0.00000000000E+00  0.00000000000E+00  0.73708647297E+03  0.73708647299E+03  0.50400000000E-02 0. -1.
         -1   -1    0    0    0  501 -0.00000000000E+00 -0.00000000000E+00 -0.18123065777E+04  0.18123065777E+04  0.50400000000E-02 0.  1.
    8880023    1    1    2    0    0  0.28614093060E+03  0.25076754447E+03  0.50750934453E+03  0.91440523542E+03  0.65864270000E+03 0. -1.
    8880022    1    1    2    0    0 -0.28614093060E+03 -0.25076754447E+03 -0.15827294492E+04  0.16349878152E+04  0.15294330000E+03 0.  0.
<mgrwt>
<rscale>  0 0.65177360E+03</rscale>
<asrwt>0</asrwt>
<pdfrwt beam="1">  1        1 0.11339792E+00 0.76063868E+03</pdfrwt>
<pdfrwt beam="2">  1       -1 0.27881640E+00 0.76063868E+03</pdfrwt>
<totfact> 0.11977327E+00</totfact>
</mgrwt>
</event>
<event>
 4    5  0.1074803E-007  0.6617543E+03  0.7818608E-02  0.1022427E+00
         -1   -1    0    0    0  501 -0.00000000000E+00  0.00000000000E+00  0.24829189697E+03  0.24829189702E+03  0.50400000000E-02 0.  1.
          1   -1    0    0  501    0  0.00000000000E+00 -0.00000000000E+00 -0.16618303205E+04  0.16618303205E+04  0.50400000000E-02 0. -1.
    8880023    1    1    2    0    0 -0.74916427576E+00 -0.64093804824E+02 -0.15563983420E+04  0.16912405454E+04  0.65864270000E+03 0. -1.
    8880022    1    1    2    0    0  0.74916427576E+00  0.64093804824E+02  0.14285991851E+03  0.21888167213E+03  0.15294330000E+03 0.  0.
<mgrwt>
<rscale>  0 0.46820886E+03</rscale>
<asrwt>0</asrwt>
<pdfrwt beam="1">  1        1 0.25566620E+00 0.66175432E+03</pdfrwt>
<pdfrwt beam="2">  1       -1 0.38198754E-01 0.66175432E+03</pdfrwt>
<totfact> 0.35019503E+01</totfact>
</mgrwt>
</event>
<event>
 4    5  0.1074803E-007  0.6755209E+03  0.7818608E-02  0.1011980E+00
          1   -1    0    0  501    0  0.00000000000E+00  0.00000000000E+00  0.17018872082E+04  0.17018872082E+04  0.50400000000E-02 0. -1.
         -1   -1    0    0    0  501 -0.00000000000E+00 -0.00000000000E+00 -0.42169917351E+03  0.42169917354E+03  0.50400000000E-02 0.  1.
    8880023    1    1    2    0    0  0.14842048899E+03 -0.22128229961E+02  0.16010694668E+04  0.17377433481E+04  0.65864270000E+03 0. -1.
    8880022    1    1    2    0    0 -0.14842048899E+03  0.22128229961E+02 -0.32088143211E+03  0.38584303363E+03  0.15294330000E+03 0.  0.
<mgrwt>
<rscale>  0 0.50695272E+03</rscale>
<asrwt>0</asrwt>
<pdfrwt beam="1">  1        1 0.26182880E+00 0.67552091E+03</pdfrwt>
<pdfrwt beam="2">  1       -1 0.64876795E-01 0.67552091E+03</pdfrwt>
<totfact> 0.12048947E+01</totfact>
</mgrwt>
</event>
<event>
 4    5  0.1074803E-007  0.7867434E+03  0.7818608E-02  0.9740229E-01
          1   -1    0    0  501    0  0.00000000000E+00  0.00000000000E+00  0.93179492947E+03  0.93179492949E+03  0.50400000000E-02 0. -1.
         -1   -1    0    0    0  501 -0.00000000000E+00 -0.00000000000E+00 -0.50672100424E+03  0.50672100427E+03  0.50400000000E-02 0.  1.
    8880023    1    1    2    0    0  0.18431873749E+03 -0.38882070074E+03  0.55608128884E+03  0.96342697719E+03  0.65864270000E+03 0.  0.
    8880022    1    1    2    0    0 -0.18431873749E+03  0.38882070074E+03 -0.13100736361E+03  0.47508895656E+03  0.15294330000E+03 0.  0.
<mgrwt>
<rscale>  0 0.68671290E+03</rscale>
<asrwt>0</asrwt>
<pdfrwt beam="1">  1        1 0.14335307E+00 0.78674338E+03</pdfrwt>
<pdfrwt beam="2">  1       -1 0.77957077E-01 0.78674338E+03</pdfrwt>
<totfact> 0.28892781E+01</totfact>
</mgrwt>
</event>
<event>
 4    5  0.1074803E-007  0.7140253E+03  0.7818608E-02  0.9943347E-01
          1   -1    0    0  501    0  0.00000000000E+00  0.00000000000E+00  0.26143765359E+04  0.26143765359E+04  0.50400000000E-02 0. -1.
         -1   -1    0    0    0  501 -0.00000000000E+00 -0.00000000000E+00 -0.65500105623E+03  0.65500105625E+03  0.50400000000E-02 0.  1.
    8880023    1    1    2    0    0 -0.25888854806E+03  0.94860958939E+02  0.25237980825E+04  0.26228589076E+04  0.65864270000E+03 0.  0.
    8880022    1    1    2    0    0  0.25888854806E+03 -0.94860958939E+02 -0.56442260282E+03  0.64651868453E+03  0.15294330000E+03 0.  1.
<mgrwt>
<rscale>  0 0.58205748E+03</rscale>
<asrwt>0</asrwt>
<pdfrwt beam="1">  1        1 0.40221177E+00 0.71402527E+03</pdfrwt>
<pdfrwt beam="2">  1       -1 0.10076939E+00 0.71402527E+03</pdfrwt>
<totfact> 0.11381402E+00</totfact>
</mgrwt>
</event>
<event>
 4    5  0.1074803E-007  0.1254276E+04  0.7818608E-02  0.9106087E-01
         -1   -1    0    0    0  501 -0.00000000000E+00  0.00000000000E+00  0.79200079952E+03  0.79200079954E+03  0.50400000000E-02 0.  1.
          1   -1    0    0  501    0  0.00000000000E+00 -0.00000000000E+00 -0.19842690189E+04  0.19842690189E+04  0.50400000000E-02 0. -1.
    8880023    1    1    2    0    0  0.62870110380E+02  0.10655724883E+04 -0.11427815057E+04  0.16968079310E+04  0.65864270000E+03 0.  1.
    8880022    1    1    2    0    0 -0.62870110380E+02 -0.10655724883E+04 -0.49486713679E+02  0.10794618875E+04  0.15294330000E+03 0.  0.
<mgrwt>
<rscale>  0 0.12077648E+04</rscale>
<asrwt>0</asrwt>
<pdfrwt beam="1">  1        1 0.30527215E+00 0.12542757E+04</pdfrwt>
<pdfrwt beam="2">  1       -1 0.12184628E+00 0.12542757E+04</pdfrwt>
<totfact> 0.17811919E+00</totfact>
</mgrwt>
</event>
<event>
 4    5  0.1074803E-007  0.1896393E+04  0.7818608E-02  0.8671009E-01
          1   -1    0    0  501    0  0.00000000000E+00  0.00000000000E+00  0.33684327537E+04  0.33684327537E+04  0.50400000000E-02 0. -1.
         -1   -1    0    0    0  501 -0.00000000000E+00 -0.00000000000E+00 -0.16483529197E+04  0.16483529197E+04  0.50400000000E-02 0.  1.
    8880023    1    1    2    0    0 -0.16592153278E+04 -0.63992224762E+03  0.24416070013E+04  0.30915612467E+04  0.65864270000E+03 0. -1.
    8880022    1    1    2    0    0  0.16592153278E+04  0.63992224762E+03 -0.72152716729E+03  0.19252244267E+04  0.15294330000E+03 0.  0.
<mgrwt>
<rscale>  0 0.18678847E+04</rscale>
<asrwt>0</asrwt>
<pdfrwt beam="1">  1        1 0.51822042E+00 0.18963929E+04</pdfrwt>
<pdfrwt beam="2">  1       -1 0.25359276E+00 0.18963929E+04</pdfrwt>
<totfact> 0.18796869E-02</totfact>
</mgrwt>
</event>
<event>
 4    5  0.1074803E-007  0.8696164E+03  0.7818608E-02  0.9576681E-01
         -1   -1    0    0    0  501 -0.00000000000E+00  0.00000000000E+00  0.85175128202E+03  0.85175128203E+03  0.50400000000E-02 0.  1.
          1   -1    0    0  501    0  0.00000000000E+00 -0.00000000000E+00 -0.13857113783E+04  0.13857113783E+04  0.50400000000E-02 0. -1.
    8880023    1    1    2    0    0  0.44309761458E+03 -0.35508722875E+03 -0.11128179124E+04  0.14123017909E+04  0.65864270000E+03 0.  0.
    8880022    1    1    2    0    0 -0.44309761458E+03  0.35508722875E+03  0.57885781617E+03  0.82516086942E+03  0.15294330000E+03 0.  1.
<mgrwt>
<rscale>  0 0.78858973E+03</rscale>
<asrwt>0</asrwt>
<pdfrwt beam="1">  1        1 0.21318637E+00 0.86961638E+03</pdfrwt>
<pdfrwt beam="2">  1       -1 0.13103866E+00 0.86961638E+03</pdfrwt>
<totfact> 0.39946631E+00</totfact>
</mgrwt>
</event>
<event>
 4    5  0.1074803E-007  0.8956784E+03  0.7818608E-02  0.9533005E-01
          1   -1    0    0  501    0  0.00000000000E+00  0.00000000000E+00  0.90652964992E+03  0.90652964993E+03  0.50400000000E-02 0. -1.
         -1   -1    0    0    0  501 -0.00000000000E+00 -0.00000000000E+00 -0.65563657615E+03  0.65563657617E+03  0.50400000000E-02 0.  1.
    8880023    1    1    2    0    0  0.60642121370E+03  0.26133901730E+02  0.27133782767E+03  0.93587610945E+03  0.65864270000E+03 0.  0.
    8880022    1    1    2    0    0 -0.60642121370E+03 -0.26133901730E+02 -0.20444753906E+02  0.62629011666E+03  0.15294330000E+03 0.  0.
<mgrwt>
<rscale>  0 0.81893626E+03</rscale>
<asrwt>0</asrwt>
<pdfrwt beam="1">  1        1 0.13946610E+00 0.89567844E+03</pdfrwt>
<pdfrwt beam="2">  1       -1 0.10086717E+00 0.89567844E+03</pdfrwt>
<totfact> 0.17005045E+01</totfact>
</mgrwt>
</event>
<event>
 4    5  0.1074803E-007  0.7419445E+03  0.7818608E-02  0.9854319E-01
         -1   -1    0    0    0  501 -0.00000000000E+00  0.00000000000E+00  0.14048119166E+04  0.14048119166E+04  0.50400000000E-02 0.  1.
          1   -1    0    0  501    0  0.00000000000E+00 -0.00000000000E+00 -0.53004064177E+03  0.53004064180E+03  0.50400000000E-02 0. -1.
    8880023    1    1    2    0    0  0.22342963506E+03 -0.25836137587E+03 -0.22324912238E+03  0.77480434903E+03  0.65864270000E+03 0. -1.
    8880022    1    1    2    0    0 -0.22342963506E+03  0.25836137587E+03  0.10980203972E+04  0.11600482094E+04  0.15294330000E+03 0.  0.
<mgrwt>
<rscale>  0 0.62527203E+03</rscale>
<asrwt>0</asrwt>
<pdfrwt beam="1">  1        1 0.81544715E-01 0.74194448E+03</pdfrwt>
<pdfrwt beam="2">  1       -1 0.21612491E+00 0.74194448E+03</pdfrwt>
<totfact> 0.49577625E+00</totfact>
</mgrwt>
</event>
<event>
 4    5  0.1074803E-007  0.8717967E+03  0.7818608E-02  0.9572914E-01
          1   -1    0    0  501    0  0.00000000000E+00  0.00000000000E+00  0.13273579829E+04  0.13273579829E+04  0.50400000000E-02 0. -1.
         -1   -1    0    0    0  501 -0.00000000000E+00 -0.00000000000E+00 -0.68896332022E+03  0.68896332024E+03  0.50400000000E-02 0.  1.
    8880023    1    1    2    0    0 -0.13359717718E+03 -0.55531171240E+03  0.99730963606E+03  0.13246342967E+04  0.65864270000E+03 0.  0.
    8880022    1    1    2    0    0  0.13359717718E+03  0.55531171240E+03 -0.35891497339E+03  0.69168700639E+03  0.15294330000E+03 0.  0.
<mgrwt>
<rscale>  0 0.79115131E+03</rscale>
<asrwt>0</asrwt>
<pdfrwt beam="1">  1        1 0.20420892E+00 0.87179671E+03</pdfrwt>
<pdfrwt beam="2">  1       -1 0.10599436E+00 0.87179671E+03</pdfrwt>
<totfact> 0.73455174E+00</totfact>
</mgrwt>
</event>
<event>
 4    5  0.1074803E-007  0.1126094E+04  0.7818608E-02  0.9232545E-01
          1   -1    0    0  501    0  0.00000000000E+00  0.00000000000E+00  0.14542937264E+04  0.14542937264E+04  0.50400000000E-02 0. -1.
         -1   -1    0    0    0  501 -0.00000000000E+00 -0.00000000000E+00 -0.12683984780E+04  0.12683984780E+04  0.50400000000E-02 0.  1.
    8880023    1    1    2    0    0 -0.29670362603E+03  0.86385466627E+03  0.98757841452E+03  0.14977981363E+04  0.65864270000E+03 0.  0.
    8880022    1    1    2    0    0  0.29670362603E+03 -0.86385466627E+03 -0.80168316607E+03  0.12248940680E+04  0.15294330000E+03 0.  0.
<mgrwt>
<rscale>  0 0.10723734E+04</rscale>
<asrwt>0</asrwt>
<pdfrwt beam="1">  1        1 0.22373750E+00 0.11260942E+04</pdfrwt>
<pdfrwt beam="2">  1       -1 0.19513823E+00 0.11260942E+04</pdfrwt>
<totfact> 0.11323703E+00</totfact>
</mgrwt>
</event>
<event>
 4    5  0.1074803E-007  0.6677876E+03  0.7818608E-02  0.1017301E+00
         -1   -1    0    0    0  501 -0.00000000000E+00  0.00000000000E+00  0.45194926166E+03  0.45194926169E+03  0.50400000000E-02 0.  1.
          1   -1    0    0  501    0  0.00000000000E+00 -0.00000000000E+00 -0.74946195928E+03  0.74946195929E+03  0.50400000000E-02 0. -1.
    8880023    1    1    2    0    0 -0.28915192702E+02  0.10627321485E+03 -0.56462858637E+03  0.87449741644E+03  0.65864270000E+03 0.  0.
    8880022    1    1    2    0    0  0.28915192702E+02 -0.10627321485E+03  0.26711588875E+03  0.32691380454E+03  0.15294330000E+03 0.  0.
<mgrwt>
<rscale>  0 0.48673272E+03</rscale>
<asrwt>0</asrwt>
<pdfrwt beam="1">  1        1 0.11530184E+00 0.66778761E+03</pdfrwt>
<pdfrwt beam="2">  1       -1 0.69530656E-01 0.66778761E+03</pdfrwt>
<totfact> 0.52853579E+01</totfact>
</mgrwt>
</event>
<event>
 4    5  0.1074803E-007  0.1008649E+04  0.7818608E-02  0.9370328E-01
          1   -1    0    0  501    0  0.00000000000E+00  0.00000000000E+00  0.10895572236E+04  0.10895572236E+04  0.50400000000E-02 0. -1.
         -1   -1    0    0    0  501 -0.00000000000E+00 -0.00000000000E+00 -0.14680394941E+04  0.14680394941E+04  0.50400000000E-02 0.  1.
    8880023    1    1    2    0    0  0.25980395157E+03  0.71837645513E+03  0.69956724589E+03  0.12275045264E+04  0.65864270000E+03 0. -1.
    8880022    1    1    2    0    0 -0.25980395157E+03 -0.71837645513E+03 -0.10780495164E+04  0.13300921913E+04  0.15294330000E+03 0.  0.
<mgrwt>
<rscale>  0 0.94558287E+03</rscale>
<asrwt>0</asrwt>
<pdfrwt beam="1">  1        1 0.16762419E+00 0.10086491E+04</pdfrwt>
<pdfrwt beam="2">  1       -1 0.22585223E+00 0.10086491E+04</pdfrwt>
<totfact> 0.13052175E+00</totfact>
</mgrwt>
</event>
<event>
 4    5  0.1074803E-007  0.6827858E+03  0.7818608E-02  0.1007790E+00
         -1   -1    0    0    0  501 -0.00000000000E+00  0.00000000000E+00  0.32820896009E+03  0.32820896013E+03  0.50400000000E-02 0.  1.
          1   -1    0    0  501    0  0.00000000000E+00 -0.00000000000E+00 -0.10833006401E+04  0.10833006402E+04  0.50400000000E-02 0. -1.
    8880023    1    1    2    0    0  0.48397400707E+02 -0.17333199722E+03 -0.90357423624E+03  0.11325382538E+04  0.65864270000E+03 0. -1.
    8880022    1    1    2    0    0 -0.48397400707E+02  0.17333199722E+03  0.14848255619E+03  0.27897134649E+03  0.15294330000E+03 0.  0.
<mgrwt>
<rscale>  0 0.52362598E+03</rscale>
<asrwt>0</asrwt>
<pdfrwt beam="1">  1        1 0.16666163E+00 0.68278583E+03</pdfrwt>
<pdfrwt beam="2">  1       -1 0.50493687E-01 0.68278583E+03</pdfrwt>
<totfact> 0.53036652E+01</totfact>
</mgrwt>
</event>
<event>
 4    5  0.1074803E-007  0.1399899E+04  0.7818608E-02  0.8983761E-01
         -1   -1    0    0    0  501 -0.00000000000E+00  0.00000000000E+00  0.31570976567E+04  0.31570976567E+04  0.50400000000E-02 0.  1.
          1   -1    0    0  501    0  0.00000000000E+00 -0.00000000000E+00 -0.11399628406E+04  0.11399628407E+04  0.50400000000E-02 0. -1.
    8880023    1    1    2    0    0  0.12309277353E+04 -0.10355285761E+03 -0.50200861696E+03  0.14871883343E+04  0.65864270000E+03 0.  0.
    8880022    1    1    2    0    0 -0.12309277353E+04  0.10355285761E+03  0.25191434330E+04  0.28098721631E+04  0.15294330000E+03 0.  0.
<mgrwt>
<rscale>  0 0.13593752E+04</rscale>
<asrwt>0</asrwt>
<pdfrwt beam="1">  1        1 0.17537890E+00 0.13998987E+04</pdfrwt>
<pdfrwt beam="2">  1       -1 0.48570733E+00 0.13998987E+04</pdfrwt>
<totfact> 0.20958860E-02</totfact>
</mgrwt>
</event>
<event>
 4    5  0.1074803E-007  0.1135856E+04  0.7818608E-02  0.9222147E-01
          1   -1    0    0  501    0  0.00000000000E+00  0.00000000000E+00  0.18959985916E+04  0.18959985916E+04  0.50400000000E-02 0. -1.
         -1   -1    0    0    0  501 -0.00000000000E+00 -0.00000000000E+00 -0.75629539313E+03  0.75629539315E+03  0.50400000000E-02 0.  1.
    8880023    1    1    2    0    0  0.38957384379E+03 -0.83939866558E+03  0.12716946137E+04  0.17051027231E+04  0.65864270000E+03 0. -1.
    8880022    1    1    2    0    0 -0.38957384379E+03  0.83939866558E+03 -0.13199141518E+03  0.94719126169E+03  0.15294330000E+03 0.  0.
<mgrwt>
<rscale>  0 0.10827726E+04</rscale>
<asrwt>0</asrwt>
<pdfrwt beam="1">  1        1 0.29169209E+00 0.11358557E+04</pdfrwt>
<pdfrwt beam="2">  1       -1 0.11635314E+00 0.11358557E+04</pdfrwt>
<totfact> 0.23206577E+00</totfact>
</mgrwt>
</event>
<event>
 4    5  0.1074803E-007  0.1339080E+04  0.7818608E-02  0.9032526E-01
         -1   -1    0    0    0  501 -0.00000000000E+00  0.00000000000E+00  0.10307833640E+04  0.10307833640E+04  0.50400000000E-02 0.  1.
          1   -1    0    0  501    0  0.00000000000E+00 -0.00000000000E+00 -0.32277730954E+04  0.32277730954E+04  0.50400000000E-02 0. -1.
    8880023    1    1    2    0    0 -0.97061686950E+03 -0.64593228341E+03 -0.26732471401E+04  0.29898806164E+04  0.65864270000E+03 0.  0.
    8880022    1    1    2    0    0  0.97061686950E+03  0.64593228341E+03  0.47625740876E+03  0.12686758430E+04  0.15294330000E+03 0.  0.
<mgrwt>
<rscale>  0 0.12962734E+04</rscale>
<asrwt>0</asrwt>
<pdfrwt beam="1">  1        1 0.49658047E+00 0.13390802E+04</pdfrwt>
<pdfrwt beam="2">  1       -1 0.15858206E+00 0.13390802E+04</pdfrwt>
<totfact> 0.11824811E-01</totfact>
</mgrwt>
</event>
<event>
 4    5  0.1276969E-007  0.1330488E+04  0.7818608E-02  0.9039669E-01
          1   -1    0    0  501    0  0.00000000000E+00  0.00000000000E+00  0.27023853071E+04  0.27023853071E+04  0.50400000000E-02 0. -1.
         -1   -1    0    0    0  501 -0.00000000000E+00 -0.00000000000E+00 -0.13484790233E+04  0.13484790233E+04  0.50400000000E-02 0.  1.
    8880023    1    1    2    0    0 -0.52817666106E+03 -0.10283077069E+04  0.22269722075E+04  0.25941477878E+04  0.65864270000E+03 0. -1.
    8880022    1    1    2    0    0  0.52817666106E+03  0.10283077069E+04 -0.87306592372E+03  0.14567165426E+04  0.15294330000E+03 0.  0.
<mgrwt>
<rscale>  0 0.12873353E+04</rscale>
<asrwt>0</asrwt>
<pdfrwt beam="1">  1        1 0.41575158E+00 0.13304877E+04</pdfrwt>
<pdfrwt beam="2">  1       -1 0.20745831E+00 0.13304877E+04</pdfrwt>
<totfact> 0.12660409E-01</totfact>
</mgrwt>
</event>
<event>
 4    5  0.1074803E-007  0.6881314E+03  0.7818608E-02  0.1005054E+00
          1   -1    0    0  501    0  0.00000000000E+00  0.00000000000E+00  0.11169867184E+04  0.11169867184E+04  0.50400000000E-02 0. -1.
         -1   -1    0    0    0  501 -0.00000000000E+00 -0.00000000000E+00 -0.38336112326E+03  0.38336112329E+03  0.50400000000E-02 0.  1.
    8880023    1    1    2    0    0  0.67282145296E+02  0.18758396914E+03  0.94709415213E+03  0.11706887596E+04  0.65864270000E+03 0. -1.
    8880022    1    1    2    0    0 -0.67282145296E+02 -0.18758396914E+03 -0.21346855702E+03  0.32965908209E+03  0.15294330000E+03 0.  0.
<mgrwt>
<rscale>  0 0.53488770E+03</rscale>
<asrwt>0</asrwt>
<pdfrwt beam="1">  1        1 0.17184411E+00 0.68813141E+03</pdfrwt>
<pdfrwt beam="2">  1       -1 0.58978635E-01 0.68813141E+03</pdfrwt>
<totfact> 0.37095961E+01</totfact>
</mgrwt>
</event>
<event>
 4    5  0.1074803E-007  0.1542170E+04  0.7818608E-02  0.8880418E-01
         -1   -1    0    0    0  501 -0.00000000000E+00  0.00000000000E+00  0.10847189207E+04  0.10847189207E+04  0.50400000000E-02 0.  1.
          1   -1    0    0  501    0  0.00000000000E+00 -0.00000000000E+00 -0.26769798700E+04  0.26769798700E+04  0.50400000000E-02 0. -1.
    8880023    1    1    2    0    0  0.36835373008E+03 -0.13449138998E+04 -0.17700954206E+04  0.23476639182E+04  0.65864270000E+03 0.  0.
    8880022    1    1    2    0    0 -0.36835373008E+03  0.13449138998E+04  0.17783447136E+03  0.14140348725E+04  0.15294330000E+03 0.  0.
<mgrwt>
<rscale>  0 0.15060823E+04</rscale>
<asrwt>0</asrwt>
<pdfrwt beam="1">  1        1 0.41184305E+00 0.15421699E+04</pdfrwt>
<pdfrwt beam="2">  1       -1 0.16687983E+00 0.15421699E+04</pdfrwt>
<totfact> 0.24953743E-01</totfact>
</mgrwt>
</event>
<event>
 4    5  0.1074803E-007  0.1404509E+04  0.7818608E-02  0.8980187E-01
          1   -1    0    0  501    0  0.00000000000E+00  0.00000000000E+00  0.20580052678E+04  0.20580052678E+04  0.50400000000E-02 0. -1.
         -1   -1    0    0    0  501 -0.00000000000E+00 -0.00000000000E+00 -0.11222770787E+04  0.11222770787E+04  0.50400000000E-02 0.  1.
    8880023    1    1    2    0    0  0.11718901550E+04  0.40682610777E+03  0.12623383851E+04  0.18884232635E+04  0.65864270000E+03 0. -1.
    8880022    1    1    2    0    0 -0.11718901550E+04 -0.40682610777E+03 -0.32661019604E+03  0.12918590830E+04  0.15294330000E+03 0.  0.
<mgrwt>
<rscale>  0 0.13641473E+04</rscale>
<asrwt>0</asrwt>
<pdfrwt beam="1">  1        1 0.31661619E+00 0.14045085E+04</pdfrwt>
<pdfrwt beam="2">  1       -1 0.17265801E+00 0.14045085E+04</pdfrwt>
<totfact> 0.61315623E-01</totfact>
</mgrwt>
</event>
<event>
 4    5  0.1074803E-007  0.8897484E+03  0.7818608E-02  0.9542693E-01
         -1   -1    0    0    0  501 -0.00000000000E+00  0.00000000000E+00  0.25084328256E+04  0.25084328256E+04  0.50400000000E-02 0.  1.
          1   -1    0    0  501    0  0.00000000000E+00 -0.00000000000E+00 -0.42710900522E+03  0.42710900525E+03  0.50400000000E-02 0. -1.
    8880023    1    1    2    0    0 -0.12166697834E+03 -0.58569550895E+03  0.14289183997E+03  0.90114946985E+03  0.65864270000E+03 0. -1.
    8880022    1    1    2    0    0  0.12166697834E+03  0.58569550895E+03  0.19384319804E+04  0.20343923610E+04  0.15294330000E+03 0.  0.
<mgrwt>
<rscale>  0 0.81208099E+03</rscale>
<asrwt>0</asrwt>
<pdfrwt beam="1">  1        1 0.65709079E-01 0.88974844E+03</pdfrwt>
<pdfrwt beam="2">  1       -1 0.38591274E+00 0.88974844E+03</pdfrwt>
<totfact> 0.51127803E-01</totfact>
</mgrwt>
</event>
<event>
 4    5  0.1074803E-007  0.1241661E+04  0.7818608E-02  0.9117652E-01
          1   -1    0    0  501    0  0.00000000000E+00  0.00000000000E+00  0.18988428827E+04  0.18988428827E+04  0.50400000000E-02 0. -1.
         -1   -1    0    0    0  501 -0.00000000000E+00 -0.00000000000E+00 -0.10159790077E+04  0.10159790077E+04  0.50400000000E-02 0.  1.
    8880023    1    1    2    0    0 -0.96830094790E+03  0.41267944293E+03  0.12764176944E+04  0.17807199065E+04  0.65864270000E+03 0. -1.
    8880022    1    1    2    0    0  0.96830094790E+03 -0.41267944293E+03 -0.39355381941E+03  0.11341019840E+04  0.15294330000E+03 0.  1.
<mgrwt>
<rscale>  0 0.11945368E+04</rscale>
<asrwt>0</asrwt>
<pdfrwt beam="1">  1        1 0.29212967E+00 0.12416607E+04</pdfrwt>
<pdfrwt beam="2">  1       -1 0.15630446E+00 0.12416607E+04</pdfrwt>
<totfact> 0.10633061E+00</totfact>
</mgrwt>
</event>
<event>
 4    5  0.1074803E-007  0.8213311E+03  0.7818608E-02  0.9666441E-01
         -1   -1    0    0    0  501 -0.00000000000E+00  0.00000000000E+00  0.42791966076E+03  0.42791966079E+03  0.50400000000E-02 0.  1.
          1   -1    0    0  501    0  0.00000000000E+00 -0.00000000000E+00 -0.13051295840E+04  0.13051295840E+04  0.50400000000E-02 0. -1.
    8880023    1    1    2    0    0  0.72159161052E+02  0.48535311439E+03 -0.90017593235E+03  0.12185653473E+04  0.65864270000E+03 0.  1.
    8880022    1    1    2    0    0 -0.72159161052E+02 -0.48535311439E+03  0.22966009136E+02  0.51448389748E+03  0.15294330000E+03 0.  0.
<mgrwt>
<rscale>  0 0.73050530E+03</rscale>
<asrwt>0</asrwt>
<pdfrwt beam="1">  1        1 0.20078916E+00 0.82133111E+03</pdfrwt>
<pdfrwt beam="2">  1       -1 0.65833795E-01 0.82133111E+03</pdfrwt>
<totfact> 0.21459708E+01</totfact>
</mgrwt>
</event>
<event>
 4    5  0.1074803E-007  0.9809117E+03  0.7818608E-02  0.9406968E-01
          1   -1    0    0  501    0  0.00000000000E+00  0.00000000000E+00  0.20176326265E+04  0.20176326265E+04  0.50400000000E-02 0. -1.
         -1   -1    0    0    0  501 -0.00000000000E+00 -0.00000000000E+00 -0.10242769109E+04  0.10242769109E+04  0.50400000000E-02 0.  1.
    8880023    1    1    2    0    0 -0.72486065685E+03 -0.54356462328E+02  0.17344603564E+04  0.19926215223E+04  0.65864270000E+03 0. -1.
    8880022    1    1    2    0    0  0.72486065685E+03  0.54356462328E+02 -0.74110464082E+03  0.10492880150E+04  0.15294330000E+03 0.  0.
<mgrwt>
<rscale>  0 0.91504432E+03</rscale>
<asrwt>0</asrwt>
<pdfrwt beam="1">  1        1 0.31040502E+00 0.98091172E+03</pdfrwt>
<pdfrwt beam="2">  1       -1 0.15758106E+00 0.98091172E+03</pdfrwt>
<totfact> 0.89675455E-01</totfact>
</mgrwt>
</event>
<event>
 4    5  0.1074803E-007  0.7245637E+03  0.7818608E-02  0.9907436E-01
         -1   -1    0    0    0  501 -0.00000000000E+00  0.00000000000E+00  0.53342051378E+03  0.53342051380E+03  0.50400000000E-02 0.  1.
          1   -1    0    0  501    0  0.00000000000E+00 -0.00000000000E+00 -0.13137000046E+04  0.13137000046E+04  0.50400000000E-02 0. -1.
    8880023    1    1    2    0    0 -0.28669005438E+03  0.94821706172E+02 -0.11415317637E+04  0.13520677930E+04  0.65864270000E+03 0.  0.
    8880022    1    1    2    0    0  0.28669005438E+03 -0.94821706172E+02  0.36125227285E+03  0.49505272537E+03  0.15294330000E+03 0.  0.
<mgrwt>
<rscale>  0 0.59902257E+03</rscale>
<asrwt>0</asrwt>
<pdfrwt beam="1">  1        1 0.20210769E+00 0.72456370E+03</pdfrwt>
<pdfrwt beam="2">  1       -1 0.82064695E-01 0.72456370E+03</pdfrwt>
<totfact> 0.13561605E+01</totfact>
</mgrwt>
</event>
<event>
 4    5  0.1074803E-007  0.7341231E+03  0.7818608E-02  0.9877409E-01
          1   -1    0    0  501    0  0.00000000000E+00  0.00000000000E+00  0.34268114456E+04  0.34268114456E+04  0.50400000000E-02 0. -1.
         -1   -1    0    0    0  501 -0.00000000000E+00 -0.00000000000E+00 -0.34203232765E+03  0.34203232768E+03  0.50400000000E-02 0.  1.
    8880023    1    1    2    0    0 -0.15034788506E+02 -0.32388346327E+03  0.32796492127E+04  0.33608087877E+04  0.65864270000E+03 0. -1.
    8880022    1    1    2    0    0  0.15034788506E+02  0.32388346327E+03 -0.19487009475E+03  0.40803498562E+03  0.15294330000E+03 0.  0.
<mgrwt>
<rscale>  0 0.61368746E+03</rscale>
<asrwt>0</asrwt>
<pdfrwt beam="1">  1        1 0.52720174E+00 0.73412312E+03</pdfrwt>
<pdfrwt beam="2">  1       -1 0.52620361E-01 0.73412312E+03</pdfrwt>
<totfact> 0.11339951E+00</totfact>
</mgrwt>
</event>
<event>
 4    5  0.1074803E-007  0.8094170E+03  0.7818608E-02  0.9690793E-01
         -1   -1    0    0    0  501 -0.00000000000E+00  0.00000000000E+00  0.46961432373E+03  0.46961432376E+03  0.50400000000E-02 0.  1.
          1   -1    0    0  501    0  0.00000000000E+00 -0.00000000000E+00 -0.12659581025E+04  0.12659581025E+04  0.50400000000E-02 0. -1.
    8880023    1    1    2    0    0  0.34674964858E+03 -0.31797844476E+03 -0.92026473218E+03  0.12255786363E+04  0.65864270000E+03 0. -1.
    8880022    1    1    2    0    0 -0.34674964858E+03  0.31797844476E+03  0.12392095342E+03  0.50999378999E+03  0.15294330000E+03 0.  1.
<mgrwt>
<rscale>  0 0.71567647E+03</rscale>
<asrwt>0</asrwt>
<pdfrwt beam="1">  1        1 0.19476278E+00 0.80941696E+03</pdfrwt>
<pdfrwt beam="2">  1       -1 0.72248358E-01 0.80941696E+03</pdfrwt>
<totfact> 0.18950663E+01</totfact>
</mgrwt>
</event>
<event>
 4    5  0.1074803E-007  0.1234110E+04  0.7818608E-02  0.9124658E-01
          1   -1    0    0  501    0  0.00000000000E+00  0.00000000000E+00  0.14431063689E+04  0.14431063689E+04  0.50400000000E-02 0. -1.
         -1   -1    0    0    0  501 -0.00000000000E+00 -0.00000000000E+00 -0.10522905441E+04  0.10522905441E+04  0.50400000000E-02 0.  1.
    8880023    1    1    2    0    0  0.21169668671E+03 -0.10219598304E+04  0.67002584688E+03  0.14042657241E+04  0.65864270000E+03 0.  0.
    8880022    1    1    2    0    0 -0.21169668671E+03  0.10219598304E+04 -0.27921002208E+03  0.10911311890E+04  0.15294330000E+03 0.  0.
<mgrwt>
<rscale>  0 0.11866106E+04</rscale>
<asrwt>0</asrwt>
<pdfrwt beam="1">  1        1 0.22201637E+00 0.12341100E+04</pdfrwt>
<pdfrwt beam="2">  1       -1 0.16189085E+00 0.12341100E+04</pdfrwt>
<totfact> 0.19794322E+00</totfact>
</mgrwt>
</event>
<event>
 4    5  0.1074803E-007  0.6912503E+03  0.7818608E-02  0.1003564E+00
         -1   -1    0    0    0  501 -0.00000000000E+00  0.00000000000E+00  0.27574073574E+03  0.27574073579E+03  0.50400000000E-02 0.  1.
          1   -1    0    0  501    0  0.00000000000E+00 -0.00000000000E+00 -0.12587720772E+04  0.12587720772E+04  0.50400000000E-02 0. -1.
    8880023    1    1    2    0    0  0.11816372076E+03  0.17336104667E+03 -0.10584253804E+04  0.12641563232E+04  0.65864270000E+03 0. -1.
    8880022    1    1    2    0    0 -0.11816372076E+03 -0.17336104667E+03  0.75394038996E+02  0.27035648973E+03  0.15294330000E+03 0.  0.
<mgrwt>
<rscale>  0 0.54114757E+03</rscale>
<asrwt>0</asrwt>
<pdfrwt beam="1">  1        1 0.19365724E+00 0.69125026E+03</pdfrwt>
<pdfrwt beam="2">  1       -1 0.42421652E-01 0.69125026E+03</pdfrwt>
<totfact> 0.54614022E+01</totfact>
</mgrwt>
</event>
<event>
 4    5  0.1074803E-007  0.7213653E+03  0.7818608E-02  0.9917993E-01
          1   -1    0    0  501    0  0.00000000000E+00  0.00000000000E+00  0.78820291419E+03  0.78820291420E+03  0.50400000000E-02 0. -1.
         -1   -1    0    0    0  501 -0.00000000000E+00 -0.00000000000E+00 -0.49407198358E+03  0.49407198361E+03  0.50400000000E-02 0.  1.
    8880023    1    1    2    0    0  0.24881412248E+03 -0.15700092681E+03  0.51281540895E+03  0.88506926762E+03  0.65864270000E+03 0.  0.
    8880022    1    1    2    0    0 -0.24881412248E+03  0.15700092681E+03 -0.21868447835E+03  0.39720563019E+03  0.15294330000E+03 0.  0.
<mgrwt>
<rscale>  0 0.59397145E+03</rscale>
<asrwt>0</asrwt>
<pdfrwt beam="1">  1        1 0.12126199E+00 0.72136535E+03</pdfrwt>
<pdfrwt beam="2">  1       -1 0.76011075E-01 0.72136535E+03</pdfrwt>
<totfact> 0.40418073E+01</totfact>
</mgrwt>
</event>
<event>
 4    5  0.1074803E-007  0.6867698E+03  0.7818608E-02  0.1005727E+00
          1   -1    0    0  501    0  0.00000000000E+00  0.00000000000E+00  0.25426478680E+03  0.25426478685E+03  0.50400000000E-02 0. -1.
         -1   -1    0    0    0  501 -0.00000000000E+00 -0.00000000000E+00 -0.87338450756E+03  0.87338450757E+03  0.50400000000E-02 0.  1.
    8880023    1    1    2    0    0  0.19404305404E+03 -0.13776516982E+02 -0.38667919304E+03  0.78814561081E+03  0.65864270000E+03 0.  0.
    8880022    1    1    2    0    0 -0.19404305404E+03  0.13776516982E+02 -0.23244052772E+03  0.33950368361E+03  0.15294330000E+03 0.  1.
<mgrwt>
<rscale>  0 0.53208693E+03</rscale>
<asrwt>0</asrwt>
<pdfrwt beam="1">  1        1 0.39117660E-01 0.68676976E+03</pdfrwt>
<pdfrwt beam="2">  1       -1 0.13436685E+00 0.68676976E+03</pdfrwt>
<totfact> 0.51963388E+01</totfact>
</mgrwt>
</event>
<event>
 4    5  0.1074803E-007  0.1393493E+04  0.7818608E-02  0.8988756E-01
          1   -1    0    0  501    0  0.00000000000E+00  0.00000000000E+00  0.11154968369E+04  0.11154968369E+04  0.50400000000E-02 0. -1.
         -1   -1    0    0    0  501 -0.00000000000E+00 -0.00000000000E+00 -0.27479916573E+04  0.27479916573E+04  0.50400000000E-02 0.  1.
    8880023    1    1    2    0    0  0.16356349025E+03 -0.12170697378E+04  0.42991094825E+03  0.14583022292E+04  0.65864270000E+03 0.  0.
    8880022    1    1    2    0    0 -0.16356349025E+03  0.12170697378E+04 -0.20624057687E+04  0.24051862650E+04  0.15294330000E+03 0.  0.
<mgrwt>
<rscale>  0 0.13527412E+04</rscale>
<asrwt>0</asrwt>
<pdfrwt beam="1">  1        1 0.17161490E+00 0.13934927E+04</pdfrwt>
<pdfrwt beam="2">  1       -1 0.42276795E+00 0.13934927E+04</pdfrwt>
<totfact> 0.59368819E-02</totfact>
</mgrwt>
</event>
<event>
 4    5  0.1074803E-007  0.8742152E+03  0.7818608E-02  0.9568761E-01
          1   -1    0    0  501    0  0.00000000000E+00  0.00000000000E+00  0.85522989185E+03  0.85522989187E+03  0.50400000000E-02 0. -1.
         -1   -1    0    0    0  501 -0.00000000000E+00 -0.00000000000E+00 -0.78506806817E+03  0.78506806819E+03  0.50400000000E-02 0.  1.
    8880023    1    1    2    0    0  0.48473559956E+03  0.30898763383E+03  0.39861147542E+03  0.96080345229E+03  0.65864270000E+03 0.  0.
    8880022    1    1    2    0    0 -0.48473559956E+03 -0.30898763383E+03 -0.32844965174E+03  0.67949450777E+03  0.15294330000E+03 0.  0.
<mgrwt>
<rscale>  0 0.79398745E+03</rscale>
<asrwt>0</asrwt>
<pdfrwt beam="1">  1        1 0.13157383E+00 0.87421517E+03</pdfrwt>
<pdfrwt beam="2">  1       -1 0.12077970E+00 0.87421517E+03</pdfrwt>
<totfact> 0.12263310E+01</totfact>
</mgrwt>
</event>
<event>
 4    5  0.1074803E-007  0.1126518E+04  0.7818608E-02  0.9232091E-01
         -1   -1    0    0    0  501 -0.00000000000E+00  0.00000000000E+00  0.12542654960E+04  0.12542654960E+04  0.50400000000E-02 0.  1.
          1   -1    0    0  501    0  0.00000000000E+00 -0.00000000000E+00 -0.12645338381E+04  0.12645338381E+04  0.50400000000E-02 0. -1.
    8880023    1    1    2    0    0 -0.74619212552E+03 -0.52766352747E+03 -0.73270435776E+03  0.13438368088E+04  0.65864270000E+03 0. -1.
    8880022    1    1    2    0    0  0.74619212552E+03  0.52766352747E+03  0.72243601564E+03  0.11749625254E+04  0.15294330000E+03 0.  0.
<mgrwt>
<rscale>  0 0.10728247E+04</rscale>
<asrwt>0</asrwt>
<pdfrwt beam="1">  1        1 0.19454367E+00 0.11265175E+04</pdfrwt>
<pdfrwt beam="2">  1       -1 0.19296392E+00 0.11265175E+04</pdfrwt>
<totfact> 0.15973482E+00</totfact>
</mgrwt>
</event>
<event>
 4    5  0.1074803E-007  0.6810238E+03  0.7818608E-02  0.1008750E+00
          1   -1    0    0  501    0  0.00000000000E+00  0.00000000000E+00  0.52845118718E+03  0.52845118720E+03  0.50400000000E-02 0. -1.
         -1   -1    0    0    0  501 -0.00000000000E+00 -0.00000000000E+00 -0.19805094398E+04  0.19805094398E+04  0.50400000000E-02 0.  1.
    8880023    1    1    2    0    0 -0.17075666247E+03 -0.28730267417E+02  0.29825119631E+03  0.74346973604E+03  0.65864270000E+03 0. -1.
    8880022    1    1    2    0    0  0.17075666247E+03  0.28730267417E+02 -0.17503094490E+04  0.17654908910E+04  0.15294330000E+03 0.  0.
<mgrwt>
<rscale>  0 0.51974329E+03</rscale>
<asrwt>0</asrwt>
<pdfrwt beam="1">  1        1 0.81300184E-01 0.68102384E+03</pdfrwt>
<pdfrwt beam="2">  1       -1 0.30469376E+00 0.68102384E+03</pdfrwt>
<totfact> 0.13503704E+00</totfact>
</mgrwt>
</event>
<event>
 4    5  0.1074803E-007  0.8828527E+03  0.7818608E-02  0.9554139E-01
          1   -1    0    0  501    0  0.00000000000E+00  0.00000000000E+00  0.10604962978E+04  0.10604962978E+04  0.50400000000E-02 0. -1.
         -1   -1    0    0    0  501 -0.00000000000E+00 -0.00000000000E+00 -0.13573814633E+04  0.13573814633E+04  0.50400000000E-02 0.  1.
    8880023    1    1    2    0    0  0.58490851860E+03  0.59167394140E+02  0.78222537767E+03  0.11795361391E+04  0.65864270000E+03 0.  0.
    8880022    1    1    2    0    0 -0.58490851860E+03 -0.59167394140E+02 -0.10791105431E+04  0.12383416221E+04  0.15294330000E+03 0.  1.
<mgrwt>
<rscale>  0 0.80407402E+03</rscale>
<asrwt>0</asrwt>
<pdfrwt beam="1">  1        1 0.16315328E+00 0.88285274E+03</pdfrwt>
<pdfrwt beam="2">  1       -1 0.20882792E+00 0.88285274E+03</pdfrwt>
<totfact> 0.18180777E+00</totfact>
</mgrwt>
</event>
<event>
 4    5  0.1074803E-007  0.7637315E+03  0.7818608E-02  0.9795541E-01
         -1   -1    0    0    0  501 -0.00000000000E+00  0.00000000000E+00  0.15365118973E+04  0.15365118973E+04  0.50400000000E-02 0.  1.
          1   -1    0    0  501    0  0.00000000000E+00 -0.00000000000E+00 -0.14746906702E+04  0.14746906702E+04  0.50400000000E-02 0. -1.
    8880023    1    1    2    0    0  0.30857041277E+03  0.23293761128E+03 -0.13436429437E+04  0.15455297464E+04  0.65864270000E+03 0. -1.
    8880022    1    1    2    0    0 -0.30857041277E+03 -0.23293761128E+03  0.14054641708E+04  0.14656728212E+04  0.15294330000E+03 0.  0.
<mgrwt>
<rscale>  0 0.65602386E+03</rscale>
<asrwt>0</asrwt>
<pdfrwt beam="1">  1        1 0.22687549E+00 0.76373152E+03</pdfrwt>
<pdfrwt beam="2">  1       -1 0.23638645E+00 0.76373152E+03</pdfrwt>
<totfact> 0.61561897E-01</totfact>
</mgrwt>
</event>
<event>
 4    5  0.1074803E-007  0.6907594E+03  0.7818608E-02  0.1003794E+00
          1   -1    0    0  501    0  0.00000000000E+00  0.00000000000E+00  0.13338220099E+04  0.13338220099E+04  0.50400000000E-02 0. -1.
         -1   -1    0    0    0  501 -0.00000000000E+00 -0.00000000000E+00 -0.49824748912E+03  0.49824748914E+03  0.50400000000E-02 0.  1.
    8880023    1    1    2    0    0 -0.71207227926E+02  0.19562189760E+03  0.12004538175E+04  0.13850046824E+04  0.65864270000E+03 0. -1.
    8880022    1    1    2    0    0  0.71207227926E+02 -0.19562189760E+03 -0.36487929668E+03  0.44706481666E+03  0.15294330000E+03 0.  0.
<mgrwt>
<rscale>  0 0.54017602E+03</rscale>
<asrwt>0</asrwt>
<pdfrwt beam="1">  1        1 0.20520338E+00 0.69075944E+03</pdfrwt>
<pdfrwt beam="2">  1       -1 0.76653461E-01 0.69075944E+03</pdfrwt>
<totfact> 0.15239657E+01</totfact>
</mgrwt>
</event>
<event>
 4    5  0.1074803E-007  0.7524006E+03  0.7818608E-02  0.9825194E-01
         -1   -1    0    0    0  501 -0.00000000000E+00  0.00000000000E+00  0.35915280919E+03  0.35915280922E+03  0.50400000000E-02 0.  1.
          1   -1    0    0  501    0  0.00000000000E+00 -0.00000000000E+00 -0.28165094430E+04  0.28165094430E+04  0.50400000000E-02 0. -1.
    8880023    1    1    2    0    0 -0.28877283157E+03  0.22114874301E+03 -0.26369125232E+04  0.27421550606E+04  0.65864270000E+03 0. -1.
    8880022    1    1    2    0    0  0.28877283157E+03 -0.22114874301E+03  0.17955588941E+03  0.43350719166E+03  0.15294330000E+03 0.  0.
<mgrwt>
<rscale>  0 0.64027835E+03</rscale>
<asrwt>0</asrwt>
<pdfrwt beam="1">  1        1 0.43330913E+00 0.75240064E+03</pdfrwt>
<pdfrwt beam="2">  1       -1 0.55254280E-01 0.75240064E+03</pdfrwt>
<totfact> 0.28681323E+00</totfact>
</mgrwt>
</event>
<event>
 4    5  0.1074803E-007  0.9866883E+03  0.7818608E-02  0.9399184E-01
          1   -1    0    0  501    0  0.00000000000E+00  0.00000000000E+00  0.18689361921E+04  0.18689361921E+04  0.50400000000E-02 0. -1.
         -1   -1    0    0    0  501 -0.00000000000E+00 -0.00000000000E+00 -0.88662539834E+03  0.88662539835E+03  0.50400000000E-02 0.  1.
    8880023    1    1    2    0    0 -0.70675659402E+03 -0.20059595395E+03  0.15341672669E+04  0.18240677151E+04  0.65864270000E+03 0. -1.
    8880022    1    1    2    0    0  0.70675659402E+03  0.20059595395E+03 -0.55185647316E+03  0.93149387541E+03  0.15294330000E+03 0.  0.
<mgrwt>
<rscale>  0 0.92142837E+03</rscale>
<asrwt>0</asrwt>
<pdfrwt beam="1">  1        1 0.28752864E+00 0.98668831E+03</pdfrwt>
<pdfrwt beam="2">  1       -1 0.13640391E+00 0.98668831E+03</pdfrwt>
<totfact> 0.16590390E+00</totfact>
</mgrwt>
</event>
<event>
 4    5  0.1074803E-007  0.9778645E+03  0.7818608E-02  0.9411108E-01
         -1   -1    0    0    0  501 -0.00000000000E+00  0.00000000000E+00  0.52148172237E+03  0.52148172239E+03  0.50400000000E-02 0.  1.
          1   -1    0    0  501    0  0.00000000000E+00 -0.00000000000E+00 -0.15367665047E+04  0.15367665048E+04  0.50400000000E-02 0. -1.
    8880023    1    1    2    0    0  0.37126047374E+01 -0.72276902645E+03 -0.86237701678E+03  0.13038071845E+04  0.65864270000E+03 0.  0.
    8880022    1    1    2    0    0 -0.37126047374E+01  0.72276902645E+03 -0.15290776559E+03  0.75444104264E+03  0.15294330000E+03 0.  0.
<mgrwt>
<rscale>  0 0.91167126E+03</rscale>
<asrwt>0</asrwt>
<pdfrwt beam="1">  1        1 0.23642561E+00 0.97786454E+03</pdfrwt>
<pdfrwt beam="2">  1       -1 0.80227958E-01 0.97786454E+03</pdfrwt>
<totfact> 0.96479971E+00</totfact>
</mgrwt>
</event>
<event>
 4    5  0.1074803E-007  0.6711204E+03  0.7818608E-02  0.1014872E+00
          1   -1    0    0  501    0  0.00000000000E+00  0.00000000000E+00  0.16038289103E+04  0.16038289103E+04  0.50400000000E-02 0. -1.
         -1   -1    0    0    0  501 -0.00000000000E+00 -0.00000000000E+00 -0.43411488738E+03  0.43411488740E+03  0.50400000000E-02 0.  1.
    8880023    1    1    2    0    0  0.11505855319E+03 -0.57912541536E+02  0.15048324442E+04  0.16477024078E+04  0.65864270000E+03 0. -1.
    8880022    1    1    2    0    0 -0.11505855319E+03  0.57912541536E+02 -0.33511842129E+03  0.39024138995E+03  0.15294330000E+03 0.  0.
<mgrwt>
<rscale>  0 0.49583374E+03</rscale>
<asrwt>0</asrwt>
<pdfrwt beam="1">  1        1 0.24674291E+00 0.67112036E+03</pdfrwt>
<pdfrwt beam="2">  1       -1 0.66786906E-01 0.67112036E+03</pdfrwt>
<totfact> 0.13241310E+01</totfact>
</mgrwt>
</event>
<event>
 4    5  0.1074803E-007  0.7061418E+03  0.7818608E-02  0.9972617E-01
         -1   -1    0    0    0  501 -0.00000000000E+00  0.00000000000E+00  0.48338744978E+03  0.48338744981E+03  0.50400000000E-02 0.  1.
          1   -1    0    0  501    0  0.00000000000E+00 -0.00000000000E+00 -0.16147513242E+04  0.16147513242E+04  0.50400000000E-02 0. -1.
    8880023    1    1    2    0    0  0.99908560349E+02  0.23418869966E+03 -0.14801861369E+04  0.16399961200E+04  0.65864270000E+03 0. -1.
    8880022    1    1    2    0    0 -0.99908560349E+02 -0.23418869966E+03  0.34882226256E+03  0.45814265393E+03  0.15294330000E+03 0.  0.
<mgrwt>
<rscale>  0 0.56867407E+03</rscale>
<asrwt>0</asrwt>
<pdfrwt beam="1">  1        1 0.24842328E+00 0.70614182E+03</pdfrwt>
<pdfrwt beam="2">  1       -1 0.74367301E-01 0.70614182E+03</pdfrwt>
<totfact> 0.10387269E+01</totfact>
</mgrwt>
</event>
<event>
 4    5  0.1074803E-007  0.6909442E+03  0.7818608E-02  0.1003707E+00
          1   -1    0    0  501    0  0.00000000000E+00  0.00000000000E+00  0.25768092267E+04  0.25768092267E+04  0.50400000000E-02 0. -1.
         -1   -1    0    0    0  501 -0.00000000000E+00 -0.00000000000E+00 -0.13028030703E+03  0.13028030713E+03  0.50400000000E-02 0.  1.
    8880023    1    1    2    0    0 -0.20437670242E+03 -0.42706432466E+02  0.23166921484E+04  0.24175331213E+04  0.65864270000E+03 0. -1.
    8880022    1    1    2    0    0  0.20437670242E+03  0.42706432466E+02  0.12983677132E+03  0.28955641258E+03  0.15294330000E+03 0.  0.
<mgrwt>
<rscale>  0 0.54054231E+03</rscale>
<asrwt>0</asrwt>
<pdfrwt beam="1">  1        1 0.39643217E+00 0.69094420E+03</pdfrwt>
<pdfrwt beam="2">  1       -1 0.20043125E-01 0.69094420E+03</pdfrwt>
<totfact> 0.25786995E+01</totfact>
</mgrwt>
</event>
<event>
 4    5  0.1074803E-007  0.6716664E+03  0.7818608E-02  0.1014495E+00
          1   -1    0    0  501    0  0.00000000000E+00  0.00000000000E+00  0.10357687733E+04  0.10357687733E+04  0.50400000000E-02 0. -1.
         -1   -1    0    0    0  501 -0.00000000000E+00 -0.00000000000E+00 -0.55096338426E+03  0.55096338429E+03  0.50400000000E-02 0.  1.
    8880023    1    1    2    0    0  0.31120328057E+02 -0.12789464821E+03  0.90123293324E+03  0.11239913354E+04  0.65864270000E+03 0. -1.
    8880022    1    1    2    0    0 -0.31120328057E+02  0.12789464821E+03 -0.41642754424E+03  0.46274082215E+03  0.15294330000E+03 0.  0.
<mgrwt>
<rscale>  0 0.49726444E+03</rscale>
<asrwt>0</asrwt>
<pdfrwt beam="1">  1        1 0.15934904E+00 0.67166638E+03</pdfrwt>
<pdfrwt beam="2">  1       -1 0.84763598E-01 0.67166638E+03</pdfrwt>
<totfact> 0.20328412E+01</totfact>
</mgrwt>
</event>
<event>
 4    5  0.1074803E-007  0.6618782E+03  0.7818608E-02  0.1022310E+00
          1   -1    0    0  501    0  0.00000000000E+00  0.00000000000E+00  0.49521739664E+03  0.49521739666E+03  0.50400000000E-02 0. -1.
         -1   -1    0    0    0  501 -0.00000000000E+00 -0.00000000000E+00 -0.51292888613E+03  0.51292888615E+03  0.50400000000E-02 0.  1.
    8880023    1    1    2    0    0 -0.64325927457E+02 -0.11607108769E+02  0.23777298407E+03  0.70329136788E+03  0.65864270000E+03 0. -1.
    8880022    1    1    2    0    0  0.64325927457E+02  0.11607108769E+02 -0.25548447356E+03  0.30485491494E+03  0.15294330000E+03 0.  0.
<mgrwt>
<rscale>  0 0.46862271E+03</rscale>
<asrwt>0</asrwt>
<pdfrwt beam="1">  1        1 0.76187291E-01 0.66187820E+03</pdfrwt>
<pdfrwt beam="2">  1       -1 0.78912137E-01 0.66187820E+03</pdfrwt>
<totfact> 0.74047447E+01</totfact>
</mgrwt>
</event>
<event>
 4    5  0.1074803E-007  0.9214684E+03  0.7818608E-02  0.9492411E-01
          1   -1    0    0  501    0  0.00000000000E+00  0.00000000000E+00  0.20149427832E+04  0.20149427832E+04  0.50400000000E-02 0. -1.
         -1   -1    0    0    0  501 -0.00000000000E+00 -0.00000000000E+00 -0.44313661272E+03  0.44313661274E+03  0.50400000000E-02 0.  1.
    8880023    1    1    2    0    0 -0.16373489554E+03  0.62328546355E+03  0.15404327202E+04  0.17950033585E+04  0.65864270000E+03 0. -1.
    8880022    1    1    2    0    0  0.16373489554E+03 -0.62328546355E+03  0.31373450252E+02  0.66307603748E+03  0.15294330000E+03 0.  0.
<mgrwt>
<rscale>  0 0.84845637E+03</rscale>
<asrwt>0</asrwt>
<pdfrwt beam="1">  1        1 0.30999119E+00 0.92146844E+03</pdfrwt>
<pdfrwt beam="2">  1       -1 0.68174865E-01 0.92146844E+03</pdfrwt>
<totfact> 0.64798076E+00</totfact>
</mgrwt>
</event>
<event>
 4    5  0.1074803E-007  0.9316709E+03  0.7818608E-02  0.9476991E-01
          1   -1    0    0  501    0  0.00000000000E+00  0.00000000000E+00  0.43802353612E+04  0.43802353613E+04  0.50400000000E-02 0. -1.
         -1   -1    0    0    0  501 -0.00000000000E+00 -0.00000000000E+00 -0.57247222057E+03  0.57247222059E+03  0.50400000000E-02 0.  1.
    8880023    1    1    2    0    0  0.54103836299E+03  0.37613543791E+03  0.41082120004E+04  0.42125308812E+04  0.65864270000E+03 0.  0.
    8880022    1    1    2    0    0 -0.54103836299E+03 -0.37613543791E+03 -0.30044885977E+03  0.74017670068E+03  0.15294330000E+03 0.  0.
<mgrwt>
<rscale>  0 0.86001631E+03</rscale>
<asrwt>0</asrwt>
<pdfrwt beam="1">  1        1 0.67388235E+00 0.93167086E+03</pdfrwt>
<pdfrwt beam="2">  1       -1 0.88072651E-01 0.93167086E+03</pdfrwt>
<totfact> 0.58460452E-02</totfact>
</mgrwt>
</event>
<event>
 4    5  0.1074803E-007  0.1155343E+04  0.7818608E-02  0.9201804E-01
         -1   -1    0    0    0  501 -0.00000000000E+00  0.00000000000E+00  0.70978881906E+03  0.70978881908E+03  0.50400000000E-02 0.  1.
          1   -1    0    0  501    0  0.00000000000E+00 -0.00000000000E+00 -0.29249778855E+04  0.29249778855E+04  0.50400000000E-02 0. -1.
    8880023    1    1    2    0    0  0.34982618474E+03  0.88239966953E+03 -0.23927243020E+04  0.26570561394E+04  0.65864270000E+03 0.  0.
    8880022    1    1    2    0    0 -0.34982618474E+03 -0.88239966953E+03  0.17753523560E+03  0.97771056515E+03  0.15294330000E+03 0.  0.
<mgrwt>
<rscale>  0 0.11034831E+04</rscale>
<asrwt>0</asrwt>
<pdfrwt beam="1">  1        1 0.44999659E+00 0.11553431E+04</pdfrwt>
<pdfrwt beam="2">  1       -1 0.10919828E+00 0.11553431E+04</pdfrwt>
<totfact> 0.52674818E-01</totfact>
</mgrwt>
</event>
<event>
 4    5  0.1074803E-007  0.7565129E+03  0.7818608E-02  0.9814220E-01
         -1   -1    0    0    0  501 -0.00000000000E+00  0.00000000000E+00  0.26044560555E+04  0.26044560555E+04  0.50400000000E-02 0.  1.
          1   -1    0    0  501    0  0.00000000000E+00 -0.00000000000E+00 -0.58657698160E+03  0.58657698162E+03  0.50400000000E-02 0. -1.
    8880023    1    1    2    0    0 -0.19985179048E+03 -0.31394408038E+03 -0.31808907212E+03  0.82066588075E+03  0.65864270000E+03 0. -1.
    8880022    1    1    2    0    0  0.19985179048E+03  0.31394408038E+03  0.23359681460E+04  0.23703671564E+04  0.15294330000E+03 0.  0.
<mgrwt>
<rscale>  0 0.64604962E+03</rscale>
<asrwt>0</asrwt>
<pdfrwt beam="1">  1        1 0.90242614E-01 0.75651294E+03</pdfrwt>
<pdfrwt beam="2">  1       -1 0.40068554E+00 0.75651294E+03</pdfrwt>
<totfact> 0.26887001E-01</totfact>
</mgrwt>
</event>
<event>
 4    5  0.2002011E-007  0.1171988E+04  0.7818608E-02  0.9184844E-01
         -1   -1    0    0    0  501 -0.00000000000E+00  0.00000000000E+00  0.11131494493E+04  0.11131494493E+04  0.50400000000E-02 0.  1.
          1   -1    0    0  501    0  0.00000000000E+00 -0.00000000000E+00 -0.29296412155E+04  0.29296412155E+04  0.50400000000E-02 0. -1.
    8880023    1    1    2    0    0 -0.39916931981E+03 -0.88340823730E+03 -0.25573775382E+04  0.28131363882E+04  0.65864270000E+03 0. -1.
    8880022    1    1    2    0    0  0.39916931981E+03  0.88340823730E+03  0.74088577202E+03  0.12296542765E+04  0.15294330000E+03 0.  0.
<mgrwt>
<rscale>  0 0.11211236E+04</rscale>
<asrwt>0</asrwt>
<pdfrwt beam="1">  1        1 0.45071403E+00 0.11719883E+04</pdfrwt>
<pdfrwt beam="2">  1       -1 0.17125376E+00 0.11719883E+04</pdfrwt>
<totfact> 0.16128948E-01</totfact>
</mgrwt>
</event>
<event>
 4    5  0.1074803E-007  0.8195107E+03  0.7818608E-02  0.9670097E-01
          1   -1    0    0  501    0  0.00000000000E+00  0.00000000000E+00  0.63352838152E+03  0.63352838154E+03  0.50400000000E-02 0. -1.
         -1   -1    0    0    0  501 -0.00000000000E+00 -0.00000000000E+00 -0.13047197386E+04  0.13047197386E+04  0.50400000000E-02 0.  1.
    8880023    1    1    2    0    0 -0.40833408417E+03 -0.26655366843E+03  0.27369741397E+03  0.86400698095E+03  0.65864270000E+03 0. -1.
    8880022    1    1    2    0    0  0.40833408417E+03  0.26655366843E+03 -0.94488877102E+03  0.10742411392E+04  0.15294330000E+03 0.  0.
<mgrwt>
<rscale>  0 0.72825471E+03</rscale>
<asrwt>0</asrwt>
<pdfrwt beam="1">  1        1 0.97465906E-01 0.81951070E+03</pdfrwt>
<pdfrwt beam="2">  1       -1 0.20072611E+00 0.81951070E+03</pdfrwt>
<totfact> 0.48305386E+00</totfact>
</mgrwt>
</event>
<event>
 4    5  0.1074803E-007  0.8748142E+03  0.7818608E-02  0.9567736E-01
          1   -1    0    0  501    0  0.00000000000E+00  0.00000000000E+00  0.72794282608E+03  0.72794282610E+03  0.50400000000E-02 0. -1.
         -1   -1    0    0    0  501 -0.00000000000E+00 -0.00000000000E+00 -0.14297504863E+04  0.14297504864E+04  0.50400000000E-02 0.  1.
    8880023    1    1    2    0    0 -0.36862475538E+03 -0.44227302437E+03  0.35535842934E+03  0.94423485317E+03  0.65864270000E+03 0.  0.
    8880022    1    1    2    0    0  0.36862475538E+03  0.44227302437E+03 -0.10571660896E+04  0.12134584593E+04  0.15294330000E+03 0.  0.
<mgrwt>
<rscale>  0 0.79468908E+03</rscale>
<asrwt>0</asrwt>
<pdfrwt beam="1">  1        1 0.11199120E+00 0.87481418E+03</pdfrwt>
<pdfrwt beam="2">  1       -1 0.21996161E+00 0.87481418E+03</pdfrwt>
<totfact> 0.28864886E+00</totfact>
</mgrwt>
</event>
<event>
 4    5  0.1074803E-007  0.8638751E+03  0.7818608E-02  0.9586707E-01
          1   -1    0    0  501    0  0.00000000000E+00  0.00000000000E+00  0.89502717300E+03  0.89502717302E+03  0.50400000000E-02 0. -1.
         -1   -1    0    0    0  501 -0.00000000000E+00 -0.00000000000E+00 -0.17127623362E+04  0.17127623362E+04  0.50400000000E-02 0.  1.
    8880023    1    1    2    0    0  0.48426856246E+03  0.27920232180E+03  0.61623102987E+03  0.10611413033E+04  0.65864270000E+03 0.  0.
    8880022    1    1    2    0    0 -0.48426856246E+03 -0.27920232180E+03 -0.14339661930E+04  0.15466482059E+04  0.15294330000E+03 0.  0.
<mgrwt>
<rscale>  0 0.78182268E+03</rscale>
<asrwt>0</asrwt>
<pdfrwt beam="1">  1        1 0.13769649E+00 0.86387510E+03</pdfrwt>
<pdfrwt beam="2">  1       -1 0.26350190E+00 0.86387510E+03</pdfrwt>
<totfact> 0.10781637E+00</totfact>
</mgrwt>
</event>
<event>
 4    5  0.1074803E-007  0.6741931E+03  0.7818608E-02  0.1012820E+00
          1   -1    0    0  501    0  0.00000000000E+00  0.00000000000E+00  0.23604497725E+04  0.23604497725E+04  0.50400000000E-02 0. -1.
         -1   -1    0    0    0  501 -0.00000000000E+00 -0.00000000000E+00 -0.84233648833E+02  0.84233648984E+02  0.50400000000E-02 0.  1.
    8880023    1    1    2    0    0 -0.90824173956E+02 -0.11170111809E+03  0.15897164645E+04  0.17267700524E+04  0.65864270000E+03 0.  1.
    8880022    1    1    2    0    0  0.90824173956E+02  0.11170111809E+03  0.68649965919E+03  0.71791336904E+03  0.15294330000E+03 0.  1.
<mgrwt>
<rscale>  0 0.50369194E+03</rscale>
<asrwt>0</asrwt>
<pdfrwt beam="1">  1        1 0.36314608E+00 0.67419313E+03</pdfrwt>
<pdfrwt beam="2">  1       -1 0.12959024E-01 0.67419313E+03</pdfrwt>
<totfact> 0.73949104E+01</totfact>
</mgrwt>
</event>
<event>
 4    5  0.1074803E-007  0.1166311E+04  0.7818608E-02  0.9190587E-01
          1   -1    0    0  501    0  0.00000000000E+00  0.00000000000E+00  0.13501632509E+04  0.13501632509E+04  0.50400000000E-02 0. -1.
         -1   -1    0    0    0  501 -0.00000000000E+00 -0.00000000000E+00 -0.10902923329E+04  0.10902923330E+04  0.50400000000E-02 0.  1.
    8880023    1    1    2    0    0  0.89455121536E+03  0.35531521797E+03  0.71159163268E+03  0.13662516748E+04  0.65864270000E+03 0.  0.
    8880022    1    1    2    0    0 -0.89455121536E+03 -0.35531521797E+03 -0.45172071473E+03  0.10742039090E+04  0.15294330000E+03 0.  0.
<mgrwt>
<rscale>  0 0.11151116E+04</rscale>
<asrwt>0</asrwt>
<pdfrwt beam="1">  1        1 0.20771742E+00 0.11663108E+04</pdfrwt>
<pdfrwt beam="2">  1       -1 0.16773728E+00 0.11663108E+04</pdfrwt>
<totfact> 0.20965770E+00</totfact>
</mgrwt>
</event>
<event>
 4    5  0.1074803E-007  0.1940629E+04  0.7818608E-02  0.8648492E-01
         -1   -1    0    0    0  501 -0.00000000000E+00  0.00000000000E+00  0.12788689755E+04  0.12788689755E+04  0.50400000000E-02 0.  1.
          1   -1    0    0  501    0  0.00000000000E+00 -0.00000000000E+00 -0.38796974773E+04  0.38796974773E+04  0.50400000000E-02 0. -1.
    8880023    1    1    2    0    0 -0.18006580543E+04 -0.29976625947E+03 -0.26988289686E+04  0.33241114974E+04  0.65864270000E+03 0.  0.
    8880022    1    1    2    0    0  0.18006580543E+04  0.29976625947E+03  0.98000466808E+02  0.18344549554E+04  0.15294330000E+03 0.  0.
<mgrwt>
<rscale>  0 0.19128391E+04</rscale>
<asrwt>0</asrwt>
<pdfrwt beam="1">  1        1 0.59687653E+00 0.19406286E+04</pdfrwt>
<pdfrwt beam="2">  1       -1 0.19674907E+00 0.19406286E+04</pdfrwt>
<totfact> 0.17443017E-02</totfact>
</mgrwt>
</event>
<event>
 4    5  0.1074803E-007  0.7516194E+03  0.7818608E-02  0.9827308E-01
         -1   -1    0    0    0  501 -0.00000000000E+00  0.00000000000E+00  0.14334314226E+04  0.14334314226E+04  0.50400000000E-02 0.  1.
          1   -1    0    0  501    0  0.00000000000E+00 -0.00000000000E+00 -0.10559405943E+04  0.10559405943E+04  0.50400000000E-02 0. -1.
    8880023    1    1    2    0    0  0.30380395260E+03 -0.19703981452E+03 -0.88849361388E+03  0.11637665738E+04  0.65864270000E+03 0. -1.
    8880022    1    1    2    0    0 -0.30380395260E+03  0.19703981452E+03  0.12659844422E+04  0.13256054432E+04  0.15294330000E+03 0.  0.
<mgrwt>
<rscale>  0 0.63917412E+03</rscale>
<asrwt>0</asrwt>
<pdfrwt beam="1">  1        1 0.16245240E+00 0.75161941E+03</pdfrwt>
<pdfrwt beam="2">  1       -1 0.22052791E+00 0.75161941E+03</pdfrwt>
<totfact> 0.15646259E+00</totfact>
</mgrwt>
</event>
<event>
 4    5  0.1074803E-007  0.7911827E+03  0.7818608E-02  0.9730195E-01
         -1   -1    0    0    0  501 -0.00000000000E+00  0.00000000000E+00  0.19692073163E+03  0.19692073170E+03  0.50400000000E-02 0.  1.
          1   -1    0    0  501    0  0.00000000000E+00 -0.00000000000E+00 -0.38375503327E+04  0.38375503327E+04  0.50400000000E-02 0. -1.
    8880023    1    1    2    0    0 -0.30523043404E+03  0.31463345737E+03 -0.34380720904E+04  0.35279327850E+04  0.65864270000E+03 0. -1.
    8880022    1    1    2    0    0  0.30523043404E+03 -0.31463345737E+03 -0.20255751065E+03  0.50653827940E+03  0.15294330000E+03 0.  0.
<mgrwt>
<rscale>  0 0.69247079E+03</rscale>
<asrwt>0</asrwt>
<pdfrwt beam="1">  1        1 0.59039230E+00 0.79118268E+03</pdfrwt>
<pdfrwt beam="2">  1       -1 0.30295500E-01 0.79118268E+03</pdfrwt>
<totfact> 0.14455189E+00</totfact>
</mgrwt>
</event>
<event>
 4    5  0.1374024E-007  0.6743740E+03  0.7818608E-02  0.1012704E+00
          1   -1    0    0  501    0  0.00000000000E+00  0.00000000000E+00  0.16744916252E+04  0.16744916252E+04  0.50400000000E-02 0. -1.
         -1   -1    0    0    0  501 -0.00000000000E+00 -0.00000000000E+00 -0.19055362081E+04  0.19055362081E+04  0.50400000000E-02 0.  1.
    8880023    1    1    2    0    0  0.45870138339E+02  0.13735366568E+03  0.16003117584E+04  0.17365995594E+04  0.65864270000E+03 0. -1.
    8880022    1    1    2    0    0 -0.45870138339E+02 -0.13735366568E+03 -0.18313563414E+04  0.18434282739E+04  0.15294330000E+03 0.  0.
<mgrwt>
<rscale>  0 0.50414064E+03</rscale>
<asrwt>0</asrwt>
<pdfrwt beam="1">  1        1 0.25761410E+00 0.67437401E+03</pdfrwt>
<pdfrwt beam="2">  1       -1 0.29315942E+00 0.67437401E+03</pdfrwt>
<totfact> 0.19909595E-01</totfact>
</mgrwt>
</event>
<event>
 4    5  0.1074803E-007  0.6710798E+03  0.7818608E-02  0.1014900E+00
         -1   -1    0    0    0  501 -0.00000000000E+00  0.00000000000E+00  0.10228986642E+04  0.10228986642E+04  0.50400000000E-02 0.  1.
          1   -1    0    0  501    0  0.00000000000E+00 -0.00000000000E+00 -0.53975249717E+03  0.53975249720E+03  0.50400000000E-02 0. -1.
    8880023    1    1    2    0    0 -0.95808328977E+02 -0.85782597813E+02 -0.31395237273E+03  0.74088743315E+03  0.65864270000E+03 0. -1.
    8880022    1    1    2    0    0  0.95808328977E+02  0.85782597813E+02  0.79709853976E+03  0.82176372827E+03  0.15294330000E+03 0.  0.
<mgrwt>
<rscale>  0 0.49572682E+03</rscale>
<asrwt>0</asrwt>
<pdfrwt beam="1">  1        1 0.83038847E-01 0.67107980E+03</pdfrwt>
<pdfrwt beam="2">  1       -1 0.15736902E+00 0.67107980E+03</pdfrwt>
<totfact> 0.12670781E+01</totfact>
</mgrwt>
</event>
<event>
 4    5  0.1074803E-007  0.7690267E+03  0.7818608E-02  0.9782275E-01
         -1   -1    0    0    0  501 -0.00000000000E+00  0.00000000000E+00  0.13832692415E+04  0.13832692416E+04  0.50400000000E-02 0.  1.
          1   -1    0    0  501    0  0.00000000000E+00 -0.00000000000E+00 -0.19655596412E+04  0.19655596412E+04  0.50400000000E-02 0. -1.
    8880023    1    1    2    0    0  0.17460414089E+03  0.35651816093E+03 -0.18543641422E+04  0.20075030220E+04  0.65864270000E+03 0. -1.
    8880022    1    1    2    0    0 -0.17460414089E+03 -0.35651816093E+03  0.12720737426E+04  0.13413258607E+04  0.15294330000E+03 0.  0.
<mgrwt>
<rscale>  0 0.66322503E+03</rscale>
<asrwt>0</asrwt>
<pdfrwt beam="1">  1        1 0.30239379E+00 0.76902666E+03</pdfrwt>
<pdfrwt beam="2">  1       -1 0.21281065E+00 0.76902666E+03</pdfrwt>
<totfact> 0.41060644E-01</totfact>
</mgrwt>
</event>
<event>
 4    5  0.1074803E-007  0.8830382E+03  0.7818608E-02  0.9553828E-01
         -1   -1    0    0    0  501 -0.00000000000E+00  0.00000000000E+00  0.63137884162E+03  0.63137884164E+03  0.50400000000E-02 0.  1.
          1   -1    0    0  501    0  0.00000000000E+00 -0.00000000000E+00 -0.16698892682E+04  0.16698892682E+04  0.50400000000E-02 0. -1.
    8880023    1    1    2    0    0  0.39720436539E+03 -0.43379139626E+03 -0.13540200523E+04  0.16165168702E+04  0.65864270000E+03 0.  0.
    8880022    1    1    2    0    0 -0.39720436539E+03  0.43379139626E+03  0.31550962567E+03  0.68475123969E+03  0.15294330000E+03 0.  0.
<mgrwt>
<rscale>  0 0.80428990E+03</rscale>
<asrwt>0</asrwt>
<pdfrwt beam="1">  1        1 0.25690604E+00 0.88303822E+03</pdfrwt>
<pdfrwt beam="2">  1       -1 0.97135207E-01 0.88303822E+03</pdfrwt>
<totfact> 0.52057172E+00</totfact>
</mgrwt>
</event>
<event>
 4    5  0.1074803E-007  0.8243064E+03  0.7818608E-02  0.9660514E-01
         -1   -1    0    0    0  501 -0.00000000000E+00  0.00000000000E+00  0.78127418029E+03  0.78127418030E+03  0.50400000000E-02 0.  1.
          1   -1    0    0  501    0  0.00000000000E+00 -0.00000000000E+00 -0.16896185490E+04  0.16896185490E+04  0.50400000000E-02 0. -1.
    8880023    1    1    2    0    0 -0.15248139855E+03  0.47161456427E+03 -0.14830368624E+04  0.16967260874E+04  0.65864270000E+03 0. -1.
    8880022    1    1    2    0    0  0.15248139855E+03 -0.47161456427E+03  0.57469249369E+03  0.77416664191E+03  0.15294330000E+03 0.  0.
<mgrwt>
<rscale>  0 0.73417259E+03</rscale>
<asrwt>0</asrwt>
<pdfrwt beam="1">  1        1 0.25994131E+00 0.82430642E+03</pdfrwt>
<pdfrwt beam="2">  1       -1 0.12019603E+00 0.82430642E+03</pdfrwt>
<totfact> 0.30880548E+00</totfact>
</mgrwt>
</event>
<event>
 4    5  0.1074803E-007  0.6987919E+03  0.7818608E-02  0.1000225E+00
         -1   -1    0    0    0  501 -0.00000000000E+00  0.00000000000E+00  0.25974776183E+03  0.25974776188E+03  0.50400000000E-02 0.  1.
          1   -1    0    0  501    0  0.00000000000E+00 -0.00000000000E+00 -0.17383760422E+04  0.17383760422E+04  0.50400000000E-02 0. -1.
    8880023    1    1    2    0    0  0.22075170547E+03  0.75951085378E+02 -0.15583638592E+04  0.17078665073E+04  0.65864270000E+03 0. -1.
    8880022    1    1    2    0    0 -0.22075170547E+03 -0.75951085378E+02  0.79735578760E+02  0.29025729685E+03  0.15294330000E+03 0.  0.
<mgrwt>
<rscale>  0 0.55551676E+03</rscale>
<asrwt>0</asrwt>
<pdfrwt beam="1">  1        1 0.26744246E+00 0.69879188E+03</pdfrwt>
<pdfrwt beam="2">  1       -1 0.39961195E-01 0.69879188E+03</pdfrwt>
<totfact> 0.28528184E+01</totfact>
</mgrwt>
</event>
<event>
 4    5  0.1074803E-007  0.9543555E+03  0.7818608E-02  0.9443875E-01
          1   -1    0    0  501    0  0.00000000000E+00  0.00000000000E+00  0.18265346426E+04  0.18265346426E+04  0.50400000000E-02 0. -1.
         -1   -1    0    0    0  501 -0.00000000000E+00 -0.00000000000E+00 -0.51441379222E+03  0.51441379224E+03  0.50400000000E-02 0.  1.
    8880023    1    1    2    0    0 -0.52184830166E+03  0.45239213584E+03  0.13256518611E+04  0.16334464661E+04  0.65864270000E+03 0. -1.
    8880022    1    1    2    0    0  0.52184830166E+03 -0.45239213584E+03 -0.13531010731E+02  0.70750196874E+03  0.15294330000E+03 0.  0.
<mgrwt>
<rscale>  0 0.88551251E+03</rscale>
<asrwt>0</asrwt>
<pdfrwt beam="1">  1        1 0.28100533E+00 0.95435554E+03</pdfrwt>
<pdfrwt beam="2">  1       -1 0.79140583E-01 0.95435554E+03</pdfrwt>
<totfact> 0.63319946E+00</totfact>
</mgrwt>
</event>
<event>
 4    5  0.1074803E-007  0.6634438E+03  0.7818608E-02  0.1020876E+00
          1   -1    0    0  501    0  0.00000000000E+00  0.00000000000E+00  0.25753372466E+03  0.25753372471E+03  0.50400000000E-02 0. -1.
         -1   -1    0    0    0  501 -0.00000000000E+00 -0.00000000000E+00 -0.79379854041E+03  0.79379854043E+03  0.50400000000E-02 0.  1.
    8880023    1    1    2    0    0 -0.44660236970E+02 -0.65977084200E+02 -0.23431290352E+03  0.70360518434E+03  0.65864270000E+03 0. -1.
    8880022    1    1    2    0    0  0.44660236970E+02  0.65977084200E+02 -0.30195191223E+03  0.34772708080E+03  0.15294330000E+03 0.  0.
<mgrwt>
<rscale>  0 0.47371727E+03</rscale>
<asrwt>0</asrwt>
<pdfrwt beam="1">  1        1 0.39620573E-01 0.66344383E+03</pdfrwt>
<pdfrwt beam="2">  1       -1 0.12212285E+00 0.66344383E+03</pdfrwt>
<totfact> 0.65012956E+01</totfact>
</mgrwt>
</event>
<event>
 4    5  0.1074803E-007  0.9959804E+03  0.7818608E-02  0.9386836E-01
          1   -1    0    0  501    0  0.00000000000E+00  0.00000000000E+00  0.10817303085E+04  0.10817303085E+04  0.50400000000E-02 0. -1.
         -1   -1    0    0    0  501 -0.00000000000E+00 -0.00000000000E+00 -0.11443214399E+04  0.11443214399E+04  0.50400000000E-02 0.  1.
    8880023    1    1    2    0    0  0.31999463775E+02 -0.74641997272E+03  0.64430502198E+03  0.11862149506E+04  0.65864270000E+03 0.  0.
    8880022    1    1    2    0    0 -0.31999463775E+02  0.74641997272E+03 -0.70689615342E+03  0.10398367978E+04  0.15294330000E+03 0.  0.
<mgrwt>
<rscale>  0 0.93167032E+03</rscale>
<asrwt>0</asrwt>
<pdfrwt beam="1">  1        1 0.16642005E+00 0.99598040E+03</pdfrwt>
<pdfrwt beam="2">  1       -1 0.17604945E+00 0.99598040E+03</pdfrwt>
<totfact> 0.29205574E+00</totfact>
</mgrwt>
</event>
<event>
 4    5  0.1074803E-007  0.1043099E+04  0.7818608E-02  0.9327223E-01
          1   -1    0    0  501    0  0.00000000000E+00  0.00000000000E+00  0.18016140800E+04  0.18016140800E+04  0.50400000000E-02 0. -1.
         -1   -1    0    0    0  501 -0.00000000000E+00 -0.00000000000E+00 -0.65049714407E+03  0.65049714409E+03  0.50400000000E-02 0.  1.
    8880023    1    1    2    0    0  0.43455652208E+03 -0.68220691210E+03  0.12442842734E+04  0.16236684394E+04  0.65864270000E+03 0.  1.
    8880022    1    1    2    0    0 -0.43455652208E+03  0.68220691210E+03 -0.93167337424E+02  0.82844278474E+03  0.15294330000E+03 0.  0.
<mgrwt>
<rscale>  0 0.98314790E+03</rscale>
<asrwt>0</asrwt>
<pdfrwt beam="1">  1        1 0.27717140E+00 0.10430992E+04</pdfrwt>
<pdfrwt beam="2">  1       -1 0.10007648E+00 0.10430992E+04</pdfrwt>
<totfact> 0.38785559E+00</totfact>
</mgrwt>
</event>
<event>
 4    5  0.1074803E-007  0.1453064E+04  0.7818608E-02  0.8943510E-01
          1   -1    0    0  501    0  0.00000000000E+00  0.00000000000E+00  0.25472264160E+04  0.25472264160E+04  0.50400000000E-02 0. -1.
         -1   -1    0    0    0  501 -0.00000000000E+00 -0.00000000000E+00 -0.17091131048E+04  0.17091131048E+04  0.50400000000E-02 0.  1.
    8880023    1    1    2    0    0  0.45249934789E+03  0.12136018754E+04  0.20253496469E+04  0.24926765876E+04  0.65864270000E+03 0.  0.
    8880022    1    1    2    0    0 -0.45249934789E+03 -0.12136018754E+04 -0.11872363358E+04  0.17636629332E+04  0.15294330000E+03 0.  0.
<mgrwt>
<rscale>  0 0.14143304E+04</rscale>
<asrwt>0</asrwt>
<pdfrwt beam="1">  1        1 0.39188099E+00 0.14530641E+04</pdfrwt>
<pdfrwt beam="2">  1       -1 0.26294048E+00 0.14530641E+04</pdfrwt>
<totfact> 0.68491359E-02</totfact>
</mgrwt>
</event>
<event>
 4    5  0.1074803E-007  0.1053483E+04  0.7818608E-02  0.9314707E-01
         -1   -1    0    0    0  501 -0.00000000000E+00  0.00000000000E+00  0.15555624454E+04  0.15555624454E+04  0.50400000000E-02 0.  1.
          1   -1    0    0  501    0  0.00000000000E+00 -0.00000000000E+00 -0.67716515308E+03  0.67716515310E+03  0.50400000000E-02 0. -1.
    8880023    1    1    2    0    0 -0.29725879556E+03 -0.76658501888E+03  0.48595539065E+02  0.10546028235E+04  0.65864270000E+03 0.  0.
    8880022    1    1    2    0    0  0.29725879556E+03  0.76658501888E+03  0.82980175327E+03  0.11781247750E+04  0.15294330000E+03 0.  0.
<mgrwt>
<rscale>  0 0.99440151E+03</rscale>
<asrwt>0</asrwt>
<pdfrwt beam="1">  1        1 0.10417925E+00 0.10534826E+04</pdfrwt>
<pdfrwt beam="2">  1       -1 0.23931730E+00 0.10534826E+04</pdfrwt>
<totfact> 0.23481034E+00</totfact>
</mgrwt>
</event>
<event>
 4    5  0.1074803E-007  0.6602237E+03  0.7818608E-02  0.1023928E+00
         -1   -1    0    0    0  501 -0.00000000000E+00  0.00000000000E+00  0.13759153423E+03  0.13759153433E+03  0.50400000000E-02 0.  1.
          1   -1    0    0  501    0  0.00000000000E+00 -0.00000000000E+00 -0.19680165131E+04  0.19680165131E+04  0.50400000000E-02 0. -1.
    8880023    1    1    2    0    0  0.42821959478E+02  0.15855003178E+02 -0.18305725146E+04  0.19459935866E+04  0.65864270000E+03 0. -1.
    8880022    1    1    2    0    0 -0.42821959478E+02 -0.15855003178E+02  0.14753576377E+00  0.15961446088E+03  0.15294330000E+03 0.  0.
<mgrwt>
<rscale>  0 0.46295239E+03</rscale>
<asrwt>0</asrwt>
<pdfrwt beam="1">  1        1 0.30277175E+00 0.66022368E+03</pdfrwt>
<pdfrwt beam="2">  1       -1 0.21167930E-01 0.66022368E+03</pdfrwt>
<totfact> 0.60739403E+01</totfact>
</mgrwt>
</event>
<event>
 4    5  0.1074803E-007  0.6856597E+03  0.7818608E-02  0.1006288E+00
         -1   -1    0    0    0  501 -0.00000000000E+00  0.00000000000E+00  0.74294979385E+03  0.74294979387E+03  0.50400000000E-02 0.  1.
          1   -1    0    0  501    0  0.00000000000E+00 -0.00000000000E+00 -0.83238239685E+03  0.83238239687E+03  0.50400000000E-02 0. -1.
    8880023    1    1    2    0    0  0.14150936450E+03  0.12764846145E+03 -0.66182383244E+03  0.95296380907E+03  0.65864270000E+03 0. -1.
    8880022    1    1    2    0    0 -0.14150936450E+03 -0.12764846145E+03  0.57239122944E+03  0.62236838167E+03  0.15294330000E+03 0.  0.
<mgrwt>
<rscale>  0 0.52977075E+03</rscale>
<asrwt>0</asrwt>
<pdfrwt beam="1">  1        1 0.12805883E+00 0.68565971E+03</pdfrwt>
<pdfrwt beam="2">  1       -1 0.11429997E+00 0.68565971E+03</pdfrwt>
<totfact> 0.14986220E+01</totfact>
</mgrwt>
</event>
<event>
 4    5  0.1074803E-007  0.6963457E+03  0.7818608E-02  0.1001271E+00
          1   -1    0    0  501    0  0.00000000000E+00  0.00000000000E+00  0.13254181775E+04  0.13254181775E+04  0.50400000000E-02 0. -1.
         -1   -1    0    0    0  501 -0.00000000000E+00 -0.00000000000E+00 -0.32670772419E+03  0.32670772423E+03  0.50400000000E-02 0.  1.
    8880023    1    1    2    0    0  0.22416097849E+03 -0.28964314541E+02  0.11467767414E+04  0.13416386162E+04  0.65864270000E+03 0. -1.
    8880022    1    1    2    0    0 -0.22416097849E+03  0.28964314541E+02 -0.14806628805E+03  0.31048728551E+03  0.15294330000E+03 0.  0.
<mgrwt>
<rscale>  0 0.55096332E+03</rscale>
<asrwt>0</asrwt>
<pdfrwt beam="1">  1        1 0.20391049E+00 0.69634566E+03</pdfrwt>
<pdfrwt beam="2">  1       -1 0.50262726E-01 0.69634566E+03</pdfrwt>
<totfact> 0.35700699E+01</totfact>
</mgrwt>
</event>
<event>
 4    5  0.1074803E-007  0.7209836E+03  0.7818608E-02  0.9919272E-01
          1   -1    0    0  501    0  0.00000000000E+00  0.00000000000E+00  0.47573913126E+03  0.47573913128E+03  0.50400000000E-02 0. -1.
         -1   -1    0    0    0  501 -0.00000000000E+00 -0.00000000000E+00 -0.11273724506E+04  0.11273724506E+04  0.50400000000E-02 0.  1.
    8880023    1    1    2    0    0 -0.14361365009E+03 -0.25569944896E+03  0.14955824667E+03  0.73633210177E+03  0.65864270000E+03 0. -1.
    8880022    1    1    2    0    0  0.14361365009E+03  0.25569944896E+03 -0.80119156597E+03  0.86677948008E+03  0.15294330000E+03 0.  0.
<mgrwt>
<rscale>  0 0.59336314E+03</rscale>
<asrwt>0</asrwt>
<pdfrwt beam="1">  1        1 0.73190636E-01 0.72098356E+03</pdfrwt>
<pdfrwt beam="2">  1       -1 0.17344191E+00 0.72098356E+03</pdfrwt>
<totfact> 0.11389093E+01</totfact>
</mgrwt>
</event>
<event>
 4    5  0.1074803E-007  0.1063073E+04  0.7818608E-02  0.9303329E-01
         -1   -1    0    0    0  501 -0.00000000000E+00  0.00000000000E+00  0.10531874629E+04  0.10531874629E+04  0.50400000000E-02 0.  1.
          1   -1    0    0  501    0  0.00000000000E+00 -0.00000000000E+00 -0.17187536493E+04  0.17187536493E+04  0.50400000000E-02 0. -1.
    8880023    1    1    2    0    0 -0.82760872791E+03 -0.10666263664E+03 -0.13240587779E+04  0.16980150111E+04  0.65864270000E+03 0.  0.
    8880022    1    1    2    0    0  0.82760872791E+03  0.10666263664E+03  0.65849259142E+03  0.10739261011E+04  0.15294330000E+03 0.  0.
<mgrwt>
<rscale>  0 0.10047696E+04</rscale>
<asrwt>0</asrwt>
<pdfrwt beam="1">  1        1 0.26442364E+00 0.10630726E+04</pdfrwt>
<pdfrwt beam="2">  1       -1 0.16202884E+00 0.10630726E+04</pdfrwt>
<totfact> 0.13037723E+00</totfact>
</mgrwt>
</event>
<event>
 4    5  0.1074803E-007  0.8831520E+03  0.7818608E-02  0.9553638E-01
          1   -1    0    0  501    0  0.00000000000E+00  0.00000000000E+00  0.20636727835E+04  0.20636727835E+04  0.50400000000E-02 0. -1.
         -1   -1    0    0    0  501 -0.00000000000E+00 -0.00000000000E+00 -0.58340236647E+03  0.58340236649E+03  0.50400000000E-02 0.  1.
    8880023    1    1    2    0    0  0.37887697812E+03 -0.45011054648E+03 -0.16022724622E+03  0.89756907550E+03  0.65864270000E+03 0.  1.
    8880022    1    1    2    0    0 -0.37887697812E+03  0.45011054648E+03  0.16404976633E+04  0.17495060745E+04  0.15294330000E+03 0.  0.
<mgrwt>
<rscale>  0 0.80442233E+03</rscale>
<asrwt>0</asrwt>
<pdfrwt beam="1">  1        1 0.31748812E+00 0.88315201E+03</pdfrwt>
<pdfrwt beam="2">  1       -1 0.89754210E-01 0.88315201E+03</pdfrwt>
<totfact> 0.33746380E+00</totfact>
</mgrwt>
</event>
<event>
 4    5  0.1074803E-007  0.1084162E+04  0.7818608E-02  0.9278898E-01
         -1   -1    0    0    0  501 -0.00000000000E+00  0.00000000000E+00  0.15295260571E+04  0.15295260571E+04  0.50400000000E-02 0.  1.
          1   -1    0    0  501    0  0.00000000000E+00 -0.00000000000E+00 -0.17710408605E+04  0.17710408605E+04  0.50400000000E-02 0. -1.
    8880023    1    1    2    0    0 -0.60651600434E+03 -0.61133826458E+03 -0.14489336646E+04  0.18096450227E+04  0.65864270000E+03 0.  0.
    8880022    1    1    2    0    0  0.60651600434E+03  0.61133826458E+03  0.12074188612E+04  0.14909218949E+04  0.15294330000E+03 0.  0.
<mgrwt>
<rscale>  0 0.10274893E+04</rscale>
<asrwt>0</asrwt>
<pdfrwt beam="1">  1        1 0.27246782E+00 0.10841616E+04</pdfrwt>
<pdfrwt beam="2">  1       -1 0.23531170E+00 0.10841616E+04</pdfrwt>
<totfact> 0.37052299E-01</totfact>
</mgrwt>
</event>
<event>
 4    5  0.1074803E-007  0.1910821E+04  0.7818608E-02  0.8663590E-01
          1   -1    0    0  501    0  0.00000000000E+00  0.00000000000E+00  0.22725513444E+04  0.22725513444E+04  0.50400000000E-02 0. -1.
         -1   -1    0    0    0  501 -0.00000000000E+00 -0.00000000000E+00 -0.20111577272E+04  0.20111577272E+04  0.50400000000E-02 0.  1.
    8880023    1    1    2    0    0  0.16735100165E+04 -0.64559481639E+03  0.11970895437E+04  0.22548308194E+04  0.65864270000E+03 0.  0.
    8880022    1    1    2    0    0 -0.16735100165E+04  0.64559481639E+03 -0.93569592653E+03  0.20288782522E+04  0.15294330000E+03 0.  0.
<mgrwt>
<rscale>  0 0.18825519E+04</rscale>
<asrwt>0</asrwt>
<pdfrwt beam="1">  1        1 0.34962328E+00 0.19108215E+04</pdfrwt>
<pdfrwt beam="2">  1       -1 0.30940888E+00 0.19108215E+04</pdfrwt>
<totfact> 0.50035995E-02</totfact>
</mgrwt>
</event>
<event>
 4    5  0.1074803E-007  0.6751256E+03  0.7818608E-02  0.1012227E+00
         -1   -1    0    0    0  501 -0.00000000000E+00  0.00000000000E+00  0.61278826855E+03  0.61278826857E+03  0.50400000000E-02 0.  1.
          1   -1    0    0  501    0  0.00000000000E+00 -0.00000000000E+00 -0.40261753011E+03  0.40261753014E+03  0.50400000000E-02 0. -1.
    8880023    1    1    2    0    0  0.14803311268E+03 -0.84010163202E+01 -0.52561757458E+02  0.67716860835E+03  0.65864270000E+03 0. -1.
    8880022    1    1    2    0    0 -0.14803311268E+03  0.84010163202E+01  0.26273249590E+03  0.33823719036E+03  0.15294330000E+03 0.  0.
<mgrwt>
<rscale>  0 0.50598979E+03</rscale>
<asrwt>0</asrwt>
<pdfrwt beam="1">  1        1 0.61941159E-01 0.67512561E+03</pdfrwt>
<pdfrwt beam="2">  1       -1 0.94275118E-01 0.67512561E+03</pdfrwt>
<totfact> 0.66436532E+01</totfact>
</mgrwt>
</event>
<event>
 4    5  0.1074803E-007  0.1299768E+04  0.7818608E-02  0.9065760E-01
          1   -1    0    0  501    0  0.00000000000E+00  0.00000000000E+00  0.14059396761E+04  0.14059396761E+04  0.50400000000E-02 0. -1.
         -1   -1    0    0    0  501 -0.00000000000E+00 -0.00000000000E+00 -0.14852095108E+04  0.14852095108E+04  0.50400000000E-02 0.  1.
    8880023    1    1    2    0    0 -0.81246628664E+03 -0.77167700035E+03 -0.82224056851E+03  0.15380106042E+04  0.65864270000E+03 0.  0.
    8880022    1    1    2    0    0  0.81246628664E+03  0.77167700035E+03  0.74297073385E+03  0.13531385828E+04  0.15294330000E+03 0.  0.
<mgrwt>
<rscale>  0 0.12553283E+04</rscale>
<asrwt>0</asrwt>
<pdfrwt beam="1">  1        1 0.21629841E+00 0.12997681E+04</pdfrwt>
<pdfrwt beam="2">  1       -1 0.22849377E+00 0.12997681E+04</pdfrwt>
<totfact> 0.71161951E-01</totfact>
</mgrwt>
</event>
<event>
 4    5  0.1074803E-007  0.1222568E+04  0.7818608E-02  0.9135491E-01
          1   -1    0    0  501    0  0.00000000000E+00  0.00000000000E+00  0.24158562576E+04  0.24158562576E+04  0.50400000000E-02 0. -1.
         -1   -1    0    0    0  501 -0.00000000000E+00 -0.00000000000E+00 -0.89795781827E+03  0.89795781828E+03  0.50400000000E-02 0.  1.
    8880023    1    1    2    0    0  0.87851303141E+03  0.53765948320E+03  0.18529758686E+04  0.22199532973E+04  0.65864270000E+03 0.  0.
    8880022    1    1    2    0    0 -0.87851303141E+03 -0.53765948320E+03 -0.33507742932E+03  0.10938607786E+04  0.15294330000E+03 0.  0.
<mgrwt>
<rscale>  0 0.11744816E+04</rscale>
<asrwt>0</asrwt>
<pdfrwt beam="1">  1        1 0.37167019E+00 0.12225682E+04</pdfrwt>
<pdfrwt beam="2">  1       -1 0.13814736E+00 0.12225682E+04</pdfrwt>
<totfact> 0.66132129E-01</totfact>
</mgrwt>
</event>
<event>
 4    5  0.1074803E-007  0.8513002E+03  0.7818608E-02  0.9609230E-01
         -1   -1    0    0    0  501 -0.00000000000E+00  0.00000000000E+00  0.16702343219E+04  0.16702343219E+04  0.50400000000E-02 0.  1.
          1   -1    0    0  501    0  0.00000000000E+00 -0.00000000000E+00 -0.70323954339E+03  0.70323954341E+03  0.50400000000E-02 0. -1.
    8880023    1    1    2    0    0  0.18017601991E+03 -0.50836832627E+03 -0.36656427428E+03  0.92686640177E+03  0.65864270000E+03 0. -1.
    8880022    1    1    2    0    0 -0.18017601991E+03  0.50836832627E+03  0.13335590527E+04  0.14466074635E+04  0.15294330000E+03 0.  0.
<mgrwt>
<rscale>  0 0.76688271E+03</rscale>
<asrwt>0</asrwt>
<pdfrwt beam="1">  1        1 0.10819070E+00 0.85130016E+03</pdfrwt>
<pdfrwt beam="2">  1       -1 0.25695913E+00 0.85130016E+03</pdfrwt>
<totfact> 0.17502350E+00</totfact>
</mgrwt>
</event>
<event>
 4    5  0.1074803E-007  0.1676958E+04  0.7818608E-02  0.8793838E-01
          1   -1    0    0  501    0  0.00000000000E+00  0.00000000000E+00  0.14445612225E+04  0.14445612225E+04  0.50400000000E-02 0. -1.
         -1   -1    0    0    0  501 -0.00000000000E+00 -0.00000000000E+00 -0.21638266301E+04  0.21638266301E+04  0.50400000000E-02 0.  1.
    8880023    1    1    2    0    0  0.85308803379E+03  0.12847637611E+04  0.36597387021E+03  0.17164277425E+04  0.65864270000E+03 0. -1.
    8880022    1    1    2    0    0 -0.85308803379E+03 -0.12847637611E+04 -0.10852392779E+04  0.18919601102E+04  0.15294330000E+03 0.  0.
<mgrwt>
<rscale>  0 0.16442127E+04</rscale>
<asrwt>0</asrwt>
<pdfrwt beam="1">  1        1 0.22224019E+00 0.16769578E+04</pdfrwt>
<pdfrwt beam="2">  1       -1 0.33289640E+00 0.16769578E+04</pdfrwt>
<totfact> 0.13364394E-01</totfact>
</mgrwt>
</event>
<event>
 4    5  0.1074803E-007  0.7753970E+03  0.7818608E-02  0.9766763E-01
          1   -1    0    0  501    0  0.00000000000E+00  0.00000000000E+00  0.14823394574E+04  0.14823394574E+04  0.50400000000E-02 0. -1.
         -1   -1    0    0    0  501 -0.00000000000E+00 -0.00000000000E+00 -0.70754949491E+03  0.70754949493E+03  0.50400000000E-02 0.  1.
    8880023    1    1    2    0    0 -0.33724728151E+03 -0.23172100095E+03  0.12957403641E+04  0.15100276980E+04  0.65864270000E+03 0. -1.
    8880022    1    1    2    0    0  0.33724728151E+03  0.23172100095E+03 -0.52095040165E+03  0.67986125435E+03  0.15294330000E+03 0.  0.
<mgrwt>
<rscale>  0 0.67177163E+03</rscale>
<asrwt>0</asrwt>
<pdfrwt beam="1">  1        1 0.22805222E+00 0.77539703E+03</pdfrwt>
<pdfrwt beam="2">  1       -1 0.10885377E+00 0.77539703E+03</pdfrwt>
<totfact> 0.54590964E+00</totfact>
</mgrwt>
</event>
<event>
 4    5  0.1074803E-007  0.7122780E+03  0.7818608E-02  0.9949637E-01
         -1   -1    0    0    0  501 -0.00000000000E+00  0.00000000000E+00  0.40509506055E+03  0.40509506058E+03  0.50400000000E-02 0.  1.
          1   -1    0    0  501    0  0.00000000000E+00 -0.00000000000E+00 -0.71970021716E+03  0.71970021718E+03  0.50400000000E-02 0. -1.
    8880023    1    1    2    0    0 -0.21584409278E+03  0.16413726000E+03 -0.46251288750E+02  0.71377804707E+03  0.65864270000E+03 0.  1.
    8880022    1    1    2    0    0  0.21584409278E+03 -0.16413726000E+03 -0.26835386786E+03  0.41101723068E+03  0.15294330000E+03 0. -1.
<mgrwt>
<rscale>  0 0.57914802E+03</rscale>
<asrwt>0</asrwt>
<pdfrwt beam="1">  1        1 0.11072311E+00 0.71227798E+03</pdfrwt>
<pdfrwt beam="2">  1       -1 0.62322317E-01 0.71227798E+03</pdfrwt>
<totfact> 0.69810742E+01</totfact>
</mgrwt>
</event>
<event>
 4    5  0.1074803E-007  0.8045632E+03  0.7818608E-02  0.9701015E-01
         -1   -1    0    0    0  501 -0.00000000000E+00  0.00000000000E+00  0.14732051985E+04  0.14732051985E+04  0.50400000000E-02 0.  1.
          1   -1    0    0  501    0  0.00000000000E+00 -0.00000000000E+00 -0.28881940678E+03  0.28881940683E+03  0.50400000000E-02 0. -1.
    8880023    1    1    2    0    0 -0.14188163770E+03  0.43975141609E+03  0.61328886763E+03  0.10116546587E+04  0.65864270000E+03 0.  1.
    8880022    1    1    2    0    0  0.14188163770E+03 -0.43975141609E+03  0.57109692408E+03  0.75036994662E+03  0.15294330000E+03 0.  0.
<mgrwt>
<rscale>  0 0.70956391E+03</rscale>
<asrwt>0</asrwt>
<pdfrwt beam="1">  1        1 0.44433756E-01 0.80456318E+03</pdfrwt>
<pdfrwt beam="2">  1       -1 0.22664695E+00 0.80456318E+03</pdfrwt>
<totfact> 0.93978905E+00</totfact>
</mgrwt>
</event>
<event>
 4    5  0.1074803E-007  0.1033859E+04  0.7818608E-02  0.9338541E-01
          1   -1    0    0  501    0  0.00000000000E+00  0.00000000000E+00  0.13975573016E+04  0.13975573016E+04  0.50400000000E-02 0. -1.
         -1   -1    0    0    0  501 -0.00000000000E+00 -0.00000000000E+00 -0.93452556982E+03  0.93452556983E+03  0.50400000000E-02 0.  1.
    8880023    1    1    2    0    0 -0.35394192278E+03 -0.71398892194E+03  0.93449899136E+03  0.13936117237E+04  0.65864270000E+03 0.  0.
    8880022    1    1    2    0    0  0.35394192278E+03  0.71398892194E+03 -0.47146725955E+03  0.93847114777E+03  0.15294330000E+03 0.  0.
<mgrwt>
<rscale>  0 0.97310833E+03</rscale>
<asrwt>0</asrwt>
<pdfrwt beam="1">  1        1 0.21500881E+00 0.10338594E+04</pdfrwt>
<pdfrwt beam="2">  1       -1 0.14377317E+00 0.10338594E+04</pdfrwt>
<totfact> 0.30151820E+00</totfact>
</mgrwt>
</event>
<event>
 4    5  0.1074803E-007  0.1278630E+04  0.7818608E-02  0.9084237E-01
         -1   -1    0    0    0  501 -0.00000000000E+00  0.00000000000E+00  0.79042934122E+03  0.79042934123E+03  0.50400000000E-02 0.  1.
          1   -1    0    0  501    0  0.00000000000E+00 -0.00000000000E+00 -0.22717238940E+04  0.22717238940E+04  0.50400000000E-02 0. -1.
    8880023    1    1    2    0    0 -0.72322044214E+03  0.82343050621E+03 -0.14796758174E+04  0.19555910455E+04  0.65864270000E+03 0.  0.
    8880022    1    1    2    0    0  0.72322044214E+03 -0.82343050621E+03 -0.16187354315E+01  0.11065621898E+04  0.15294330000E+03 0.  0.
<mgrwt>
<rscale>  0 0.12332543E+04</rscale>
<asrwt>0</asrwt>
<pdfrwt beam="1">  1        1 0.34949598E+00 0.12786304E+04</pdfrwt>
<pdfrwt beam="2">  1       -1 0.12160451E+00 0.12786304E+04</pdfrwt>
<totfact> 0.11389656E+00</totfact>
</mgrwt>
</event>
<event>
 4    5  0.1074803E-007  0.1243194E+04  0.7818608E-02  0.9116237E-01
          1   -1    0    0  501    0  0.00000000000E+00  0.00000000000E+00  0.40463142142E+04  0.40463142142E+04  0.50400000000E-02 0. -1.
         -1   -1    0    0    0  501 -0.00000000000E+00 -0.00000000000E+00 -0.90209841081E+03  0.90209841082E+03  0.50400000000E-02 0.  1.
    8880023    1    1    2    0    0  0.38522405774E+03  0.98149104783E+03  0.35857359062E+04  0.37951329947E+04  0.65864270000E+03 0. -1.
    8880022    1    1    2    0    0 -0.38522405774E+03 -0.98149104783E+03 -0.44152010283E+03  0.11532796304E+04  0.15294330000E+03 0.  0.
<mgrwt>
<rscale>  0 0.11961461E+04</rscale>
<asrwt>0</asrwt>
<pdfrwt beam="1">  1        1 0.62250987E+00 0.12431945E+04</pdfrwt>
<pdfrwt beam="2">  1       -1 0.13878437E+00 0.12431945E+04</pdfrwt>
<totfact> 0.37633631E-02</totfact>
</mgrwt>
</event>
<event>
 4    5  0.1074803E-007  0.1021584E+04  0.7818608E-02  0.9353849E-01
          1   -1    0    0  501    0  0.00000000000E+00  0.00000000000E+00  0.49156104740E+04  0.49156104740E+04  0.50400000000E-02 0. -1.
         -1   -1    0    0    0  501 -0.00000000000E+00 -0.00000000000E+00 -0.53812847292E+03  0.53812847295E+03  0.50400000000E-02 0.  1.
    8880023    1    1    2    0    0 -0.32144930781E+03  0.71168376054E+03  0.45297795627E+04  0.46435478382E+04  0.65864270000E+03 0.  0.
    8880022    1    1    2    0    0  0.32144930781E+03 -0.71168376054E+03 -0.15229756159E+03  0.81019110881E+03  0.15294330000E+03 0.  0.
<mgrwt>
<rscale>  0 0.95973080E+03</rscale>
<asrwt>0</asrwt>
<pdfrwt beam="1">  1        1 0.75624773E+00 0.10215839E+04</pdfrwt>
<pdfrwt beam="2">  1       -1 0.82789000E-01 0.10215839E+04</pdfrwt>
<totfact> 0.17399343E-02</totfact>
</mgrwt>
</event>
<event>
 4    5  0.1074803E-007  0.9059917E+03  0.7818608E-02  0.9516481E-01
          1   -1    0    0  501    0  0.00000000000E+00  0.00000000000E+00  0.75957472988E+03  0.75957472989E+03  0.50400000000E-02 0. -1.
         -1   -1    0    0    0  501 -0.00000000000E+00 -0.00000000000E+00 -0.83124430978E+03  0.83124430980E+03  0.50400000000E-02 0.  1.
    8880023    1    1    2    0    0 -0.41768400383E+03  0.46103243092E+03  0.13867551697E+03  0.91654347124E+03  0.65864270000E+03 0.  0.
    8880022    1    1    2    0    0  0.41768400383E+03 -0.46103243092E+03 -0.21034509688E+03  0.67427556845E+03  0.15294330000E+03 0.  0.
<mgrwt>
<rscale>  0 0.83079606E+03</rscale>
<asrwt>0</asrwt>
<pdfrwt beam="1">  1        1 0.11685765E+00 0.90599174E+03</pdfrwt>
<pdfrwt beam="2">  1       -1 0.12788374E+00 0.90599174E+03</pdfrwt>
<totfact> 0.12836659E+01</totfact>
</mgrwt>
</event>
<event>
 4    5  0.1074803E-007  0.1395899E+04  0.7818608E-02  0.8986876E-01
          1   -1    0    0  501    0  0.00000000000E+00  0.00000000000E+00  0.22203890385E+04  0.22203890385E+04  0.50400000000E-02 0. -1.
         -1   -1    0    0    0  501 -0.00000000000E+00 -0.00000000000E+00 -0.79551219958E+03  0.79551219960E+03  0.50400000000E-02 0.  1.
    8880023    1    1    2    0    0 -0.55802895984E+03 -0.10969634152E+04  0.94697709052E+03  0.16868019654E+04  0.65864270000E+03 0.  1.
    8880022    1    1    2    0    0  0.55802895984E+03  0.10969634152E+04  0.47789974840E+03  0.13290992727E+04  0.15294330000E+03 0.  0.
<mgrwt>
<rscale>  0 0.13552339E+04</rscale>
<asrwt>0</asrwt>
<pdfrwt beam="1">  1        1 0.34159830E+00 0.13958994E+04</pdfrwt>
<pdfrwt beam="2">  1       -1 0.12238650E+00 0.13958994E+04</pdfrwt>
<totfact> 0.11990276E+00</totfact>
</mgrwt>
</event>
<event>
 4    5  0.1074803E-007  0.9970929E+03  0.7818608E-02  0.9385371E-01
          1   -1    0    0  501    0  0.00000000000E+00  0.00000000000E+00  0.43335609162E+04  0.43335609162E+04  0.50400000000E-02 0. -1.
         -1   -1    0    0    0  501 -0.00000000000E+00 -0.00000000000E+00 -0.30914322194E+03  0.30914322198E+03  0.50400000000E-02 0.  1.
    8880023    1    1    2    0    0 -0.39461570380E+03 -0.63613088431E+03  0.36652295480E+04  0.37984341381E+04  0.65864270000E+03 0.  0.
    8880022    1    1    2    0    0  0.39461570380E+03  0.63613088431E+03  0.35918814632E+03  0.84427000014E+03  0.15294330000E+03 0.  0.
<mgrwt>
<rscale>  0 0.93289437E+03</rscale>
<asrwt>0</asrwt>
<pdfrwt beam="1">  1        1 0.66670160E+00 0.99709291E+03</pdfrwt>
<pdfrwt beam="2">  1       -1 0.47560501E-01 0.99709291E+03</pdfrwt>
<totfact> 0.22232835E-01</totfact>
</mgrwt>
</event>
<event>
 4    5  0.1074803E-007  0.1239009E+04  0.7818608E-02  0.9120105E-01
         -1   -1    0    0    0  501 -0.00000000000E+00  0.00000000000E+00  0.14427394456E+04  0.14427394457E+04  0.50400000000E-02 0.  1.
          1   -1    0    0  501    0  0.00000000000E+00 -0.00000000000E+00 -0.17522983494E+04  0.17522983494E+04  0.50400000000E-02 0. -1.
    8880023    1    1    2    0    0 -0.82597811390E+03 -0.64737371173E+03 -0.12627573302E+04  0.17690954888E+04  0.65864270000E+03 0.  0.
    8880022    1    1    2    0    0  0.82597811390E+03  0.64737371173E+03  0.95319842651E+03  0.14259423062E+04  0.15294330000E+03 0.  0.
<mgrwt>
<rscale>  0 0.11917538E+04</rscale>
<asrwt>0</asrwt>
<pdfrwt beam="1">  1        1 0.26958436E+00 0.12390088E+04</pdfrwt>
<pdfrwt beam="2">  1       -1 0.22195992E+00 0.12390088E+04</pdfrwt>
<totfact> 0.45725708E-01</totfact>
</mgrwt>
</event>
<event>
 4    5  0.1074803E-007  0.8409144E+03  0.7818608E-02  0.9628458E-01
         -1   -1    0    0    0  501 -0.00000000000E+00  0.00000000000E+00  0.58035941122E+03  0.58035941124E+03  0.50400000000E-02 0.  1.
          1   -1    0    0  501    0  0.00000000000E+00 -0.00000000000E+00 -0.10807550200E+04  0.10807550200E+04  0.50400000000E-02 0. -1.
    8880023    1    1    2    0    0  0.51790520670E+03 -0.71421653135E+02 -0.68642799959E+03  0.10855047031E+04  0.65864270000E+03 0. -1.
    8880022    1    1    2    0    0 -0.51790520670E+03  0.71421653135E+02  0.18603239080E+03  0.57560972812E+03  0.15294330000E+03 0.  0.
<mgrwt>
<rscale>  0 0.75440912E+03</rscale>
<asrwt>0</asrwt>
<pdfrwt beam="1">  1        1 0.16627000E+00 0.84091442E+03</pdfrwt>
<pdfrwt beam="2">  1       -1 0.89286063E-01 0.84091442E+03</pdfrwt>
<totfact> 0.16435121E+01</totfact>
</mgrwt>
</event>
<event>
 4    5  0.1074803E-007  0.9848339E+03  0.7818608E-02  0.9401674E-01
         -1   -1    0    0    0  501 -0.00000000000E+00  0.00000000000E+00  0.44335809219E+03  0.44335809222E+03  0.50400000000E-02 0.  1.
          1   -1    0    0  501    0  0.00000000000E+00 -0.00000000000E+00 -0.34432194636E+04  0.34432194636E+04  0.50400000000E-02 0. -1.
    8880023    1    1    2    0    0  0.36189680559E+03 -0.63648910558E+03 -0.29797962502E+04  0.31383249638E+04  0.65864270000E+03 0.  0.
    8880022    1    1    2    0    0 -0.36189680559E+03  0.63648910558E+03 -0.20065121241E+02  0.74825259206E+03  0.15294330000E+03 0.  0.
<mgrwt>
<rscale>  0 0.91938044E+03</rscale>
<asrwt>0</asrwt>
<pdfrwt beam="1">  1        1 0.52972606E+00 0.98483394E+03</pdfrwt>
<pdfrwt beam="2">  1       -1 0.68208939E-01 0.98483394E+03</pdfrwt>
<totfact> 0.62736430E-01</totfact>
</mgrwt>
</event>
<event>
 4    5  0.1074803E-007  0.1075320E+04  0.7818608E-02  0.9289045E-01
         -1   -1    0    0    0  501 -0.00000000000E+00  0.00000000000E+00  0.10587622531E+04  0.10587622531E+04  0.50400000000E-02 0.  1.
          1   -1    0    0  501    0  0.00000000000E+00 -0.00000000000E+00 -0.17740130536E+04  0.17740130536E+04  0.50400000000E-02 0. -1.
    8880023    1    1    2    0    0 -0.51576492026E+03 -0.67563934839E+03 -0.13752971004E+04  0.17457818600E+04  0.65864270000E+03 0.  0.
    8880022    1    1    2    0    0  0.51576492026E+03  0.67563934839E+03  0.66004629994E+03  0.10869934467E+04  0.15294330000E+03 0.  0.
<mgrwt>
<rscale>  0 0.10179766E+04</rscale>
<asrwt>0</asrwt>
<pdfrwt beam="1">  1        1 0.27292509E+00 0.10753196E+04</pdfrwt>
<pdfrwt beam="2">  1       -1 0.16288650E+00 0.10753196E+04</pdfrwt>
<totfact> 0.11764120E+00</totfact>
</mgrwt>
</event>
<event>
 4    5  0.1074803E-007  0.8602584E+03  0.7818608E-02  0.9593104E-01
         -1   -1    0    0    0  501 -0.00000000000E+00  0.00000000000E+00  0.32386364503E+03  0.32386364507E+03  0.50400000000E-02 0.  1.
          1   -1    0    0  501    0  0.00000000000E+00 -0.00000000000E+00 -0.19952679155E+04  0.19952679155E+04  0.50400000000E-02 0. -1.
    8880023    1    1    2    0    0 -0.48359475547E+02 -0.55126738556E+03 -0.14837757973E+04  0.17151195854E+04  0.65864270000E+03 0.  0.
    8880022    1    1    2    0    0  0.48359475547E+02  0.55126738556E+03 -0.18762847321E+03  0.60401197524E+03  0.15294330000E+03 0.  0.
<mgrwt>
<rscale>  0 0.77754296E+03</rscale>
<asrwt>0</asrwt>
<pdfrwt beam="1">  1        1 0.30696429E+00 0.86025844E+03</pdfrwt>
<pdfrwt beam="2">  1       -1 0.49825177E-01 0.86025844E+03</pdfrwt>
<totfact> 0.12471692E+01</totfact>
</mgrwt>
</event>
<event>
 4    5  0.1074803E-007  0.7449378E+03  0.7818608E-02  0.9845790E-01
         -1   -1    0    0    0  501 -0.00000000000E+00  0.00000000000E+00  0.65014587204E+03  0.65014587206E+03  0.50400000000E-02 0.  1.
          1   -1    0    0  501    0  0.00000000000E+00 -0.00000000000E+00 -0.21361604221E+04  0.21361604221E+04  0.50400000000E-02 0. -1.
    8880023    1    1    2    0    0  0.44175008072E+01 -0.34799802505E+03 -0.20073337807E+04  0.21411028124E+04  0.65864270000E+03 0. -1.
    8880022    1    1    2    0    0 -0.44175008072E+01  0.34799802505E+03  0.52131923061E+03  0.64520348183E+03  0.15294330000E+03 0.  0.
<mgrwt>
<rscale>  0 0.62962024E+03</rscale>
<asrwt>0</asrwt>
<pdfrwt beam="1">  1        1 0.32864006E+00 0.74493781E+03</pdfrwt>
<pdfrwt beam="2">  1       -1 0.10002244E+00 0.74493781E+03</pdfrwt>
<totfact> 0.24249018E+00</totfact>
</mgrwt>
</event>
<event>
 4    5  0.1074803E-007  0.1342852E+04  0.7818608E-02  0.9029411E-01
          1   -1    0    0  501    0  0.00000000000E+00  0.00000000000E+00  0.19767120518E+04  0.19767120518E+04  0.50400000000E-02 0. -1.
         -1   -1    0    0    0  501 -0.00000000000E+00 -0.00000000000E+00 -0.16214218204E+04  0.16214218204E+04  0.50400000000E-02 0.  1.
    8880023    1    1    2    0    0 -0.11293544640E+04  0.30659272988E+03  0.14585507934E+04  0.19825794386E+04  0.65864270000E+03 0.  0.
    8880022    1    1    2    0    0  0.11293544640E+04 -0.30659272988E+03 -0.11032605619E+04  0.16155544336E+04  0.15294330000E+03 0.  0.
<mgrwt>
<rscale>  0 0.13001947E+04</rscale>
<asrwt>0</asrwt>
<pdfrwt beam="1">  1        1 0.30410955E+00 0.13428517E+04</pdfrwt>
<pdfrwt beam="2">  1       -1 0.24944951E+00 0.13428517E+04</pdfrwt>
<totfact> 0.20915156E-01</totfact>
</mgrwt>
</event>
<event>
 4    5  0.1074803E-007  0.7801180E+03  0.7818608E-02  0.9755560E-01
          1   -1    0    0  501    0  0.00000000000E+00  0.00000000000E+00  0.99788836457E+03  0.99788836458E+03  0.50400000000E-02 0. -1.
         -1   -1    0    0    0  501 -0.00000000000E+00 -0.00000000000E+00 -0.77877407961E+03  0.77877407963E+03  0.50400000000E-02 0.  1.
    8880023    1    1    2    0    0  0.33459883195E+03  0.25063430363E+03  0.75114521569E+03  0.10829604212E+04  0.65864270000E+03 0. -1.
    8880022    1    1    2    0    0 -0.33459883195E+03 -0.25063430363E+03 -0.53203093073E+03  0.69370202304E+03  0.15294330000E+03 0.  0.
<mgrwt>
<rscale>  0 0.67802977E+03</rscale>
<asrwt>0</asrwt>
<pdfrwt beam="1">  1        1 0.15352129E+00 0.78011803E+03</pdfrwt>
<pdfrwt beam="2">  1       -1 0.11981140E+00 0.78011803E+03</pdfrwt>
<totfact> 0.97084579E+00</totfact>
</mgrwt>
</event>
<event>
 4    5  0.1074803E-007  0.7295765E+03  0.7818608E-02  0.9891422E-01
         -1   -1    0    0    0  501 -0.00000000000E+00  0.00000000000E+00  0.12039625024E+03  0.12039625035E+03  0.50400000000E-02 0.  1.
          1   -1    0    0  501    0  0.00000000000E+00 -0.00000000000E+00 -0.24200895587E+04  0.24200895587E+04  0.50400000000E-02 0. -1.
    8880023    1    1    2    0    0 -0.31243452580E+03  0.29262356659E+02 -0.15060218405E+04  0.16734346742E+04  0.65864270000E+03 0. -1.
    8880022    1    1    2    0    0  0.31243452580E+03 -0.29262356659E+02 -0.79367146795E+03  0.86705113487E+03  0.15294330000E+03 0.  1.
<mgrwt>
<rscale>  0 0.60678833E+03</rscale>
<asrwt>0</asrwt>
<pdfrwt beam="1">  1        1 0.37232143E+00 0.72957647E+03</pdfrwt>
<pdfrwt beam="2">  1       -1 0.18522502E-01 0.72957647E+03</pdfrwt>
<totfact> 0.37385288E+01</totfact>
</mgrwt>
</event>
<event>
 4    5  0.3784935E-007  0.1209817E+04  0.7818608E-02  0.9147638E-01
          1   -1    0    0  501    0  0.00000000000E+00  0.00000000000E+00  0.35270716150E+04  0.35270716150E+04  0.50400000000E-02 0. -1.
         -1   -1    0    0    0  501 -0.00000000000E+00 -0.00000000000E+00 -0.19139362610E+04  0.19139362610E+04  0.50400000000E-02 0.  1.
    8880023    1    1    2    0    0  0.61804051679E+03  0.80490500909E+03  0.32730332579E+04  0.34894703133E+04  0.65864270000E+03 0. -1.
    8880022    1    1    2    0    0 -0.61804051679E+03 -0.80490500909E+03 -0.16598979039E+04  0.19515375626E+04  0.15294330000E+03 0.  0.
<mgrwt>
<rscale>  0 0.11610622E+04</rscale>
<asrwt>0</asrwt>
<pdfrwt beam="1">  1        1 0.54262639E+00 0.12098167E+04</pdfrwt>
<pdfrwt beam="2">  1       -1 0.29445174E+00 0.12098167E+04</pdfrwt>
<totfact> 0.85511227E-03</totfact>
</mgrwt>
</event>
<event>
 4    5  0.1074803E-007  0.8279700E+03  0.7818608E-02  0.9653295E-01
         -1   -1    0    0    0  501 -0.00000000000E+00  0.00000000000E+00  0.15286129792E+04  0.15286129792E+04  0.50400000000E-02 0.  1.
          1   -1    0    0  501    0  0.00000000000E+00 -0.00000000000E+00 -0.32420033583E+03  0.32420033587E+03  0.50400000000E-02 0. -1.
    8880023    1    1    2    0    0 -0.40213174569E+03 -0.30002363275E+03  0.47548853796E+03  0.95478986017E+03  0.65864270000E+03 0.  0.
    8880022    1    1    2    0    0  0.40213174569E+03  0.30002363275E+03  0.72892410539E+03  0.89802345489E+03  0.15294330000E+03 0.  0.
<mgrwt>
<rscale>  0 0.73866988E+03</rscale>
<asrwt>0</asrwt>
<pdfrwt beam="1">  1        1 0.49876976E-01 0.82797000E+03</pdfrwt>
<pdfrwt beam="2">  1       -1 0.23517122E+00 0.82797000E+03</pdfrwt>
<totfact> 0.70887358E+00</totfact>
</mgrwt>
</event>
<event>
 4    5  0.1074803E-007  0.1266505E+04  0.7818608E-02  0.9095039E-01
          1   -1    0    0  501    0  0.00000000000E+00  0.00000000000E+00  0.19381926816E+04  0.19381926816E+04  0.50400000000E-02 0. -1.
         -1   -1    0    0    0  501 -0.00000000000E+00 -0.00000000000E+00 -0.24049903784E+04  0.24049903784E+04  0.50400000000E-02 0.  1.
    8880023    1    1    2    0    0  0.85965699763E+03  0.65666834541E+03  0.15788581250E+04  0.20240619197E+04  0.65864270000E+03 0. -1.
    8880022    1    1    2    0    0 -0.85965699763E+03 -0.65666834541E+03 -0.20456558218E+04  0.23191211404E+04  0.15294330000E+03 0.  0.
<mgrwt>
<rscale>  0 0.12205711E+04</rscale>
<asrwt>0</asrwt>
<pdfrwt beam="1">  1        1 0.29818349E+00 0.12665045E+04</pdfrwt>
<pdfrwt beam="2">  1       -1 0.36999852E+00 0.12665045E+04</pdfrwt>
<totfact> 0.36723966E-02</totfact>
</mgrwt>
</event>
<event>
 4    5  0.1074803E-007  0.1364681E+04  0.7818608E-02  0.9011624E-01
         -1   -1    0    0    0  501 -0.00000000000E+00  0.00000000000E+00  0.19009730141E+04  0.19009730142E+04  0.50400000000E-02 0.  1.
          1   -1    0    0  501    0  0.00000000000E+00 -0.00000000000E+00 -0.11712418617E+04  0.11712418617E+04  0.50400000000E-02 0. -1.
    8880023    1    1    2    0    0 -0.59435913211E+03 -0.10369574677E+04 -0.39832571239E+03  0.14216248264E+04  0.65864270000E+03 0. -1.
    8880022    1    1    2    0    0  0.59435913211E+03  0.10369574677E+04  0.11280568649E+04  0.16505900494E+04  0.15294330000E+03 0.  0.
<mgrwt>
<rscale>  0 0.13228686E+04</rscale>
<asrwt>0</asrwt>
<pdfrwt beam="1">  1        1 0.18019106E+00 0.13646808E+04</pdfrwt>
<pdfrwt beam="2">  1       -1 0.29245739E+00 0.13646808E+04</pdfrwt>
<totfact> 0.39955586E-01</totfact>
</mgrwt>
</event>
<event>
 4    5  0.1074803E-007  0.9919408E+03  0.7818608E-02  0.9392178E-01
         -1   -1    0    0    0  501 -0.00000000000E+00  0.00000000000E+00  0.13175445028E+04  0.13175445028E+04  0.50400000000E-02 0.  1.
          1   -1    0    0  501    0  0.00000000000E+00 -0.00000000000E+00 -0.14358553762E+04  0.14358553762E+04  0.50400000000E-02 0. -1.
    8880023    1    1    2    0    0  0.10864564063E+03  0.73371141252E+03 -0.11209951081E+04  0.14968555544E+04  0.65864270000E+03 0. -1.
    8880022    1    1    2    0    0 -0.10864564063E+03 -0.73371141252E+03  0.10026842347E+04  0.12565443246E+04  0.15294330000E+03 0.  0.
<mgrwt>
<rscale>  0 0.92722180E+03</rscale>
<asrwt>0</asrwt>
<pdfrwt beam="1">  1        1 0.22090083E+00 0.99194078E+03</pdfrwt>
<pdfrwt beam="2">  1       -1 0.20269915E+00 0.99194078E+03</pdfrwt>
<totfact> 0.10539675E+00</totfact>
</mgrwt>
</event>
<event>
 4    5  0.1192238E-007  0.1373218E+04  0.7818608E-02  0.9004778E-01
          1   -1    0    0  501    0  0.00000000000E+00  0.00000000000E+00  0.23152541343E+04  0.23152541343E+04  0.50400000000E-02 0. -1.
         -1   -1    0    0    0  501 -0.00000000000E+00 -0.00000000000E+00 -0.14626062277E+04  0.14626062277E+04  0.50400000000E-02 0.  1.
    8880023    1    1    2    0    0 -0.10152552087E+04  0.64897918677E+03  0.17811122339E+04  0.22490193685E+04  0.65864270000E+03 0.  0.
    8880022    1    1    2    0    0  0.10152552087E+04 -0.64897918677E+03 -0.92846432731E+03  0.15288409936E+04  0.15294330000E+03 0.  0.
<mgrwt>
<rscale>  0 0.13317262E+04</rscale>
<asrwt>0</asrwt>
<pdfrwt beam="1">  1        1 0.35619294E+00 0.13732179E+04</pdfrwt>
<pdfrwt beam="2">  1       -1 0.22501634E+00 0.13732179E+04</pdfrwt>
<totfact> 0.17763266E-01</totfact>
</mgrwt>
</event>
<event>
 4    5  0.1074803E-007  0.8421768E+03  0.7818608E-02  0.9626089E-01
          1   -1    0    0  501    0  0.00000000000E+00  0.00000000000E+00  0.89497189314E+03  0.89497189315E+03  0.50400000000E-02 0. -1.
         -1   -1    0    0    0  501 -0.00000000000E+00 -0.00000000000E+00 -0.60159147044E+03  0.60159147046E+03  0.50400000000E-02 0.  1.
    8880023    1    1    2    0    0  0.66662624075E+02  0.52058400729E+03  0.41142099410E+03  0.93729880761E+03  0.65864270000E+03 0.  1.
    8880022    1    1    2    0    0 -0.66662624075E+02 -0.52058400729E+03 -0.11804057141E+03  0.55926455601E+03  0.15294330000E+03 0.  0.
<mgrwt>
<rscale>  0 0.75593230E+03</rscale>
<asrwt>0</asrwt>
<pdfrwt beam="1">  1        1 0.13768798E+00 0.84217683E+03</pdfrwt>
<pdfrwt beam="2">  1       -1 0.92552534E-01 0.84217683E+03</pdfrwt>
<totfact> 0.21221335E+01</totfact>
</mgrwt>
</event>
<event>
 4    5  0.1074803E-007  0.8234233E+03  0.7818608E-02  0.9662267E-01
          1   -1    0    0  501    0  0.00000000000E+00  0.00000000000E+00  0.49643505522E+03  0.49643505524E+03  0.50400000000E-02 0. -1.
         -1   -1    0    0    0  501 -0.00000000000E+00 -0.00000000000E+00 -0.94977242052E+03  0.94977242054E+03  0.50400000000E-02 0.  1.
    8880023    1    1    2    0    0 -0.45723000808E+03 -0.18750057803E+03 -0.12334686062E+03  0.83261059406E+03  0.65864270000E+03 0.  0.
    8880022    1    1    2    0    0  0.45723000808E+03  0.18750057803E+03 -0.32999050469E+03  0.61359688172E+03  0.15294330000E+03 0.  0.
<mgrwt>
<rscale>  0 0.73308551E+03</rscale>
<asrwt>0</asrwt>
<pdfrwt beam="1">  1        1 0.76374624E-01 0.82342331E+03</pdfrwt>
<pdfrwt beam="2">  1       -1 0.14611883E+00 0.82342331E+03</pdfrwt>
<totfact> 0.17075209E+01</totfact>
</mgrwt>
</event>
<event>
 4    5  0.1074803E-007  0.9577234E+03  0.7818608E-02  0.9439088E-01
         -1   -1    0    0    0  501 -0.00000000000E+00  0.00000000000E+00  0.10534736985E+04  0.10534736985E+04  0.50400000000E-02 0.  1.
          1   -1    0    0  501    0  0.00000000000E+00 -0.00000000000E+00 -0.12991542843E+04  0.12991542843E+04  0.50400000000E-02 0. -1.
    8880023    1    1    2    0    0 -0.51148849120E+03  0.47096009418E+03 -0.95157156295E+03  0.13500824170E+04  0.65864270000E+03 0.  0.
    8880022    1    1    2    0    0  0.51148849120E+03 -0.47096009418E+03  0.70589097713E+03  0.10025455658E+04  0.15294330000E+03 0.  0.
<mgrwt>
<rscale>  0 0.88927547E+03</rscale>
<asrwt>0</asrwt>
<pdfrwt beam="1">  1        1 0.19986989E+00 0.95772339E+03</pdfrwt>
<pdfrwt beam="2">  1       -1 0.16207288E+00 0.95772339E+03</pdfrwt>
<totfact> 0.25788054E+00</totfact>
</mgrwt>
</event>
<event>
 4    5  0.1074803E-007  0.1459441E+04  0.7818608E-02  0.8938820E-01
         -1   -1    0    0    0  501 -0.00000000000E+00  0.00000000000E+00  0.19543962430E+04  0.19543962430E+04  0.50400000000E-02 0.  1.
          1   -1    0    0  501    0  0.00000000000E+00 -0.00000000000E+00 -0.13760125123E+04  0.13760125124E+04  0.50400000000E-02 0. -1.
    8880023    1    1    2    0    0 -0.63572630187E+03 -0.11366657463E+04 -0.58990226818E+03  0.15741511496E+04  0.65864270000E+03 0.  0.
    8880022    1    1    2    0    0  0.63572630187E+03  0.11366657463E+04  0.11682859989E+04  0.17562576058E+04  0.15294330000E+03 0.  0.
<mgrwt>
<rscale>  0 0.14209102E+04</rscale>
<asrwt>0</asrwt>
<pdfrwt beam="1">  1        1 0.21169423E+00 0.14594407E+04</pdfrwt>
<pdfrwt beam="2">  1       -1 0.30067634E+00 0.14594407E+04</pdfrwt>
<totfact> 0.24841884E-01</totfact>
</mgrwt>
</event>
<event>
 4    5  0.1074803E-007  0.1288686E+04  0.7818608E-02  0.9075392E-01
         -1   -1    0    0    0  501 -0.00000000000E+00  0.00000000000E+00  0.21172763886E+04  0.21172763886E+04  0.50400000000E-02 0.  1.
          1   -1    0    0  501    0  0.00000000000E+00 -0.00000000000E+00 -0.13282809629E+04  0.13282809630E+04  0.50400000000E-02 0. -1.
    8880023    1    1    2    0    0 -0.11009004711E+04  0.12214883223E+03  0.16071682092E+04  0.20600247676E+04  0.65864270000E+03 0.  0.
    8880022    1    1    2    0    0  0.11009004711E+04 -0.12214883223E+03 -0.81817278347E+03  0.13855325839E+04  0.15294330000E+03 0.  0.
<mgrwt>
<rscale>  0 0.12437610E+04</rscale>
<asrwt>0</asrwt>
<pdfrwt beam="1">  1        1 0.20435092E+00 0.12886863E+04</pdfrwt>
<pdfrwt beam="2">  1       -1 0.32573483E+00 0.12886863E+04</pdfrwt>
<totfact> 0.18872170E-01</totfact>
</mgrwt>
</event>
<event>
 4    5  0.1074803E-007  0.8668195E+03  0.7818608E-02  0.9581546E-01
          1   -1    0    0  501    0  0.00000000000E+00  0.00000000000E+00  0.67040644666E+03  0.67040644668E+03  0.50400000000E-02 0. -1.
         -1   -1    0    0    0  501 -0.00000000000E+00 -0.00000000000E+00 -0.96208549607E+03  0.96208549609E+03  0.50400000000E-02 0.  1.
    8880023    1    1    2    0    0  0.34990347168E+03  0.44173904799E+03  0.17583841733E+03  0.88447452269E+03  0.65864270000E+03 0.  0.
    8880022    1    1    2    0    0 -0.34990347168E+03 -0.44173904799E+03 -0.46751746675E+03  0.74801742008E+03  0.15294330000E+03 0.  0.
<mgrwt>
<rscale>  0 0.78529716E+03</rscale>
<asrwt>0</asrwt>
<pdfrwt beam="1">  1        1 0.10313945E+00 0.86681949E+03</pdfrwt>
<pdfrwt beam="2">  1       -1 0.14801315E+00 0.86681949E+03</pdfrwt>
<totfact> 0.10686710E+01</totfact>
</mgrwt>
</event>
<event>
 4    5  0.1074803E-007  0.6731665E+03  0.7818608E-02  0.1013488E+00
         -1   -1    0    0    0  501 -0.00000000000E+00  0.00000000000E+00  0.27970146588E+03  0.27970146592E+03  0.50400000000E-02 0.  1.
          1   -1    0    0  501    0  0.00000000000E+00 -0.00000000000E+00 -0.90147834765E+03  0.90147834767E+03  0.50400000000E-02 0. -1.
    8880023    1    1    2    0    0  0.71099287567E+02  0.11953139807E+03 -0.68952546206E+03  0.96363812342E+03  0.65864270000E+03 0. -1.
    8880022    1    1    2    0    0 -0.71099287567E+02 -0.11953139807E+03  0.67748580282E+02  0.21754169017E+03  0.15294330000E+03 0.  0.
<mgrwt>
<rscale>  0 0.50111707E+03</rscale>
<asrwt>0</asrwt>
<pdfrwt beam="1">  1        1 0.13868898E+00 0.67316645E+03</pdfrwt>
<pdfrwt beam="2">  1       -1 0.43030995E-01 0.67316645E+03</pdfrwt>
<totfact> 0.99049095E+01</totfact>
</mgrwt>
</event>
<event>
 4    5  0.1074803E-007  0.1224397E+04  0.7818608E-02  0.9133764E-01
         -1   -1    0    0    0  501 -0.00000000000E+00  0.00000000000E+00  0.10454606981E+04  0.10454606981E+04  0.50400000000E-02 0.  1.
          1   -1    0    0  501    0  0.00000000000E+00 -0.00000000000E+00 -0.17476124049E+04  0.17476124049E+04  0.50400000000E-02 0. -1.
    8880023    1    1    2    0    0 -0.30477896251E+03  0.98612724740E+03 -0.11292357827E+04  0.16656292574E+04  0.65864270000E+03 0.  0.
    8880022    1    1    2    0    0  0.30477896251E+03 -0.98612724740E+03  0.42708407593E+03  0.11274438456E+04  0.15294330000E+03 0.  0.
<mgrwt>
<rscale>  0 0.11764043E+04</rscale>
<asrwt>0</asrwt>
<pdfrwt beam="1">  1        1 0.26886345E+00 0.12243967E+04</pdfrwt>
<pdfrwt beam="2">  1       -1 0.16084011E+00 0.12243967E+04</pdfrwt>
<totfact> 0.12459696E+00</totfact>
</mgrwt>
</event>
<event>
 4    5  0.1074803E-007  0.8182422E+03  0.7818608E-02  0.9672658E-01
          1   -1    0    0  501    0  0.00000000000E+00  0.00000000000E+00  0.18503377350E+04  0.18503377350E+04  0.50400000000E-02 0. -1.
         -1   -1    0    0    0  501 -0.00000000000E+00 -0.00000000000E+00 -0.10049533903E+04  0.10049533903E+04  0.50400000000E-02 0.  1.
    8880023    1    1    2    0    0 -0.45254716540E+03 -0.17581582774E+03  0.16851498484E+04  0.18732993248E+04  0.65864270000E+03 0. -1.
    8880022    1    1    2    0    0  0.45254716540E+03  0.17581582774E+03 -0.83976550368E+03  0.98199180056E+03  0.15294330000E+03 0.  0.
<mgrwt>
<rscale>  0 0.72668337E+03</rscale>
<asrwt>0</asrwt>
<pdfrwt beam="1">  1        1 0.28466734E+00 0.81824223E+03</pdfrwt>
<pdfrwt beam="2">  1       -1 0.15460822E+00 0.81824223E+03</pdfrwt>
<totfact> 0.12592784E+00</totfact>
</mgrwt>
</event>
<event>
 4    5  0.1074803E-007  0.1997464E+04  0.7818608E-02  0.8620517E-01
         -1   -1    0    0    0  501 -0.00000000000E+00  0.00000000000E+00  0.14799048917E+04  0.14799048917E+04  0.50400000000E-02 0.  1.
          1   -1    0    0  501    0  0.00000000000E+00 -0.00000000000E+00 -0.29973862195E+04  0.29973862195E+04  0.50400000000E-02 0. -1.
    8880023    1    1    2    0    0 -0.15663648076E+04  0.10500258248E+04  0.83003107038E+02  0.19991880015E+04  0.65864270000E+03 0.  1.
    8880022    1    1    2    0    0  0.15663648076E+04 -0.10500258248E+04 -0.16004844349E+04  0.24781031097E+04  0.15294330000E+03 0.  0.
<mgrwt>
<rscale>  0 0.19705443E+04</rscale>
<asrwt>0</asrwt>
<pdfrwt beam="1">  1        1 0.46113634E+00 0.19974642E+04</pdfrwt>
<pdfrwt beam="2">  1       -1 0.22767768E+00 0.19974642E+04</pdfrwt>
<totfact> 0.52368638E-02</totfact>
</mgrwt>
</event>
<event>
 4    5  0.1074803E-007  0.1013414E+04  0.7818608E-02  0.9364214E-01
         -1   -1    0    0    0  501 -0.00000000000E+00  0.00000000000E+00  0.14312216283E+04  0.14312216283E+04  0.50400000000E-02 0.  1.
          1   -1    0    0  501    0  0.00000000000E+00 -0.00000000000E+00 -0.13174087950E+04  0.13174087950E+04  0.50400000000E-02 0. -1.
    8880023    1    1    2    0    0  0.28887375673E+03  0.71396783468E+03 -0.97494851813E+03  0.14062478215E+04  0.65864270000E+03 0. -1.
    8880022    1    1    2    0    0 -0.28887375673E+03 -0.71396783468E+03  0.10887613514E+04  0.13423826018E+04  0.15294330000E+03 0.  0.
<mgrwt>
<rscale>  0 0.95080132E+03</rscale>
<asrwt>0</asrwt>
<pdfrwt beam="1">  1        1 0.20267828E+00 0.10134142E+04</pdfrwt>
<pdfrwt beam="2">  1       -1 0.22018794E+00 0.10134142E+04</pdfrwt>
<totfact> 0.96949944E-01</totfact>
</mgrwt>
</event>
<event>
 4    5  0.1074803E-007  0.9807569E+03  0.7818608E-02  0.9407178E-01
          1   -1    0    0  501    0  0.00000000000E+00  0.00000000000E+00  0.30647357229E+04  0.30647357229E+04  0.50400000000E-02 0. -1.
         -1   -1    0    0    0  501 -0.00000000000E+00 -0.00000000000E+00 -0.59117861491E+03  0.59117861493E+03  0.50400000000E-02 0.  1.
    8880023    1    1    2    0    0  0.36041145008E+03 -0.63101310678E+03  0.27056197881E+04  0.28778920408E+04  0.65864270000E+03 0.  0.
    8880022    1    1    2    0    0 -0.36041145008E+03  0.63101310678E+03 -0.23206268009E+03  0.77802229709E+03  0.15294330000E+03 0.  0.
<mgrwt>
<rscale>  0 0.91487307E+03</rscale>
<asrwt>0</asrwt>
<pdfrwt beam="1">  1        1 0.47149782E+00 0.98075693E+03</pdfrwt>
<pdfrwt beam="2">  1       -1 0.90950554E-01 0.98075693E+03</pdfrwt>
<totfact> 0.65321130E-01</totfact>
</mgrwt>
</event>
<event>
 4    5  0.1074803E-007  0.7487888E+03  0.7818608E-02  0.9835048E-01
          1   -1    0    0  501    0  0.00000000000E+00  0.00000000000E+00  0.39265259932E+04  0.39265259932E+04  0.50400000000E-02 0. -1.
         -1   -1    0    0    0  501 -0.00000000000E+00 -0.00000000000E+00 -0.14483375272E+03  0.14483375281E+03  0.50400000000E-02 0.  1.
    8880023    1    1    2    0    0  0.15216906407E+02 -0.35586912813E+03  0.35314522517E+04  0.36099639337E+04  0.65864270000E+03 0. -1.
    8880022    1    1    2    0    0 -0.15216906407E+02  0.35586912813E+03  0.25023998880E+03  0.46139581230E+03  0.15294330000E+03 0.  0.
<mgrwt>
<rscale>  0 0.63515115E+03</rscale>
<asrwt>0</asrwt>
<pdfrwt beam="1">  1        1 0.60408078E+00 0.74878875E+03</pdfrwt>
<pdfrwt beam="2">  1       -1 0.22282121E-01 0.74878875E+03</pdfrwt>
<totfact> 0.20799943E+00</totfact>
</mgrwt>
</event>
<event>
 4    5  0.1074803E-007  0.1002075E+04  0.7818608E-02  0.9378848E-01
         -1   -1    0    0    0  501 -0.00000000000E+00  0.00000000000E+00  0.36566881204E+03  0.36566881207E+03  0.50400000000E-02 0.  1.
          1   -1    0    0  501    0  0.00000000000E+00 -0.00000000000E+00 -0.31242879963E+04  0.31242879963E+04  0.50400000000E-02 0. -1.
    8880023    1    1    2    0    0 -0.25903764128E+03 -0.70939638585E+03 -0.24727775972E+04  0.26681047550E+04  0.65864270000E+03 0. -1.
    8880022    1    1    2    0    0  0.25903764128E+03  0.70939638585E+03 -0.28584158708E+03  0.82185205346E+03  0.15294330000E+03 0.  0.
<mgrwt>
<rscale>  0 0.93837024E+03</rscale>
<asrwt>0</asrwt>
<pdfrwt beam="1">  1        1 0.48065967E+00 0.10020748E+04</pdfrwt>
<pdfrwt beam="2">  1       -1 0.56256742E-01 0.10020748E+04</pdfrwt>
<totfact> 0.15950174E+00</totfact>
</mgrwt>
</event>
<event>
 4    5  0.1074803E-007  0.7911498E+03  0.7818608E-02  0.9730269E-01
         -1   -1    0    0    0  501 -0.00000000000E+00  0.00000000000E+00  0.15583980382E+04  0.15583980383E+04  0.50400000000E-02 0.  1.
          1   -1    0    0  501    0  0.00000000000E+00 -0.00000000000E+00 -0.45950319513E+03  0.45950319516E+03  0.50400000000E-02 0. -1.
    8880023    1    1    2    0    0  0.42515328458E+03  0.10654816373E+03 -0.35758632684E+02  0.79195751948E+03  0.65864270000E+03 0. -1.
    8880022    1    1    2    0    0 -0.42515328458E+03 -0.10654816373E+03  0.11346534758E+04  0.12259437139E+04  0.15294330000E+03 0.  0.
<mgrwt>
<rscale>  0 0.69242833E+03</rscale>
<asrwt>0</asrwt>
<pdfrwt beam="1">  1        1 0.70692800E-01 0.79114982E+03</pdfrwt>
<pdfrwt beam="2">  1       -1 0.23975354E+00 0.79114982E+03</pdfrwt>
<totfact> 0.41871293E+00</totfact>
</mgrwt>
</event>
<event>
 4    5  0.1074803E-007  0.8693963E+03  0.7818608E-02  0.9577063E-01
          1   -1    0    0  501    0  0.00000000000E+00  0.00000000000E+00  0.23599229501E+04  0.23599229501E+04  0.50400000000E-02 0. -1.
         -1   -1    0    0    0  501 -0.00000000000E+00 -0.00000000000E+00 -0.39951652791E+03  0.39951652794E+03  0.50400000000E-02 0.  1.
    8880023    1    1    2    0    0  0.54492063702E+03  0.15843351539E+03  0.19893137449E+04  0.21709949473E+04  0.65864270000E+03 0.  0.
    8880022    1    1    2    0    0 -0.54492063702E+03 -0.15843351539E+03 -0.28907322663E+02  0.58844453075E+03  0.15294330000E+03 0.  0.
<mgrwt>
<rscale>  0 0.78833090E+03</rscale>
<asrwt>0</asrwt>
<pdfrwt beam="1">  1        1 0.36306507E+00 0.86939628E+03</pdfrwt>
<pdfrwt beam="2">  1       -1 0.61464082E-01 0.86939628E+03</pdfrwt>
<totfact> 0.47068570E+00</totfact>
</mgrwt>
</event>
<event>
 4    5  0.1074803E-007  0.9772835E+03  0.7818608E-02  0.9411900E-01
         -1   -1    0    0    0  501 -0.00000000000E+00  0.00000000000E+00  0.79624474432E+03  0.79624474434E+03  0.50400000000E-02 0.  1.
          1   -1    0    0  501    0  0.00000000000E+00 -0.00000000000E+00 -0.15060100548E+04  0.15060100548E+04  0.50400000000E-02 0. -1.
    8880023    1    1    2    0    0 -0.58032573685E+03  0.42952858056E+03 -0.10967013932E+04  0.14689577647E+04  0.65864270000E+03 0. -1.
    8880022    1    1    2    0    0  0.58032573685E+03 -0.42952858056E+03  0.38693608277E+03  0.83329703440E+03  0.15294330000E+03 0.  0.
<mgrwt>
<rscale>  0 0.91102761E+03</rscale>
<asrwt>0</asrwt>
<pdfrwt beam="1">  1        1 0.23169385E+00 0.97728346E+03</pdfrwt>
<pdfrwt beam="2">  1       -1 0.12249919E+00 0.97728346E+03</pdfrwt>
<totfact> 0.38446794E+00</totfact>
</mgrwt>
</event>
<event>
 4    5  0.1074803E-007  0.7910786E+03  0.7818608E-02  0.9730429E-01
          1   -1    0    0  501    0  0.00000000000E+00  0.00000000000E+00  0.12108220786E+04  0.12108220786E+04  0.50400000000E-02 0. -1.
         -1   -1    0    0    0  501 -0.00000000000E+00 -0.00000000000E+00 -0.68186743771E+03  0.68186743773E+03  0.50400000000E-02 0.  1.
    8880023    1    1    2    0    0 -0.20768194851E+03  0.38582812437E+03  0.97052460528E+03  0.12520875964E+04  0.65864270000E+03 0.  0.
    8880022    1    1    2    0    0  0.20768194851E+03 -0.38582812437E+03 -0.44156996443E+03  0.64060191992E+03  0.15294330000E+03 0.  1.
<mgrwt>
<rscale>  0 0.69233631E+03</rscale>
<asrwt>0</asrwt>
<pdfrwt beam="1">  1        1 0.18628032E+00 0.79107859E+03</pdfrwt>
<pdfrwt beam="2">  1       -1 0.10490268E+00 0.79107859E+03</pdfrwt>
<totfact> 0.92137388E+00</totfact>
</mgrwt>
</event>
<event>
 4    5  0.2125081E-007  0.1320723E+04  0.7818608E-02  0.9047868E-01
         -1   -1    0    0    0  501 -0.00000000000E+00  0.00000000000E+00  0.13094447915E+04  0.13094447915E+04  0.50400000000E-02 0.  1.
          1   -1    0    0  501    0  0.00000000000E+00 -0.00000000000E+00 -0.38799080727E+04  0.38799080727E+04  0.50400000000E-02 0. -1.
    8880023    1    1    2    0    0  0.68493852003E+03  0.91725525258E+03 -0.34781185016E+04  0.37204322991E+04  0.65864270000E+03 0.  0.
    8880022    1    1    2    0    0 -0.68493852003E+03 -0.91725525258E+03  0.90765522038E+03  0.14689205651E+04  0.15294330000E+03 0.  0.
<mgrwt>
<rscale>  0 0.12771700E+04</rscale>
<asrwt>0</asrwt>
<pdfrwt beam="1">  1        1 0.59690893E+00 0.13207226E+04</pdfrwt>
<pdfrwt beam="2">  1       -1 0.20145305E+00 0.13207226E+04</pdfrwt>
<totfact> 0.17668595E-02</totfact>
</mgrwt>
</event>
<event>
 4    5  0.1074803E-007  0.6685459E+03  0.7818608E-02  0.1016727E+00
         -1   -1    0    0    0  501 -0.00000000000E+00  0.00000000000E+00  0.27065873254E+04  0.27065873255E+04  0.50400000000E-02 0.  1.
          1   -1    0    0  501    0  0.00000000000E+00 -0.00000000000E+00 -0.11978242514E+03  0.11978242525E+03  0.50400000000E-02 0. -1.
    8880023    1    1    2    0    0  0.89853218643E+02  0.71202848680E+02  0.86133303936E+03  0.10903431834E+04  0.65864270000E+03 0. -1.
    8880022    1    1    2    0    0 -0.89853218643E+02 -0.71202848680E+02  0.17254718609E+04  0.17360265673E+04  0.15294330000E+03 0.  0.
<mgrwt>
<rscale>  0 0.48886306E+03</rscale>
<asrwt>0</asrwt>
<pdfrwt beam="1">  1        1 0.18428065E-01 0.66854592E+03</pdfrwt>
<pdfrwt beam="2">  1       -1 0.41639806E+00 0.66854592E+03</pdfrwt>
<totfact> 0.17421871E+00</totfact>
</mgrwt>
</event>
<event>
 4    5  0.1074803E-007  0.1016178E+04  0.7818608E-02  0.9360691E-01
          1   -1    0    0  501    0  0.00000000000E+00  0.00000000000E+00  0.77229754532E+03  0.77229754534E+03  0.50400000000E-02 0. -1.
         -1   -1    0    0    0  501 -0.00000000000E+00 -0.00000000000E+00 -0.15290730318E+04  0.15290730318E+04  0.50400000000E-02 0.  1.
    8880023    1    1    2    0    0 -0.27173931432E+03 -0.72454498904E+03  0.22618755627E+03  0.10410469312E+04  0.65864270000E+03 0.  0.
    8880022    1    1    2    0    0  0.27173931432E+03  0.72454498904E+03 -0.98296304275E+03  0.12603236459E+04  0.15294330000E+03 0.  0.
<mgrwt>
<rscale>  0 0.95382470E+03</rscale>
<asrwt>0</asrwt>
<pdfrwt beam="1">  1        1 0.11881501E+00 0.10161781E+04</pdfrwt>
<pdfrwt beam="2">  1       -1 0.23524201E+00 0.10161781E+04</pdfrwt>
<totfact> 0.20474320E+00</totfact>
</mgrwt>
</event>
<event>
 4    5  0.1074803E-007  0.8092775E+03  0.7818608E-02  0.9691084E-01
          1   -1    0    0  501    0  0.00000000000E+00  0.00000000000E+00  0.29972047378E+04  0.29972047378E+04  0.50400000000E-02 0. -1.
         -1   -1    0    0    0  501 -0.00000000000E+00 -0.00000000000E+00 -0.53532250978E+03  0.53532250980E+03  0.50400000000E-02 0.  1.
    8880023    1    1    2    0    0  0.32749162770E+03  0.33744488292E+03  0.28123301534E+04  0.29264536410E+04  0.65864270000E+03 0. -1.
    8880022    1    1    2    0    0 -0.32749162770E+03 -0.33744488292E+03 -0.35044792533E+03  0.60607360659E+03  0.15294330000E+03 0.  0.
<mgrwt>
<rscale>  0 0.71550141E+03</rscale>
<asrwt>0</asrwt>
<pdfrwt beam="1">  1        1 0.46110843E+00 0.80927747E+03</pdfrwt>
<pdfrwt beam="2">  1       -1 0.82357308E-01 0.80927747E+03</pdfrwt>
<totfact> 0.93771960E-01</totfact>
</mgrwt>
</event>
<event>
 4    5  0.1074803E-007  0.7003064E+03  0.7818608E-02  0.9995932E-01
          1   -1    0    0  501    0  0.00000000000E+00  0.00000000000E+00  0.21595500466E+04  0.21595500466E+04  0.50400000000E-02 0. -1.
         -1   -1    0    0    0  501 -0.00000000000E+00 -0.00000000000E+00 -0.60916070395E+03  0.60916070397E+03  0.50400000000E-02 0.  1.
    8880023    1    1    2    0    0  0.13831837114E+03  0.19361526209E+03  0.20655306426E+04  0.21810194597E+04  0.65864270000E+03 0. -1.
    8880022    1    1    2    0    0 -0.13831837114E+03 -0.19361526209E+03 -0.51514129995E+03  0.58769129094E+03  0.15294330000E+03 0.  0.
<mgrwt>
<rscale>  0 0.55828947E+03</rscale>
<asrwt>0</asrwt>
<pdfrwt beam="1">  1        1 0.33223847E+00 0.70030640E+03</pdfrwt>
<pdfrwt beam="2">  1       -1 0.93717030E-01 0.70030640E+03</pdfrwt>
<totfact> 0.27327491E+00</totfact>
</mgrwt>
</event>
<event>
 4    5  0.1074803E-007  0.8013650E+03  0.7818608E-02  0.9707852E-01
          1   -1    0    0  501    0  0.00000000000E+00  0.00000000000E+00  0.15775853287E+04  0.15775853287E+04  0.50400000000E-02 0. -1.
         -1   -1    0    0    0  501 -0.00000000000E+00 -0.00000000000E+00 -0.56099407847E+03  0.56099407850E+03  0.50400000000E-02 0.  1.
    8880023    1    1    2    0    0 -0.38875705580E+03 -0.23925633908E+03  0.13380717704E+04  0.15596864791E+04  0.65864270000E+03 0. -1.
    8880022    1    1    2    0    0  0.38875705580E+03  0.23925633908E+03 -0.32148052021E+03  0.57889292802E+03  0.15294330000E+03 0.  0.
<mgrwt>
<rscale>  0 0.70551182E+03</rscale>
<asrwt>0</asrwt>
<pdfrwt beam="1">  1        1 0.24270543E+00 0.80136499E+03</pdfrwt>
<pdfrwt beam="2">  1       -1 0.86306784E-01 0.80136499E+03</pdfrwt>
<totfact> 0.79076135E+00</totfact>
</mgrwt>
</event>
<event>
 4    5  0.1074803E-007  0.1787315E+04  0.7818608E-02  0.8729586E-01
         -1   -1    0    0    0  501 -0.00000000000E+00  0.00000000000E+00  0.29098154327E+04  0.29098154327E+04  0.50400000000E-02 0.  1.
          1   -1    0    0  501    0  0.00000000000E+00 -0.00000000000E+00 -0.11352726778E+04  0.11352726778E+04  0.50400000000E-02 0. -1.
    8880023    1    1    2    0    0 -0.14391055550E+04  0.83045867313E+03  0.15416937640E+04  0.23603635895E+04  0.65864270000E+03 0.  0.
    8880022    1    1    2    0    0  0.14391055550E+04 -0.83045867313E+03  0.23284899090E+03  0.16847245210E+04  0.15294330000E+03 0.  0.
<mgrwt>
<rscale>  0 0.17568557E+04</rscale>
<asrwt>0</asrwt>
<pdfrwt beam="1">  1        1 0.17465734E+00 0.17873155E+04</pdfrwt>
<pdfrwt beam="2">  1       -1 0.44766391E+00 0.17873155E+04</pdfrwt>
<totfact> 0.36779324E-02</totfact>
</mgrwt>
</event>
<event>
 4    5  0.1074803E-007  0.8562640E+03  0.7818608E-02  0.9600244E-01
         -1   -1    0    0    0  501 -0.00000000000E+00  0.00000000000E+00  0.18667768195E+04  0.18667768195E+04  0.50400000000E-02 0.  1.
          1   -1    0    0  501    0  0.00000000000E+00 -0.00000000000E+00 -0.42727555619E+03  0.42727555622E+03  0.50400000000E-02 0. -1.
    8880023    1    1    2    0    0  0.54151614933E+03 -0.78346011248E+02  0.12929164980E+03  0.86597019258E+03  0.65864270000E+03 0.  0.
    8880022    1    1    2    0    0 -0.54151614933E+03  0.78346011248E+02  0.13102096135E+04  0.14280821831E+04  0.15294330000E+03 0.  0.
<mgrwt>
<rscale>  0 0.77280038E+03</rscale>
<asrwt>0</asrwt>
<pdfrwt beam="1">  1        1 0.65734701E-01 0.85626400E+03</pdfrwt>
<pdfrwt beam="2">  1       -1 0.28719643E+00 0.85626400E+03</pdfrwt>
<totfact> 0.22660794E+00</totfact>
</mgrwt>
</event>
<event>
 4    5  0.1074803E-007  0.6743194E+03  0.7818608E-02  0.1012739E+00
         -1   -1    0    0    0  501 -0.00000000000E+00  0.00000000000E+00  0.56579210318E+03  0.56579210320E+03  0.50400000000E-02 0.  1.
          1   -1    0    0  501    0  0.00000000000E+00 -0.00000000000E+00 -0.74492694429E+03  0.74492694431E+03  0.50400000000E-02 0. -1.
    8880023    1    1    2    0    0  0.18154047618E+01  0.14454482949E+03 -0.55937139415E+03  0.87612959446E+03  0.65864270000E+03 0. -1.
    8880022    1    1    2    0    0 -0.18154047618E+01 -0.14454482949E+03  0.38023655304E+03  0.43458945306E+03  0.15294330000E+03 0.  0.
<mgrwt>
<rscale>  0 0.50400543E+03</rscale>
<asrwt>0</asrwt>
<pdfrwt beam="1">  1        1 0.11460414E+00 0.67431944E+03</pdfrwt>
<pdfrwt beam="2">  1       -1 0.87044939E-01 0.67431944E+03</pdfrwt>
<totfact> 0.33242005E+01</totfact>
</mgrwt>
</event>
<event>
 4    5  0.1074803E-007  0.1417432E+04  0.7818608E-02  0.8970254E-01
          1   -1    0    0  501    0  0.00000000000E+00  0.00000000000E+00  0.35522662880E+04  0.35522662880E+04  0.50400000000E-02 0. -1.
         -1   -1    0    0    0  501 -0.00000000000E+00 -0.00000000000E+00 -0.99247693175E+03  0.99247693177E+03  0.50400000000E-02 0.  1.
    8880023    1    1    2    0    0  0.12529129638E+04  0.74249838563E+02  0.29064717938E+04  0.32336809409E+04  0.65864270000E+03 0.  0.
    8880022    1    1    2    0    0 -0.12529129638E+04 -0.74249838563E+02 -0.34668243756E+03  0.13110622788E+04  0.15294330000E+03 0.  0.
<mgrwt>
<rscale>  0 0.13775185E+04</rscale>
<asrwt>0</asrwt>
<pdfrwt beam="1">  1        1 0.54650250E+00 0.14174322E+04</pdfrwt>
<pdfrwt beam="2">  1       -1 0.15268876E+00 0.14174322E+04</pdfrwt>
<totfact> 0.73085354E-02</totfact>
</mgrwt>
</event>
<event>
 4    5  0.1074803E-007  0.8031444E+03  0.7818608E-02  0.9704038E-01
         -1   -1    0    0    0  501 -0.00000000000E+00  0.00000000000E+00  0.20838563920E+03  0.20838563926E+03  0.50400000000E-02 0.  1.
          1   -1    0    0  501    0  0.00000000000E+00 -0.00000000000E+00 -0.24453194735E+04  0.24453194735E+04  0.50400000000E-02 0. -1.
    8880023    1    1    2    0    0  0.45813152806E+03  0.36690118108E+02 -0.19025326707E+04  0.20651080919E+04  0.65864270000E+03 0.  0.
    8880022    1    1    2    0    0 -0.45813152806E+03 -0.36690118108E+02 -0.33440116359E+03  0.58859702088E+03  0.15294330000E+03 0.  0.
<mgrwt>
<rscale>  0 0.70776874E+03</rscale>
<asrwt>0</asrwt>
<pdfrwt beam="1">  1        1 0.37620297E+00 0.80314436E+03</pdfrwt>
<pdfrwt beam="2">  1       -1 0.32059331E-01 0.80314436E+03</pdfrwt>
<totfact> 0.13972976E+01</totfact>
</mgrwt>
</event>
<event>
 4    5  0.1074803E-007  0.1092168E+04  0.7818608E-02  0.9269826E-01
         -1   -1    0    0    0  501 -0.00000000000E+00  0.00000000000E+00  0.18015901031E+04  0.18015901031E+04  0.50400000000E-02 0.  1.
          1   -1    0    0  501    0  0.00000000000E+00 -0.00000000000E+00 -0.58650192893E+03  0.58650192895E+03  0.50400000000E-02 0. -1.
    8880023    1    1    2    0    0  0.65749651016E+03 -0.57159426171E+03  0.34009587230E+03  0.11438955676E+04  0.65864270000E+03 0.  0.
    8880022    1    1    2    0    0 -0.65749651016E+03  0.57159426171E+03  0.87499230191E+03  0.12441964645E+04  0.15294330000E+03 0.  0.
<mgrwt>
<rscale>  0 0.10360882E+04</rscale>
<asrwt>0</asrwt>
<pdfrwt beam="1">  1        1 0.90231067E-01 0.10921684E+04</pdfrwt>
<pdfrwt beam="2">  1       -1 0.27716771E+00 0.10921684E+04</pdfrwt>
<totfact> 0.16429702E+00</totfact>
</mgrwt>
</event>
<event>
 4    5  0.1074803E-007  0.9671890E+03  0.7818608E-02  0.9425803E-01
         -1   -1    0    0    0  501 -0.00000000000E+00  0.00000000000E+00  0.62840029370E+03  0.62840029372E+03  0.50400000000E-02 0.  1.
          1   -1    0    0  501    0  0.00000000000E+00 -0.00000000000E+00 -0.18274928709E+04  0.18274928710E+04  0.50400000000E-02 0. -1.
    8880023    1    1    2    0    0 -0.23171393580E+03  0.66929294625E+03 -0.14021611781E+04  0.17033820979E+04  0.65864270000E+03 0. -1.
    8880022    1    1    2    0    0  0.23171393580E+03 -0.66929294625E+03  0.20306860081E+03  0.75251106676E+03  0.15294330000E+03 0.  0.
<mgrwt>
<rscale>  0 0.89982314E+03</rscale>
<asrwt>0</asrwt>
<pdfrwt beam="1">  1        1 0.28115275E+00 0.96718902E+03</pdfrwt>
<pdfrwt beam="2">  1       -1 0.96676969E-01 0.96718902E+03</pdfrwt>
<totfact> 0.40708227E+00</totfact>
</mgrwt>
</event>
<event>
 4    5  0.1074803E-007  0.9866811E+03  0.7818608E-02  0.9399194E-01
         -1   -1    0    0    0  501 -0.00000000000E+00  0.00000000000E+00  0.44689398538E+03  0.44689398541E+03  0.50400000000E-02 0.  1.
          1   -1    0    0  501    0  0.00000000000E+00 -0.00000000000E+00 -0.18096360272E+04  0.18096360272E+04  0.50400000000E-02 0. -1.
    8880023    1    1    2    0    0 -0.46002726412E+03  0.57280387965E+03 -0.10577509011E+04  0.14465049407E+04  0.65864270000E+03 0. -1.
    8880022    1    1    2    0    0  0.46002726412E+03 -0.57280387965E+03 -0.30499114070E+03  0.81002507195E+03  0.15294330000E+03 0.  0.
<mgrwt>
<rscale>  0 0.92142040E+03</rscale>
<asrwt>0</asrwt>
<pdfrwt beam="1">  1        1 0.27840554E+00 0.98668109E+03</pdfrwt>
<pdfrwt beam="2">  1       -1 0.68752922E-01 0.98668109E+03</pdfrwt>
<totfact> 0.86823045E+00</totfact>
</mgrwt>
</event>
<event>
 4    5  0.1074803E-007  0.8829156E+03  0.7818608E-02  0.9554034E-01
          1   -1    0    0  501    0  0.00000000000E+00  0.00000000000E+00  0.14846231729E+04  0.14846231729E+04  0.50400000000E-02 0. -1.
         -1   -1    0    0    0  501 -0.00000000000E+00 -0.00000000000E+00 -0.63329241402E+03  0.63329241404E+03  0.50400000000E-02 0.  1.
    8880023    1    1    2    0    0 -0.43378966049E+03 -0.39693350624E+03  0.11427405266E+04  0.14440899540E+04  0.65864270000E+03 0.  0.
    8880022    1    1    2    0    0  0.43378966049E+03  0.39693350624E+03 -0.29140976768E+03  0.67382563296E+03  0.15294330000E+03 0.  0.
<mgrwt>
<rscale>  0 0.80414714E+03</rscale>
<asrwt>0</asrwt>
<pdfrwt beam="1">  1        1 0.22840356E+00 0.88291556E+03</pdfrwt>
<pdfrwt beam="2">  1       -1 0.97429602E-01 0.88291556E+03</pdfrwt>
<totfact> 0.69178755E+00</totfact>
</mgrwt>
</event>
<event>
 4    5  0.1074803E-007  0.6851821E+03  0.7818608E-02  0.1006532E+00
          1   -1    0    0  501    0  0.00000000000E+00  0.00000000000E+00  0.17268057969E+03  0.17268057977E+03  0.50400000000E-02 0. -1.
         -1   -1    0    0    0  501 -0.00000000000E+00 -0.00000000000E+00 -0.19704050435E+04  0.19704050435E+04  0.50400000000E-02 0.  1.
    8880023    1    1    2    0    0  0.56244351941E+01 -0.18876613650E+03 -0.56922632758E+03  0.89078230047E+03  0.65864270000E+03 0. -1.
    8880022    1    1    2    0    0 -0.56244351941E+01  0.18876613650E+03 -0.12284981362E+04  0.12523033228E+04  0.15294330000E+03 0.  0.
<mgrwt>
<rscale>  0 0.52876470E+03</rscale>
<asrwt>0</asrwt>
<pdfrwt beam="1">  1        1 0.26566244E-01 0.68518209E+03</pdfrwt>
<pdfrwt beam="2">  1       -1 0.30313922E+00 0.68518209E+03</pdfrwt>
<totfact> 0.59881622E+00</totfact>
</mgrwt>
</event>
<event>
 4    5  0.1074803E-007  0.6688190E+03  0.7818608E-02  0.1016524E+00
          1   -1    0    0  501    0  0.00000000000E+00  0.00000000000E+00  0.22829989786E+03  0.22829989792E+03  0.50400000000E-02 0. -1.
         -1   -1    0    0    0  501 -0.00000000000E+00 -0.00000000000E+00 -0.86076589518E+03  0.86076589519E+03  0.50400000000E-02 0.  1.
    8880023    1    1    2    0    0  0.69717817225E+02  0.92994679892E+02 -0.37164370391E+03  0.76513909418E+03  0.65864270000E+03 0. -1.
    8880022    1    1    2    0    0 -0.69717817225E+02 -0.92994679892E+02 -0.26082229341E+03  0.32392669893E+03  0.15294330000E+03 0.  0.
<mgrwt>
<rscale>  0 0.48962104E+03</rscale>
<asrwt>0</asrwt>
<pdfrwt beam="1">  1        1 0.35123062E-01 0.66881895E+03</pdfrwt>
<pdfrwt beam="2">  1       -1 0.13242552E+00 0.66881895E+03</pdfrwt>
<totfact> 0.62056019E+01</totfact>
</mgrwt>
</event>
<event>
 4    5  0.1074803E-007  0.7209902E+03  0.7818608E-02  0.9919250E-01
          1   -1    0    0  501    0  0.00000000000E+00  0.00000000000E+00  0.87519768817E+03  0.87519768818E+03  0.50400000000E-02 0. -1.
         -1   -1    0    0    0  501 -0.00000000000E+00 -0.00000000000E+00 -0.10529813628E+04  0.10529813628E+04  0.50400000000E-02 0.  1.
    8880023    1    1    2    0    0 -0.16599247978E+03 -0.24179147509E+03  0.69094223273E+03  0.99861303617E+03  0.65864270000E+03 0.  0.
    8880022    1    1    2    0    0  0.16599247978E+03  0.24179147509E+03 -0.86872590736E+03  0.92956601481E+03  0.15294330000E+03 0.  0.
<mgrwt>
<rscale>  0 0.59337368E+03</rscale>
<asrwt>0</asrwt>
<pdfrwt beam="1">  1        1 0.13464580E+00 0.72099017E+03</pdfrwt>
<pdfrwt beam="2">  1       -1 0.16199713E+00 0.72099017E+03</pdfrwt>
<totfact> 0.55986895E+00</totfact>
</mgrwt>
</event>
<event>
 4    5  0.1074803E-007  0.1688140E+04  0.7818608E-02  0.8787075E-01
         -1   -1    0    0    0  501 -0.00000000000E+00  0.00000000000E+00  0.25720971004E+04  0.25720971004E+04  0.50400000000E-02 0.  1.
          1   -1    0    0  501    0  0.00000000000E+00 -0.00000000000E+00 -0.14334631803E+04  0.14334631803E+04  0.50400000000E-02 0. -1.
    8880023    1    1    2    0    0  0.12941369630E+04 -0.86093803405E+03 -0.48120911734E+03  0.17553851994E+04  0.65864270000E+03 0.  0.
    8880022    1    1    2    0    0 -0.12941369630E+04  0.86093803405E+03  0.16198430374E+04  0.22501750813E+04  0.15294330000E+03 0.  0.
<mgrwt>
<rscale>  0 0.16556424E+04</rscale>
<asrwt>0</asrwt>
<pdfrwt beam="1">  1        1 0.22053280E+00 0.16881395E+04</pdfrwt>
<pdfrwt beam="2">  1       -1 0.39570724E+00 0.16881395E+04</pdfrwt>
<totfact> 0.51572215E-02</totfact>
</mgrwt>
</event>
<event>
 4    5  0.1074803E-007  0.7596351E+03  0.7818608E-02  0.9806053E-01
         -1   -1    0    0    0  501 -0.00000000000E+00  0.00000000000E+00  0.49055672557E+03  0.49055672560E+03  0.50400000000E-02 0.  1.
          1   -1    0    0  501    0  0.00000000000E+00 -0.00000000000E+00 -0.21297796219E+04  0.21297796219E+04  0.50400000000E-02 0. -1.
    8880023    1    1    2    0    0  0.24550875687E+03 -0.28802895856E+03 -0.19594329510E+04  0.21015287118E+04  0.65864270000E+03 0.  0.
    8880022    1    1    2    0    0 -0.24550875687E+03  0.28802895856E+03  0.32021005474E+03  0.51880763568E+03  0.15294330000E+03 0.  0.
<mgrwt>
<rscale>  0 0.65038705E+03</rscale>
<asrwt>0</asrwt>
<pdfrwt beam="1">  1        1 0.32765840E+00 0.75963507E+03</pdfrwt>
<pdfrwt beam="2">  1       -1 0.75470267E-01 0.75963507E+03</pdfrwt>
<totfact> 0.45105290E+00</totfact>
</mgrwt>
</event>
<event>
 4    5  0.1074803E-007  0.1512562E+04  0.7818608E-02  0.8900816E-01
         -1   -1    0    0    0  501 -0.00000000000E+00  0.00000000000E+00  0.10252688933E+04  0.10252688933E+04  0.50400000000E-02 0.  1.
          1   -1    0    0  501    0  0.00000000000E+00 -0.00000000000E+00 -0.27465210727E+04  0.27465210727E+04  0.50400000000E-02 0. -1.
    8880023    1    1    2    0    0  0.13569648947E+04  0.11261143677E+03 -0.18568095139E+04  0.23949085240E+04  0.65864270000E+03 0. -1.
    8880022    1    1    2    0    0 -0.13569648947E+04 -0.11261143677E+03  0.13555733447E+03  0.13768814420E+04  0.15294330000E+03 0.  0.
<mgrwt>
<rscale>  0 0.14756398E+04</rscale>
<asrwt>0</asrwt>
<pdfrwt beam="1">  1        1 0.42254170E+00 0.15125625E+04</pdfrwt>
<pdfrwt beam="2">  1       -1 0.15773368E+00 0.15125625E+04</pdfrwt>
<totfact> 0.26235885E-01</totfact>
</mgrwt>
</event>
<event>
 4    5  0.1074803E-007  0.1547907E+04  0.7818608E-02  0.8876527E-01
         -1   -1    0    0    0  501 -0.00000000000E+00  0.00000000000E+00  0.15923711634E+04  0.15923711634E+04  0.50400000000E-02 0.  1.
          1   -1    0    0  501    0  0.00000000000E+00 -0.00000000000E+00 -0.26562935694E+04  0.26562935694E+04  0.50400000000E-02 0. -1.
    8880023    1    1    2    0    0  0.44044681805E+03  0.13297415836E+04 -0.20206928082E+04  0.25454303585E+04  0.65864270000E+03 0.  0.
    8880022    1    1    2    0    0 -0.44044681805E+03 -0.13297415836E+04  0.95677040212E+03  0.17032343744E+04  0.15294330000E+03 0.  0.
<mgrwt>
<rscale>  0 0.15119766E+04</rscale>
<asrwt>0</asrwt>
<pdfrwt beam="1">  1        1 0.40866055E+00 0.15479071E+04</pdfrwt>
<pdfrwt beam="2">  1       -1 0.24498018E+00 0.15479071E+04</pdfrwt>
<totfact> 0.74314699E-02</totfact>
</mgrwt>
</event>
<event>
 4    5  0.1074803E-007  0.1016297E+04  0.7818608E-02  0.9360540E-01
          1   -1    0    0  501    0  0.00000000000E+00  0.00000000000E+00  0.15351886688E+04  0.15351886688E+04  0.50400000000E-02 0. -1.
         -1   -1    0    0    0  501 -0.00000000000E+00 -0.00000000000E+00 -0.13887953279E+04  0.13887953279E+04  0.50400000000E-02 0.  1.
    8880023    1    1    2    0    0 -0.39067098651E+03  0.66815126793E+03  0.12224243016E+04  0.15897110794E+04  0.65864270000E+03 0.  0.
    8880022    1    1    2    0    0  0.39067098651E+03 -0.66815126793E+03 -0.10760309607E+04  0.13342729174E+04  0.15294330000E+03 0.  0.
<mgrwt>
<rscale>  0 0.95395501E+03</rscale>
<asrwt>0</asrwt>
<pdfrwt beam="1">  1        1 0.23618287E+00 0.10162973E+04</pdfrwt>
<pdfrwt beam="2">  1       -1 0.21366082E+00 0.10162973E+04</pdfrwt>
<totfact> 0.75528905E-01</totfact>
</mgrwt>
</event>
<event>
 4    5  0.1074803E-007  0.2499419E+04  0.7818608E-02  0.8410765E-01
          1   -1    0    0  501    0  0.00000000000E+00  0.00000000000E+00  0.37797707896E+04  0.37797707896E+04  0.50400000000E-02 0. -1.
         -1   -1    0    0    0  501 -0.00000000000E+00 -0.00000000000E+00 -0.22576372726E+04  0.22576372726E+04  0.50400000000E-02 0.  1.
    8880023    1    1    2    0    0 -0.18180458105E+04 -0.15836643333E+04  0.24017505774E+04  0.34663380291E+04  0.65864270000E+03 0.  0.
    8880022    1    1    2    0    0  0.18180458105E+04  0.15836643333E+04 -0.87961706043E+03  0.25710700332E+04  0.15294330000E+03 0.  0.
<mgrwt>
<rscale>  0 0.24782775E+04</rscale>
<asrwt>0</asrwt>
<pdfrwt beam="1">  1        1 0.58150320E+00 0.24994186E+04</pdfrwt>
<pdfrwt beam="2">  1       -1 0.34732881E+00 0.24994186E+04</pdfrwt>
<totfact> 0.19991532E-03</totfact>
</mgrwt>
</event>
<event>
 4    5  0.1074803E-007  0.6679141E+03  0.7818608E-02  0.1017204E+00
          1   -1    0    0  501    0  0.00000000000E+00  0.00000000000E+00  0.19479172070E+03  0.19479172076E+03  0.50400000000E-02 0. -1.
         -1   -1    0    0    0  501 -0.00000000000E+00 -0.00000000000E+00 -0.13436906082E+04  0.13436906082E+04  0.50400000000E-02 0.  1.
    8880023    1    1    2    0    0  0.53970152674E+01 -0.11076985113E+03 -0.42809342498E+03  0.79333049511E+03  0.65864270000E+03 0. -1.
    8880022    1    1    2    0    0 -0.53970152674E+01  0.11076985113E+03 -0.72080546253E+03  0.74515183387E+03  0.15294330000E+03 0.  0.
<mgrwt>
<rscale>  0 0.48709079E+03</rscale>
<asrwt>0</asrwt>
<pdfrwt beam="1">  1        1 0.29967958E-01 0.66791414E+03</pdfrwt>
<pdfrwt beam="2">  1       -1 0.20672163E+00 0.66791414E+03</pdfrwt>
<totfact> 0.21573063E+01</totfact>
</mgrwt>
</event>
<event>
 4    5  0.1074803E-007  0.6804136E+03  0.7818608E-02  0.1009091E+00
          1   -1    0    0  501    0  0.00000000000E+00  0.00000000000E+00  0.62876525388E+03  0.62876525390E+03  0.50400000000E-02 0. -1.
         -1   -1    0    0    0  501 -0.00000000000E+00 -0.00000000000E+00 -0.40464613429E+03  0.40464613432E+03  0.50400000000E-02 0.  1.
    8880023    1    1    2    0    0  0.15125344779E+03  0.79214131685E+02  0.35707583826E+03  0.76841775400E+03  0.65864270000E+03 0. -1.
    8880022    1    1    2    0    0 -0.15125344779E+03 -0.79214131685E+02 -0.13295671867E+03  0.26499363423E+03  0.15294330000E+03 0.  0.
<mgrwt>
<rscale>  0 0.51837647E+03</rscale>
<asrwt>0</asrwt>
<pdfrwt beam="1">  1        1 0.96733116E-01 0.68041362E+03</pdfrwt>
<pdfrwt beam="2">  1       -1 0.62253251E-01 0.68041362E+03</pdfrwt>
<totfact> 0.85779706E+01</totfact>
</mgrwt>
</event>
<event>
 4    5  0.1074803E-007  0.9362973E+03  0.7818608E-02  0.9470110E-01
          1   -1    0    0  501    0  0.00000000000E+00  0.00000000000E+00  0.13343960319E+04  0.13343960319E+04  0.50400000000E-02 0. -1.
         -1   -1    0    0    0  501 -0.00000000000E+00 -0.00000000000E+00 -0.12496735276E+04  0.12496735276E+04  0.50400000000E-02 0.  1.
    8880023    1    1    2    0    0 -0.63591477298E+03  0.19609884224E+03  0.10467202376E+04  0.14043773768E+04  0.65864270000E+03 0.  0.
    8880022    1    1    2    0    0  0.63591477298E+03 -0.19609884224E+03 -0.96199773321E+03  0.11796921828E+04  0.15294330000E+03 0.  0.
<mgrwt>
<rscale>  0 0.86523845E+03</rscale>
<asrwt>0</asrwt>
<pdfrwt beam="1">  1        1 0.20529170E+00 0.93629726E+03</pdfrwt>
<pdfrwt beam="2">  1       -1 0.19225747E+00 0.93629726E+03</pdfrwt>
<totfact> 0.14783762E+00</totfact>
</mgrwt>
</event>
<event>
 4    5  0.1074803E-007  0.1294091E+04  0.7818608E-02  0.9070680E-01
          1   -1    0    0  501    0  0.00000000000E+00  0.00000000000E+00  0.36695142557E+04  0.36695142557E+04  0.50400000000E-02 0. -1.
         -1   -1    0    0    0  501 -0.00000000000E+00 -0.00000000000E+00 -0.10154343701E+04  0.10154343702E+04  0.50400000000E-02 0.  1.
    8880023    1    1    2    0    0  0.11053007766E+04  0.13845963642E+03 -0.46053305730E+03  0.13735944747E+04  0.65864270000E+03 0.  1.
    8880022    1    1    2    0    0 -0.11053007766E+04 -0.13845963642E+03  0.31146129429E+04  0.33113541512E+04  0.15294330000E+03 0.  0.
<mgrwt>
<rscale>  0 0.12494037E+04</rscale>
<asrwt>0</asrwt>
<pdfrwt beam="1">  1        1 0.56454066E+00 0.12940908E+04</pdfrwt>
<pdfrwt beam="2">  1       -1 0.15622067E+00 0.12940908E+04</pdfrwt>
<totfact> 0.56367176E-02</totfact>
</mgrwt>
</event>
<event>
 4    5  0.1074803E-007  0.1053272E+04  0.7818608E-02  0.9314958E-01
          1   -1    0    0  501    0  0.00000000000E+00  0.00000000000E+00  0.22740940043E+04  0.22740940043E+04  0.50400000000E-02 0. -1.
         -1   -1    0    0    0  501 -0.00000000000E+00 -0.00000000000E+00 -0.62650176653E+03  0.62650176655E+03  0.50400000000E-02 0.  1.
    8880023    1    1    2    0    0  0.14426851481E+03  0.80917140861E+03  0.17659683887E+04  0.20562165083E+04  0.65864270000E+03 0.  0.
    8880022    1    1    2    0    0 -0.14426851481E+03 -0.80917140861E+03 -0.11837615095E+03  0.84437926254E+03  0.15294330000E+03 0.  0.
<mgrwt>
<rscale>  0 0.99417359E+03</rscale>
<asrwt>0</asrwt>
<pdfrwt beam="1">  1        1 0.34986062E+00 0.10532720E+04</pdfrwt>
<pdfrwt beam="2">  1       -1 0.96384887E-01 0.10532720E+04</pdfrwt>
<totfact> 0.20240157E+00</totfact>
</mgrwt>
</event>
<event>
 4    5  0.1074803E-007  0.7348927E+03  0.7818608E-02  0.9875082E-01
         -1   -1    0    0    0  501 -0.00000000000E+00  0.00000000000E+00  0.51019344854E+03  0.51019344856E+03  0.50400000000E-02 0.  1.
          1   -1    0    0  501    0  0.00000000000E+00 -0.00000000000E+00 -0.65373819527E+03  0.65373819529E+03  0.50400000000E-02 0. -1.
    8880023    1    1    2    0    0 -0.32191976442E+03 -0.51232584354E+02 -0.26908343752E+03  0.78260667965E+03  0.65864270000E+03 0.  0.
    8880022    1    1    2    0    0  0.32191976442E+03  0.51232584354E+02  0.12553869080E+03  0.38132496420E+03  0.15294330000E+03 0.  0.
<mgrwt>
<rscale>  0 0.61484268E+03</rscale>
<asrwt>0</asrwt>
<pdfrwt beam="1">  1        1 0.10057511E+00 0.73489273E+03</pdfrwt>
<pdfrwt beam="2">  1       -1 0.78491300E-01 0.73489273E+03</pdfrwt>
<totfact> 0.50203573E+01</totfact>
</mgrwt>
</event>
<event>
 4    5  0.1074803E-007  0.7968325E+03  0.7818608E-02  0.9717687E-01
          1   -1    0    0  501    0  0.00000000000E+00  0.00000000000E+00  0.92990891755E+03  0.92990891757E+03  0.50400000000E-02 0. -1.
         -1   -1    0    0    0  501 -0.00000000000E+00 -0.00000000000E+00 -0.51648334026E+03  0.51648334028E+03  0.50400000000E-02 0.  1.
    8880023    1    1    2    0    0 -0.30956700957E+03  0.32449968786E+03  0.53179557351E+03  0.95799192016E+03  0.65864270000E+03 0. -1.
    8880022    1    1    2    0    0  0.30956700957E+03 -0.32449968786E+03 -0.11836999621E+03  0.48840033768E+03  0.15294330000E+03 0.  0.
<mgrwt>
<rscale>  0 0.69973400E+03</rscale>
<asrwt>0</asrwt>
<pdfrwt beam="1">  1        1 0.14306291E+00 0.79683247E+03</pdfrwt>
<pdfrwt beam="2">  1       -1 0.79458976E-01 0.79683247E+03</pdfrwt>
<totfact> 0.27817658E+01</totfact>
</mgrwt>
</event>
<event>
 4    5  0.1074803E-007  0.6880357E+03  0.7818608E-02  0.1005100E+00
         -1   -1    0    0    0  501 -0.00000000000E+00  0.00000000000E+00  0.76312937623E+02  0.76312937790E+02  0.50400000000E-02 0.  1.
          1   -1    0    0  501    0  0.00000000000E+00 -0.00000000000E+00 -0.46600353108E+04  0.46600353108E+04  0.50400000000E-02 0. -1.
    8880023    1    1    2    0    0 -0.60255216393E+02  0.18961076787E+03 -0.43117054842E+04  0.43662566717E+04  0.65864270000E+03 0.  0.
    8880022    1    1    2    0    0  0.60255216393E+02 -0.18961076787E+03 -0.27201688902E+03  0.37009157694E+03  0.15294330000E+03 0.  0.
<mgrwt>
<rscale>  0 0.53469227E+03</rscale>
<asrwt>0</asrwt>
<pdfrwt beam="1">  1        1 0.71692829E+00 0.68803571E+03</pdfrwt>
<pdfrwt beam="2">  1       -1 0.11740456E-01 0.68803571E+03</pdfrwt>
<totfact> 0.12254638E+00</totfact>
</mgrwt>
</event>
<event>
 4    5  0.1074803E-007  0.8746171E+03  0.7818608E-02  0.9568073E-01
          1   -1    0    0  501    0  0.00000000000E+00  0.00000000000E+00  0.84397788285E+03  0.84397788286E+03  0.50400000000E-02 0. -1.
         -1   -1    0    0    0  501 -0.00000000000E+00 -0.00000000000E+00 -0.19411330064E+04  0.19411330064E+04  0.50400000000E-02 0.  1.
    8880023    1    1    2    0    0 -0.33583200492E+03  0.46729197795E+03  0.55031298576E+03  0.10333438521E+04  0.65864270000E+03 0. -1.
    8880022    1    1    2    0    0  0.33583200492E+03 -0.46729197795E+03 -0.16474681093E+04  0.17517670371E+04  0.15294330000E+03 0.  0.
<mgrwt>
<rscale>  0 0.79445832E+03</rscale>
<asrwt>0</asrwt>
<pdfrwt beam="1">  1        1 0.12984275E+00 0.87461714E+03</pdfrwt>
<pdfrwt beam="2">  1       -1 0.29863585E+00 0.87461714E+03</pdfrwt>
<totfact> 0.70647195E-01</totfact>
</mgrwt>
</event>
<event>
 4    5  0.1074803E-007  0.1220423E+04  0.7818608E-02  0.9137521E-01
         -1   -1    0    0    0  501 -0.00000000000E+00  0.00000000000E+00  0.14861253952E+04  0.14861253952E+04  0.50400000000E-02 0.  1.
          1   -1    0    0  501    0  0.00000000000E+00 -0.00000000000E+00 -0.15371347798E+04  0.15371347798E+04  0.50400000000E-02 0. -1.
    8880023    1    1    2    0    0 -0.40057201957E+03  0.94613117946E+03 -0.10291703999E+04  0.15964410637E+04  0.65864270000E+03 0.  0.
    8880022    1    1    2    0    0  0.40057201957E+03 -0.94613117946E+03  0.97816101526E+03  0.14268191113E+04  0.15294330000E+03 0.  0.
<mgrwt>
<rscale>  0 0.11722255E+04</rscale>
<asrwt>0</asrwt>
<pdfrwt beam="1">  1        1 0.23648227E+00 0.12204230E+04</pdfrwt>
<pdfrwt beam="2">  1       -1 0.22863468E+00 0.12204230E+04</pdfrwt>
<totfact> 0.58097130E-01</totfact>
</mgrwt>
</event>
<event>
 4    5  0.1074803E-007  0.1015090E+04  0.7818608E-02  0.9362076E-01
         -1   -1    0    0    0  501 -0.00000000000E+00  0.00000000000E+00  0.69230571212E+03  0.69230571214E+03  0.50400000000E-02 0.  1.
          1   -1    0    0  501    0  0.00000000000E+00 -0.00000000000E+00 -0.17682002974E+04  0.17682002974E+04  0.50400000000E-02 0. -1.
    8880023    1    1    2    0    0  0.95397364302E+02  0.76648338394E+03 -0.12928815040E+04  0.16437609998E+04  0.65864270000E+03 0.  0.
    8880022    1    1    2    0    0 -0.95397364302E+02 -0.76648338394E+03  0.21698691871E+03  0.81674500971E+03  0.15294330000E+03 0.  0.
<mgrwt>
<rscale>  0 0.95263472E+03</rscale>
<asrwt>0</asrwt>
<pdfrwt beam="1">  1        1 0.27203081E+00 0.10150900E+04</pdfrwt>
<pdfrwt beam="2">  1       -1 0.10650857E+00 0.10150900E+04</pdfrwt>
<totfact> 0.35481247E+00</totfact>
</mgrwt>
</event>
<event>
 4    5  0.1074803E-007  0.1009144E+04  0.7818608E-02  0.9369691E-01
         -1   -1    0    0    0  501 -0.00000000000E+00  0.00000000000E+00  0.55334652834E+03  0.55334652837E+03  0.50400000000E-02 0.  1.
          1   -1    0    0  501    0  0.00000000000E+00 -0.00000000000E+00 -0.19265997642E+04  0.19265997642E+04  0.50400000000E-02 0. -1.
    8880023    1    1    2    0    0 -0.76170241478E+03  0.66117983272E+02 -0.13683439544E+04  0.17002169098E+04  0.65864270000E+03 0. -1.
    8880022    1    1    2    0    0  0.76170241478E+03 -0.66117983272E+02 -0.49092814623E+01  0.77972938283E+03  0.15294330000E+03 0.  0.
<mgrwt>
<rscale>  0 0.94612561E+03</rscale>
<asrwt>0</asrwt>
<pdfrwt beam="1">  1        1 0.29639996E+00 0.10091444E+04</pdfrwt>
<pdfrwt beam="2">  1       -1 0.85130236E-01 0.10091444E+04</pdfrwt>
<totfact> 0.46025162E+00</totfact>
</mgrwt>
</event>
<event>
 4    5  0.1074803E-007  0.6855117E+03  0.7818608E-02  0.1006363E+00
          1   -1    0    0  501    0  0.00000000000E+00  0.00000000000E+00  0.12556368027E+04  0.12556368028E+04  0.50400000000E-02 0. -1.
         -1   -1    0    0    0  501 -0.00000000000E+00 -0.00000000000E+00 -0.74801924235E+03  0.74801924237E+03  0.50400000000E-02 0.  1.
    8880023    1    1    2    0    0 -0.88674873875E+02  0.16808579344E+03  0.11375517389E+04  0.13281378814E+04  0.65864270000E+03 0.  0.
    8880022    1    1    2    0    0  0.88674873875E+02 -0.16808579344E+03 -0.62993417850E+03  0.67551816368E+03  0.15294330000E+03 0.  0.
<mgrwt>
<rscale>  0 0.52945958E+03</rscale>
<asrwt>0</asrwt>
<pdfrwt beam="1">  1        1 0.19317489E+00 0.68551169E+03</pdfrwt>
<pdfrwt beam="2">  1       -1 0.11507989E+00 0.68551169E+03</pdfrwt>
<totfact> 0.69908143E+00</totfact>
</mgrwt>
</event>
<event>
 4    5  0.1074803E-007  0.1542175E+04  0.7818608E-02  0.8880415E-01
          1   -1    0    0  501    0  0.00000000000E+00  0.00000000000E+00  0.17250295657E+04  0.17250295657E+04  0.50400000000E-02 0. -1.
         -1   -1    0    0    0  501 -0.00000000000E+00 -0.00000000000E+00 -0.14615435971E+04  0.14615435971E+04  0.50400000000E-02 0.  1.
    8880023    1    1    2    0    0 -0.13693594029E+04  0.26333822052E+03  0.73268289518E+03  0.17073741898E+04  0.65864270000E+03 0. -1.
    8880022    1    1    2    0    0  0.13693594029E+04 -0.26333822052E+03 -0.46919692658E+03  0.14791989730E+04  0.15294330000E+03 0.  0.
<mgrwt>
<rscale>  0 0.15060871E+04</rscale>
<asrwt>0</asrwt>
<pdfrwt beam="1">  1        1 0.26538916E+00 0.15421746E+04</pdfrwt>
<pdfrwt beam="2">  1       -1 0.22485286E+00 0.15421746E+04</pdfrwt>
<totfact> 0.44027840E-01</totfact>
</mgrwt>
</event>
<event>
 4    5  0.1074803E-007  0.6874683E+03  0.7818608E-02  0.1005380E+00
          1   -1    0    0  501    0  0.00000000000E+00  0.00000000000E+00  0.24743294155E+04  0.24743294155E+04  0.50400000000E-02 0. -1.
         -1   -1    0    0    0  501 -0.00000000000E+00 -0.00000000000E+00 -0.34717633885E+03  0.34717633889E+03  0.50400000000E-02 0.  1.
    8880023    1    1    2    0    0 -0.18092471672E+03 -0.77901653483E+02  0.23734438710E+04  0.24710015046E+04  0.65864270000E+03 0. -1.
    8880022    1    1    2    0    0  0.18092471672E+03  0.77901653483E+02 -0.24629079434E+03  0.35050424980E+03  0.15294330000E+03 0.  0.
<mgrwt>
<rscale>  0 0.53352911E+03</rscale>
<asrwt>0</asrwt>
<pdfrwt beam="1">  1        1 0.38066607E+00 0.68746827E+03</pdfrwt>
<pdfrwt beam="2">  1       -1 0.53411744E-01 0.68746827E+03</pdfrwt>
<totfact> 0.53425491E+00</totfact>
</mgrwt>
</event>
<event>
 4    5  0.1074803E-007  0.1255661E+04  0.7818608E-02  0.9104828E-01
         -1   -1    0    0    0  501 -0.00000000000E+00  0.00000000000E+00  0.94588062099E+03  0.94588062100E+03  0.50400000000E-02 0.  1.
          1   -1    0    0  501    0  0.00000000000E+00 -0.00000000000E+00 -0.20791295278E+04  0.20791295278E+04  0.50400000000E-02 0. -1.
    8880023    1    1    2    0    0  0.87587550302E+03 -0.61295640187E+03 -0.14319629435E+04  0.19045213376E+04  0.65864270000E+03 0.  0.
    8880022    1    1    2    0    0 -0.87587550302E+03  0.61295640187E+03  0.29871403669E+03  0.11204888112E+04  0.15294330000E+03 0.  0.
<mgrwt>
<rscale>  0 0.12092160E+04</rscale>
<asrwt>0</asrwt>
<pdfrwt beam="1">  1        1 0.31986608E+00 0.12556606E+04</pdfrwt>
<pdfrwt beam="2">  1       -1 0.14552010E+00 0.12556606E+04</pdfrwt>
<totfact> 0.97320943E-01</totfact>
</mgrwt>
</event>
<event>
 4    5  0.1074803E-007  0.9282313E+03  0.7818608E-02  0.9482152E-01
         -1   -1    0    0    0  501 -0.00000000000E+00  0.00000000000E+00  0.28351465455E+03  0.28351465459E+03  0.50400000000E-02 0.  1.
          1   -1    0    0  501    0  0.00000000000E+00 -0.00000000000E+00 -0.35322647122E+04  0.35322647122E+04  0.50400000000E-02 0. -1.
    8880023    1    1    2    0    0 -0.51927111613E+03  0.39769408982E+03 -0.29276274620E+04  0.30712563950E+04  0.65864270000E+03 0. -1.
    8880022    1    1    2    0    0  0.51927111613E+03 -0.39769408982E+03 -0.32112259566E+03  0.74452297183E+03  0.15294330000E+03 0.  0.
<mgrwt>
<rscale>  0 0.85612592E+03</rscale>
<asrwt>0</asrwt>
<pdfrwt beam="1">  1        1 0.54342531E+00 0.92823127E+03</pdfrwt>
<pdfrwt beam="2">  1       -1 0.43617642E-01 0.92823127E+03</pdfrwt>
<totfact> 0.12874388E+00</totfact>
</mgrwt>
</event>
<event>
 4    5  0.1074803E-007  0.7018601E+03  0.7818608E-02  0.9989570E-01
          1   -1    0    0  501    0  0.00000000000E+00  0.00000000000E+00  0.14222357212E+04  0.14222357212E+04  0.50400000000E-02 0. -1.
         -1   -1    0    0    0  501 -0.00000000000E+00 -0.00000000000E+00 -0.10506824240E+04  0.10506824240E+04  0.50400000000E-02 0.  1.
    8880023    1    1    2    0    0 -0.13023805186E+03 -0.20453726157E+03  0.13129844380E+04  0.14888034733E+04  0.65864270000E+03 0. -1.
    8880022    1    1    2    0    0  0.13023805186E+03  0.20453726157E+03 -0.94143114080E+03  0.98411467187E+03  0.15294330000E+03 0.  0.
<mgrwt>
<rscale>  0 0.56109927E+03</rscale>
<asrwt>0</asrwt>
<pdfrwt beam="1">  1        1 0.21880549E+00 0.70186013E+03</pdfrwt>
<pdfrwt beam="2">  1       -1 0.16164345E+00 0.70186013E+03</pdfrwt>
<totfact> 0.22216344E+00</totfact>
</mgrwt>
</event>
<event>
 4    5  0.1074803E-007  0.7482066E+03  0.7818608E-02  0.9836656E-01
         -1   -1    0    0    0  501 -0.00000000000E+00  0.00000000000E+00  0.84439451299E+03  0.84439451301E+03  0.50400000000E-02 0.  1.
          1   -1    0    0  501    0  0.00000000000E+00 -0.00000000000E+00 -0.62782388267E+03  0.62782388269E+03  0.50400000000E-02 0. -1.
    8880023    1    1    2    0    0  0.35495519070E+03  0.31260447764E+01 -0.31764296045E+03  0.81284083076E+03  0.65864270000E+03 0. -1.
    8880022    1    1    2    0    0 -0.35495519070E+03 -0.31260447764E+01  0.53421359077E+03  0.65937756494E+03  0.15294330000E+03 0.  0.
<mgrwt>
<rscale>  0 0.63431946E+03</rscale>
<asrwt>0</asrwt>
<pdfrwt beam="1">  1        1 0.96588290E-01 0.74820663E+03</pdfrwt>
<pdfrwt beam="2">  1       -1 0.12990685E+00 0.74820663E+03</pdfrwt>
<totfact> 0.16738547E+01</totfact>
</mgrwt>
</event>
<event>
 4    5  0.1074803E-007  0.6708745E+03  0.7818608E-02  0.1015044E+00
          1   -1    0    0  501    0  0.00000000000E+00  0.00000000000E+00  0.58160547526E+03  0.58160547528E+03  0.50400000000E-02 0. -1.
         -1   -1    0    0    0  501 -0.00000000000E+00 -0.00000000000E+00 -0.65610758952E+03  0.65610758954E+03  0.50400000000E-02 0.  1.
    8880023    1    1    2    0    0 -0.12291853734E+03 -0.33961539769E+02  0.35883456620E+03  0.76081193811E+03  0.65864270000E+03 0. -1.
    8880022    1    1    2    0    0  0.12291853734E+03  0.33961539769E+02 -0.43333668046E+03  0.47690112670E+03  0.15294330000E+03 0.  0.
<mgrwt>
<rscale>  0 0.49518426E+03</rscale>
<asrwt>0</asrwt>
<pdfrwt beam="1">  1        1 0.89477765E-01 0.67087447E+03</pdfrwt>
<pdfrwt beam="2">  1       -1 0.10093963E+00 0.67087447E+03</pdfrwt>
<totfact> 0.34480555E+01</totfact>
</mgrwt>
</event>
<event>
 4    5  0.1074803E-007  0.7791235E+03  0.7818608E-02  0.9757900E-01
          1   -1    0    0  501    0  0.00000000000E+00  0.00000000000E+00  0.13852285629E+04  0.13852285629E+04  0.50400000000E-02 0. -1.
         -1   -1    0    0    0  501 -0.00000000000E+00 -0.00000000000E+00 -0.11222601499E+04  0.11222601499E+04  0.50400000000E-02 0.  1.
    8880023    1    1    2    0    0  0.39576296224E+03 -0.12882145790E+03  0.12229501468E+04  0.14500484675E+04  0.65864270000E+03 0.  0.
    8880022    1    1    2    0    0 -0.39576296224E+03  0.12882145790E+03 -0.95998173376E+03  0.10574402453E+04  0.15294330000E+03 0.  0.
<mgrwt>
<rscale>  0 0.67671657E+03</rscale>
<asrwt>0</asrwt>
<pdfrwt beam="1">  1        1 0.21311209E+00 0.77912354E+03</pdfrwt>
<pdfrwt beam="2">  1       -1 0.17265541E+00 0.77912354E+03</pdfrwt>
<totfact> 0.19268923E+00</totfact>
</mgrwt>
</event>
<event>
 4    5  0.1074803E-007  0.7697729E+03  0.7818608E-02  0.9780433E-01
          1   -1    0    0  501    0  0.00000000000E+00  0.00000000000E+00  0.42490192021E+03  0.42490192024E+03  0.50400000000E-02 0. -1.
         -1   -1    0    0    0  501 -0.00000000000E+00 -0.00000000000E+00 -0.15833054673E+04  0.15833054673E+04  0.50400000000E-02 0.  1.
    8880023    1    1    2    0    0  0.33380139793E+03 -0.21752401880E+03  0.41627691321E+01  0.76978413008E+03  0.65864270000E+03 0. -1.
    8880022    1    1    2    0    0 -0.33380139793E+03  0.21752401880E+03 -0.11625663163E+04  0.12384232575E+04  0.15294330000E+03 0.  0.
<mgrwt>
<rscale>  0 0.66423255E+03</rscale>
<asrwt>0</asrwt>
<pdfrwt beam="1">  1        1 0.65369527E-01 0.76977287E+03</pdfrwt>
<pdfrwt beam="2">  1       -1 0.24358545E+00 0.76977287E+03</pdfrwt>
<totfact> 0.44065184E+00</totfact>
</mgrwt>
</event>
<event>
 4    5  0.1074803E-007  0.7994781E+03  0.7818608E-02  0.9711926E-01
          1   -1    0    0  501    0  0.00000000000E+00  0.00000000000E+00  0.29481985097E+04  0.29481985097E+04  0.50400000000E-02 0. -1.
         -1   -1    0    0    0  501 -0.00000000000E+00 -0.00000000000E+00 -0.94879884177E+03  0.94879884178E+03  0.50400000000E-02 0.  1.
    8880023    1    1    2    0    0  0.42870668632E+03  0.14685223706E+03  0.28287855759E+04  0.29395906251E+04  0.65864270000E+03 0. -1.
    8880022    1    1    2    0    0 -0.42870668632E+03 -0.14685223706E+03 -0.82938590796E+03  0.95740672640E+03  0.15294330000E+03 0.  0.
<mgrwt>
<rscale>  0 0.70311161E+03</rscale>
<asrwt>0</asrwt>
<pdfrwt beam="1">  1        1 0.45356901E+00 0.79947809E+03</pdfrwt>
<pdfrwt beam="2">  1       -1 0.14596905E+00 0.79947809E+03</pdfrwt>
<totfact> 0.26223995E-01</totfact>
</mgrwt>
</event>
<event>
 4    5  0.1074803E-007  0.1011059E+04  0.7818608E-02  0.9367230E-01
          1   -1    0    0  501    0  0.00000000000E+00  0.00000000000E+00  0.24792960402E+04  0.24792960402E+04  0.50400000000E-02 0. -1.
         -1   -1    0    0    0  501 -0.00000000000E+00 -0.00000000000E+00 -0.33198832109E+03  0.33198832113E+03  0.50400000000E-02 0.  1.
    8880023    1    1    2    0    0 -0.71595639149E+03 -0.27538411523E+03  0.14202487050E+04  0.17433721793E+04  0.65864270000E+03 0.  0.
    8880022    1    1    2    0    0  0.71595639149E+03  0.27538411523E+03  0.72705901419E+03  0.10679121820E+04  0.15294330000E+03 0. -1.
<mgrwt>
<rscale>  0 0.94822294E+03</rscale>
<asrwt>0</asrwt>
<pdfrwt beam="1">  1        1 0.38143016E+00 0.10110589E+04</pdfrwt>
<pdfrwt beam="2">  1       -1 0.51075127E-01 0.10110589E+04</pdfrwt>
<totfact> 0.54867418E+00</totfact>
</mgrwt>
</event>
<event>
 4    5  0.1074803E-007  0.7308896E+03  0.7818608E-02  0.9887327E-01
         -1   -1    0    0    0  501 -0.00000000000E+00  0.00000000000E+00  0.25394195733E+03  0.25394195738E+03  0.50400000000E-02 0.  1.
          1   -1    0    0  501    0  0.00000000000E+00 -0.00000000000E+00 -0.16761395238E+04  0.16761395238E+04  0.50400000000E-02 0. -1.
    8880023    1    1    2    0    0  0.28035602976E+03 -0.14761411377E+03 -0.13978704614E+04  0.15774160717E+04  0.65864270000E+03 0. -1.
    8880022    1    1    2    0    0 -0.28035602976E+03  0.14761411377E+03 -0.24327105033E+02  0.35266540950E+03  0.15294330000E+03 0.  0.
<mgrwt>
<rscale>  0 0.60879437E+03</rscale>
<asrwt>0</asrwt>
<pdfrwt beam="1">  1        1 0.25786761E+00 0.73088962E+03</pdfrwt>
<pdfrwt beam="2">  1       -1 0.39067994E-01 0.73088962E+03</pdfrwt>
<totfact> 0.32588315E+01</totfact>
</mgrwt>
</event>
<event>
 4    5  0.1074803E-007  0.7376517E+03  0.7818608E-02  0.9866841E-01
          1   -1    0    0  501    0  0.00000000000E+00  0.00000000000E+00  0.83222106065E+03  0.83222106066E+03  0.50400000000E-02 0. -1.
         -1   -1    0    0    0  501 -0.00000000000E+00 -0.00000000000E+00 -0.52101256320E+03  0.52101256323E+03  0.50400000000E-02 0.  1.
    8880023    1    1    2    0    0  0.67610552465E+02  0.32519014517E+03  0.54682595408E+03  0.91823126044E+03  0.65864270000E+03 0.  1.
    8880022    1    1    2    0    0 -0.67610552465E+02 -0.32519014517E+03 -0.23561745664E+03  0.43500236345E+03  0.15294330000E+03 0.  0.
<mgrwt>
<rscale>  0 0.61895574E+03</rscale>
<asrwt>0</asrwt>
<pdfrwt beam="1">  1        1 0.12803401E+00 0.73765170E+03</pdfrwt>
<pdfrwt beam="2">  1       -1 0.80155780E-01 0.73765170E+03</pdfrwt>
<totfact> 0.33069905E+01</totfact>
</mgrwt>
</event>
<event>
 4    5  0.1074803E-007  0.1004797E+04  0.7818608E-02  0.9375309E-01
          1   -1    0    0  501    0  0.00000000000E+00  0.00000000000E+00  0.11983660732E+04  0.11983660732E+04  0.50400000000E-02 0. -1.
         -1   -1    0    0    0  501 -0.00000000000E+00 -0.00000000000E+00 -0.12631060999E+04  0.12631060999E+04  0.50400000000E-02 0.  1.
    8880023    1    1    2    0    0  0.27762885320E+03 -0.70620681710E+03  0.81202163122E+03  0.12918959650E+04  0.65864270000E+03 0. -1.
    8880022    1    1    2    0    0 -0.27762885320E+03  0.70620681710E+03 -0.87676165798E+03  0.11695762081E+04  0.15294330000E+03 0.  0.
<mgrwt>
<rscale>  0 0.94135805E+03</rscale>
<asrwt>0</asrwt>
<pdfrwt beam="1">  1        1 0.18436401E+00 0.10047965E+04</pdfrwt>
<pdfrwt beam="2">  1       -1 0.19432401E+00 0.10047965E+04</pdfrwt>
<totfact> 0.17731151E+00</totfact>
</mgrwt>
</event>
<event>
 4    5  0.1074803E-007  0.6628968E+03  0.7818608E-02  0.1021367E+00
         -1   -1    0    0    0  501 -0.00000000000E+00  0.00000000000E+00  0.40840274561E+03  0.40840274564E+03  0.50400000000E-02 0.  1.
          1   -1    0    0  501    0  0.00000000000E+00 -0.00000000000E+00 -0.57188689906E+03  0.57188689908E+03  0.50400000000E-02 0. -1.
    8880023    1    1    2    0    0 -0.74695556226E+02 -0.65269123676E+01 -0.33138712268E+03  0.74111379561E+03  0.65864270000E+03 0. -1.
    8880022    1    1    2    0    0  0.74695556226E+02  0.65269123676E+01  0.16790296924E+03  0.23917584911E+03  0.15294330000E+03 0.  0.
<mgrwt>
<rscale>  0 0.47196503E+03</rscale>
<asrwt>0</asrwt>
<pdfrwt beam="1">  1        1 0.87982600E-01 0.66289685E+03</pdfrwt>
<pdfrwt beam="2">  1       -1 0.62831192E-01 0.66289685E+03</pdfrwt>
<totfact> 0.96622238E+01</totfact>
</mgrwt>
</event>
<event>
 4    5  0.1074803E-007  0.8665091E+03  0.7818608E-02  0.9582088E-01
          1   -1    0    0  501    0  0.00000000000E+00  0.00000000000E+00  0.53119377142E+03  0.53119377145E+03  0.50400000000E-02 0. -1.
         -1   -1    0    0    0  501 -0.00000000000E+00 -0.00000000000E+00 -0.11498312121E+04  0.11498312121E+04  0.50400000000E-02 0.  1.
    8880023    1    1    2    0    0  0.37923788121E+03  0.41618082645E+03 -0.52578336199E+02  0.86810283869E+03  0.65864270000E+03 0.  0.
    8880022    1    1    2    0    0 -0.37923788121E+03 -0.41618082645E+03 -0.56605910450E+03  0.81292214489E+03  0.15294330000E+03 0.  0.
<mgrwt>
<rscale>  0 0.78493132E+03</rscale>
<asrwt>0</asrwt>
<pdfrwt beam="1">  1        1 0.81722119E-01 0.86650912E+03</pdfrwt>
<pdfrwt beam="2">  1       -1 0.17689711E+00 0.86650912E+03</pdfrwt>
<totfact> 0.90798441E+00</totfact>
</mgrwt>
</event>
<event>
 4    5  0.1074803E-007  0.6639971E+03  0.7818608E-02  0.1020390E+00
          1   -1    0    0  501    0  0.00000000000E+00  0.00000000000E+00  0.20051761675E+04  0.20051761676E+04  0.50400000000E-02 0. -1.
         -1   -1    0    0    0  501 -0.00000000000E+00 -0.00000000000E+00 -0.91106682107E+02  0.91106682247E+02  0.50400000000E-02 0.  1.
    8880023    1    1    2    0    0  0.69891981048E+02  0.46873360435E+02  0.16614087537E+04  0.17891817275E+04  0.65864270000E+03 0. -1.
    8880022    1    1    2    0    0 -0.69891981048E+02 -0.46873360435E+02  0.25266073177E+03  0.30710112231E+03  0.15294330000E+03 0.  1.
<mgrwt>
<rscale>  0 0.47546136E+03</rscale>
<asrwt>0</asrwt>
<pdfrwt beam="1">  1        1 0.30848864E+00 0.66399714E+03</pdfrwt>
<pdfrwt beam="2">  1       -1 0.14016413E-01 0.66399714E+03</pdfrwt>
<totfact> 0.11283704E+02</totfact>
</mgrwt>
</event>
<event>
 4    5  0.1074803E-007  0.7644745E+03  0.7818608E-02  0.9793658E-01
         -1   -1    0    0    0  501 -0.00000000000E+00  0.00000000000E+00  0.15296310123E+04  0.15296310123E+04  0.50400000000E-02 0.  1.
          1   -1    0    0  501    0  0.00000000000E+00 -0.00000000000E+00 -0.56431492643E+03  0.56431492646E+03  0.50400000000E-02 0. -1.
    8880023    1    1    2    0    0  0.30620752606E+03  0.23842812878E+03 -0.25375002087E+03  0.80548761689E+03  0.65864270000E+03 0. -1.
    8880022    1    1    2    0    0 -0.30620752606E+03 -0.23842812878E+03  0.12190661068E+04  0.12884583219E+04  0.15294330000E+03 0.  0.
<mgrwt>
<rscale>  0 0.65703989E+03</rscale>
<asrwt>0</asrwt>
<pdfrwt beam="1">  1        1 0.86817681E-01 0.76447448E+03</pdfrwt>
<pdfrwt beam="2">  1       -1 0.23532785E+00 0.76447448E+03</pdfrwt>
<totfact> 0.33810978E+00</totfact>
</mgrwt>
</event>
<event>
 4    5  0.1074803E-007  0.7665686E+03  0.7818608E-02  0.9788390E-01
         -1   -1    0    0    0  501 -0.00000000000E+00  0.00000000000E+00  0.27455001127E+03  0.27455001132E+03  0.50400000000E-02 0.  1.
          1   -1    0    0  501    0  0.00000000000E+00 -0.00000000000E+00 -0.17996374368E+04  0.17996374368E+04  0.50400000000E-02 0. -1.
    8880023    1    1    2    0    0  0.46656820327E+02 -0.38941021016E+03 -0.14589273698E+04  0.16480583871E+04  0.65864270000E+03 0. -1.
    8880022    1    1    2    0    0 -0.46656820327E+02  0.38941021016E+03 -0.66160055722E+02  0.42612906102E+03  0.15294330000E+03 0.  0.
<mgrwt>
<rscale>  0 0.65989361E+03</rscale>
<asrwt>0</asrwt>
<pdfrwt beam="1">  1        1 0.27686729E+00 0.76656857E+03</pdfrwt>
<pdfrwt beam="2">  1       -1 0.42238464E-01 0.76656857E+03</pdfrwt>
<totfact> 0.23243559E+01</totfact>
</mgrwt>
</event>
<event>
 4    5  0.1074803E-007  0.1323199E+04  0.7818608E-02  0.9045781E-01
          1   -1    0    0  501    0  0.00000000000E+00  0.00000000000E+00  0.32503703754E+04  0.32503703754E+04  0.50400000000E-02 0. -1.
         -1   -1    0    0    0  501 -0.00000000000E+00 -0.00000000000E+00 -0.74790110428E+03  0.74790110429E+03  0.50400000000E-02 0.  1.
    8880023    1    1    2    0    0 -0.10558883415E+04 -0.44960534854E+03  0.25134211118E+04  0.28404473329E+04  0.65864270000E+03 0.  0.
    8880022    1    1    2    0    0  0.10558883415E+04  0.44960534854E+03 -0.10951840651E+02  0.11578241469E+04  0.15294330000E+03 0.  0.
<mgrwt>
<rscale>  0 0.12797485E+04</rscale>
<asrwt>0</asrwt>
<pdfrwt beam="1">  1        1 0.50005697E+00 0.13231989E+04</pdfrwt>
<pdfrwt beam="2">  1       -1 0.11506171E+00 0.13231989E+04</pdfrwt>
<totfact> 0.26188060E-01</totfact>
</mgrwt>
</event>
<event>
 4    5  0.1074803E-007  0.8006370E+03  0.7818608E-02  0.9709420E-01
          1   -1    0    0  501    0  0.00000000000E+00  0.00000000000E+00  0.12696779858E+04  0.12696779858E+04  0.50400000000E-02 0. -1.
         -1   -1    0    0    0  501 -0.00000000000E+00 -0.00000000000E+00 -0.57484730570E+03  0.57484730572E+03  0.50400000000E-02 0.  1.
    8880023    1    1    2    0    0 -0.62097883795E+02 -0.45094707054E+03  0.99583642326E+03  0.12777753307E+04  0.65864270000E+03 0.  0.
    8880022    1    1    2    0    0  0.62097883795E+02  0.45094707054E+03 -0.30100574320E+03  0.56674996079E+03  0.15294330000E+03 0.  0.
<mgrwt>
<rscale>  0 0.70458664E+03</rscale>
<asrwt>0</asrwt>
<pdfrwt beam="1">  1        1 0.19533508E+00 0.80063701E+03</pdfrwt>
<pdfrwt beam="2">  1       -1 0.88438046E-01 0.80063701E+03</pdfrwt>
<totfact> 0.12267455E+01</totfact>
</mgrwt>
</event>
<event>
 4    5  0.1074803E-007  0.8286655E+03  0.7818608E-02  0.9651935E-01
         -1   -1    0    0    0  501 -0.00000000000E+00  0.00000000000E+00  0.69390443714E+03  0.69390443716E+03  0.50400000000E-02 0.  1.
          1   -1    0    0  501    0  0.00000000000E+00 -0.00000000000E+00 -0.10849555646E+04  0.10849555646E+04  0.50400000000E-02 0. -1.
    8880023    1    1    2    0    0  0.28721111681E+02 -0.50204716964E+03 -0.76976135485E+03  0.11310256463E+04  0.65864270000E+03 0. -1.
    8880022    1    1    2    0    0 -0.28721111681E+02  0.50204716964E+03  0.37871022741E+03  0.64783435550E+03  0.15294330000E+03 0.  0.
<mgrwt>
<rscale>  0 0.73952139E+03</rscale>
<asrwt>0</asrwt>
<pdfrwt beam="1">  1        1 0.16691624E+00 0.82866547E+03</pdfrwt>
<pdfrwt beam="2">  1       -1 0.10675453E+00 0.82866547E+03</pdfrwt>
<totfact> 0.10897843E+01</totfact>
</mgrwt>
</event>
<event>
 4    5  0.1074803E-007  0.1516978E+04  0.7818608E-02  0.8897739E-01
          1   -1    0    0  501    0  0.00000000000E+00  0.00000000000E+00  0.24110252879E+04  0.24110252879E+04  0.50400000000E-02 0. -1.
         -1   -1    0    0    0  501 -0.00000000000E+00 -0.00000000000E+00 -0.18886630817E+04  0.18886630817E+04  0.50400000000E-02 0.  1.
    8880023    1    1    2    0    0  0.29158401038E+03 -0.13350622877E+04 -0.13130489139E+04  0.20063200652E+04  0.65864270000E+03 0.  1.
    8880022    1    1    2    0    0 -0.29158401038E+03  0.13350622877E+04  0.18354111200E+04  0.22933683045E+04  0.15294330000E+03 0.  0.
<mgrwt>
<rscale>  0 0.14801827E+04</rscale>
<asrwt>0</asrwt>
<pdfrwt beam="1">  1        1 0.37092697E+00 0.15169782E+04</pdfrwt>
<pdfrwt beam="2">  1       -1 0.29056355E+00 0.15169782E+04</pdfrwt>
<totfact> 0.55846249E-02</totfact>
</mgrwt>
</event>
<event>
 4    5  0.1074803E-007  0.1054660E+04  0.7818608E-02  0.9313300E-01
         -1   -1    0    0    0  501 -0.00000000000E+00  0.00000000000E+00  0.84702492730E+03  0.84702492732E+03  0.50400000000E-02 0.  1.
          1   -1    0    0  501    0  0.00000000000E+00 -0.00000000000E+00 -0.16139620228E+04  0.16139620228E+04  0.50400000000E-02 0. -1.
    8880023    1    1    2    0    0 -0.45028262773E+03  0.68974182095E+03 -0.11319526626E+04  0.15471345323E+04  0.65864270000E+03 0.  0.
    8880022    1    1    2    0    0  0.45028262773E+03 -0.68974182095E+03  0.36501556707E+03  0.91385241786E+03  0.15294330000E+03 0.  0.
<mgrwt>
<rscale>  0 0.99567610E+03</rscale>
<asrwt>0</asrwt>
<pdfrwt beam="1">  1        1 0.24830185E+00 0.10546603E+04</pdfrwt>
<pdfrwt beam="2">  1       -1 0.13031153E+00 0.10546603E+04</pdfrwt>
<totfact> 0.27494212E+00</totfact>
</mgrwt>
</event>
<event>
 4    5  0.1074803E-007  0.7520967E+03  0.7818608E-02  0.9826016E-01
         -1   -1    0    0    0  501 -0.00000000000E+00  0.00000000000E+00  0.45800373616E+03  0.45800373618E+03  0.50400000000E-02 0.  1.
          1   -1    0    0  501    0  0.00000000000E+00 -0.00000000000E+00 -0.19040840144E+04  0.19040840144E+04  0.50400000000E-02 0. -1.
    8880023    1    1    2    0    0 -0.31144763497E+03 -0.18665351804E+03 -0.17233469688E+04  0.18803122471E+04  0.65864270000E+03 0. -1.
    8880022    1    1    2    0    0  0.31144763497E+03  0.18665351804E+03  0.27726669057E+03  0.48177550357E+03  0.15294330000E+03 0.  0.
<mgrwt>
<rscale>  0 0.63984898E+03</rscale>
<asrwt>0</asrwt>
<pdfrwt beam="1">  1        1 0.29293600E+00 0.75209665E+03</pdfrwt>
<pdfrwt beam="2">  1       -1 0.70462114E-01 0.75209665E+03</pdfrwt>
<totfact> 0.73695143E+00</totfact>
</mgrwt>
</event>
<event>
 4    5  0.1074803E-007  0.1344406E+04  0.7818608E-02  0.9028131E-01
         -1   -1    0    0    0  501 -0.00000000000E+00  0.00000000000E+00  0.12446033629E+04  0.12446033629E+04  0.50400000000E-02 0.  1.
          1   -1    0    0  501    0  0.00000000000E+00 -0.00000000000E+00 -0.26455956104E+04  0.26455956104E+04  0.50400000000E-02 0. -1.
    8880023    1    1    2    0    0  0.11385531460E+04  0.27805354003E+03  0.67270196721E+03  0.15033147310E+04  0.65864270000E+03 0.  1.
    8880022    1    1    2    0    0 -0.11385531460E+04 -0.27805354003E+03 -0.20736942147E+04  0.23868842424E+04  0.15294330000E+03 0.  0.
<mgrwt>
<rscale>  0 0.13018103E+04</rscale>
<asrwt>0</asrwt>
<pdfrwt beam="1">  1        1 0.40701471E+00 0.13444059E+04</pdfrwt>
<pdfrwt beam="2">  1       -1 0.19147744E+00 0.13444059E+04</pdfrwt>
<totfact> 0.17869805E-01</totfact>
</mgrwt>
</event>
<event>
 4    5  0.1074803E-007  0.6786836E+03  0.7818608E-02  0.1010078E+00
          1   -1    0    0  501    0  0.00000000000E+00  0.00000000000E+00  0.14252705109E+04  0.14252705109E+04  0.50400000000E-02 0. -1.
         -1   -1    0    0    0  501 -0.00000000000E+00 -0.00000000000E+00 -0.18290268493E+03  0.18290268500E+03  0.50400000000E-02 0.  1.
    8880023    1    1    2    0    0 -0.15170618864E+03 -0.61533996314E+02  0.12022305207E+04  0.13805685899E+04  0.65864270000E+03 0. -1.
    8880022    1    1    2    0    0  0.15170618864E+03  0.61533996314E+02  0.40137305287E+02  0.22760460598E+03  0.15294330000E+03 0.  0.
<mgrwt>
<rscale>  0 0.51443528E+03</rscale>
<asrwt>0</asrwt>
<pdfrwt beam="1">  1        1 0.21927239E+00 0.67868358E+03</pdfrwt>
<pdfrwt beam="2">  1       -1 0.28138874E-01 0.67868358E+03</pdfrwt>
<totfact> 0.86718683E+01</totfact>
</mgrwt>
</event>
<event>
 4    5  0.1074803E-007  0.9952875E+03  0.7818608E-02  0.9387749E-01
         -1   -1    0    0    0  501 -0.00000000000E+00  0.00000000000E+00  0.63555360166E+03  0.63555360168E+03  0.50400000000E-02 0.  1.
          1   -1    0    0  501    0  0.00000000000E+00 -0.00000000000E+00 -0.14281085264E+04  0.14281085264E+04  0.50400000000E-02 0. -1.
    8880023    1    1    2    0    0 -0.71815553195E+03 -0.20258265230E+03 -0.44831623679E+02  0.99629673282E+03  0.65864270000E+03 0.  0.
    8880022    1    1    2    0    0  0.71815553195E+03  0.20258265230E+03 -0.74772330109E+03  0.10673653953E+04  0.15294330000E+03 0.  0.
<mgrwt>
<rscale>  0 0.93090777E+03</rscale>
<asrwt>0</asrwt>
<pdfrwt beam="1">  1        1 0.21970900E+00 0.99528755E+03</pdfrwt>
<pdfrwt beam="2">  1       -1 0.97777478E-01 0.99528755E+03</pdfrwt>
<totfact> 0.74067401E+00</totfact>
</mgrwt>
</event>
<event>
 4    5  0.1074803E-007  0.7763866E+03  0.7818608E-02  0.9764394E-01
         -1   -1    0    0    0  501 -0.00000000000E+00  0.00000000000E+00  0.10622079912E+04  0.10622079912E+04  0.50400000000E-02 0.  1.
          1   -1    0    0  501    0  0.00000000000E+00 -0.00000000000E+00 -0.15089184465E+04  0.15089184465E+04  0.50400000000E-02 0. -1.
    8880023    1    1    2    0    0 -0.32847836422E+03  0.24711924410E+03 -0.13554658992E+04  0.15620704103E+04  0.65864270000E+03 0. -1.
    8880022    1    1    2    0    0  0.32847836422E+03 -0.24711924410E+03  0.90875544394E+03  0.10090560274E+04  0.15294330000E+03 0.  0.
<mgrwt>
<rscale>  0 0.67308854E+03</rscale>
<asrwt>0</asrwt>
<pdfrwt beam="1">  1        1 0.23214130E+00 0.77638661E+03</pdfrwt>
<pdfrwt beam="2">  1       -1 0.16341661E+00 0.77638661E+03</pdfrwt>
<totfact> 0.18519965E+00</totfact>
</mgrwt>
</event>
<event>
 4    5  0.1074803E-007  0.7868147E+03  0.7818608E-02  0.9740066E-01
         -1   -1    0    0    0  501 -0.00000000000E+00  0.00000000000E+00  0.19305507087E+04  0.19305507087E+04  0.50400000000E-02 0.  1.
          1   -1    0    0  501    0  0.00000000000E+00 -0.00000000000E+00 -0.57913255580E+03  0.57913255582E+03  0.50400000000E-02 0. -1.
    8880023    1    1    2    0    0 -0.42245986783E+03  0.82430351656E+02 -0.26478056738E+03  0.83017230617E+03  0.65864270000E+03 0.  0.
    8880022    1    1    2    0    0  0.42245986783E+03 -0.82430351656E+02  0.16161987203E+04  0.16795109584E+04  0.15294330000E+03 0.  0.
<mgrwt>
<rscale>  0 0.68680573E+03</rscale>
<asrwt>0</asrwt>
<pdfrwt beam="1">  1        1 0.89097318E-01 0.78681466E+03</pdfrwt>
<pdfrwt beam="2">  1       -1 0.29700780E+00 0.78681466E+03</pdfrwt>
<totfact> 0.13034261E+00</totfact>
</mgrwt>
</event>
<event>
 4    5  0.1074803E-007  0.9665500E+03  0.7818608E-02  0.9426692E-01
          1   -1    0    0  501    0  0.00000000000E+00  0.00000000000E+00  0.10604585634E+04  0.10604585634E+04  0.50400000000E-02 0. -1.
         -1   -1    0    0    0  501 -0.00000000000E+00 -0.00000000000E+00 -0.18926683242E+04  0.18926683242E+04  0.50400000000E-02 0.  1.
    8880023    1    1    2    0    0 -0.41790735015E+03 -0.57075579017E+03  0.74331784605E+03  0.12193196266E+04  0.65864270000E+03 0. -1.
    8880022    1    1    2    0    0  0.41790735015E+03  0.57075579017E+03 -0.15755276068E+04  0.17338072610E+04  0.15294330000E+03 0.  0.
<mgrwt>
<rscale>  0 0.89911237E+03</rscale>
<asrwt>0</asrwt>
<pdfrwt beam="1">  1        1 0.16314747E+00 0.96655002E+03</pdfrwt>
<pdfrwt beam="2">  1       -1 0.29117974E+00 0.96655002E+03</pdfrwt>
<totfact> 0.52139810E-01</totfact>
</mgrwt>
</event>
<event>
 4    5  0.1074803E-007  0.7680020E+03  0.7818608E-02  0.9784815E-01
          1   -1    0    0  501    0  0.00000000000E+00  0.00000000000E+00  0.59152066400E+03  0.59152066402E+03  0.50400000000E-02 0. -1.
         -1   -1    0    0    0  501 -0.00000000000E+00 -0.00000000000E+00 -0.70831038217E+03  0.70831038219E+03  0.50400000000E-02 0.  1.
    8880023    1    1    2    0    0  0.12776619682E+03 -0.37375479037E+03  0.17219984562E+03  0.78707041456E+03  0.65864270000E+03 0.  0.
    8880022    1    1    2    0    0 -0.12776619682E+03  0.37375479037E+03 -0.28898956379E+03  0.51276063165E+03  0.15294330000E+03 0.  0.
<mgrwt>
<rscale>  0 0.66183866E+03</rscale>
<asrwt>0</asrwt>
<pdfrwt beam="1">  1        1 0.91003179E-01 0.76800199E+03</pdfrwt>
<pdfrwt beam="2">  1       -1 0.10897083E+00 0.76800199E+03</pdfrwt>
<totfact> 0.27903724E+01</totfact>
</mgrwt>
</event>
<event>
 4    5  0.2368064E-007  0.1383268E+04  0.7818608E-02  0.8996794E-01
          1   -1    0    0  501    0  0.00000000000E+00  0.00000000000E+00  0.17535948230E+04  0.17535948230E+04  0.50400000000E-02 0. -1.
         -1   -1    0    0    0  501 -0.00000000000E+00 -0.00000000000E+00 -0.29297369304E+04  0.29297369304E+04  0.50400000000E-02 0.  1.
    8880023    1    1    2    0    0 -0.40379857048E+01  0.12163898568E+04  0.13139184801E+04  0.19078292816E+04  0.65864270000E+03 0.  0.
    8880022    1    1    2    0    0  0.40379857048E+01 -0.12163898568E+04 -0.24900605875E+04  0.27755024718E+04  0.15294330000E+03 0.  0.
<mgrwt>
<rscale>  0 0.13421470E+04</rscale>
<asrwt>0</asrwt>
<pdfrwt beam="1">  1        1 0.26978382E+00 0.13832682E+04</pdfrwt>
<pdfrwt beam="2">  1       -1 0.45072876E+00 0.13832682E+04</pdfrwt>
<totfact> 0.13460338E-02</totfact>
</mgrwt>
</event>
<event>
 4    5  0.1074803E-007  0.1138425E+04  0.7818608E-02  0.9219434E-01
         -1   -1    0    0    0  501 -0.00000000000E+00  0.00000000000E+00  0.89974062448E+03  0.89974062449E+03  0.50400000000E-02 0.  1.
          1   -1    0    0  501    0  0.00000000000E+00 -0.00000000000E+00 -0.20679993459E+04  0.20679993460E+04  0.50400000000E-02 0. -1.
    8880023    1    1    2    0    0 -0.44116223971E+02 -0.92749983239E+03 -0.15743239146E+04  0.19428093511E+04  0.65864270000E+03 0. -1.
    8880022    1    1    2    0    0  0.44116223971E+02  0.92749983239E+03  0.40606519318E+03  0.10249306193E+04  0.15294330000E+03 0.  0.
<mgrwt>
<rscale>  0 0.10855073E+04</rscale>
<asrwt>0</asrwt>
<pdfrwt beam="1">  1        1 0.31815374E+00 0.11384254E+04</pdfrwt>
<pdfrwt beam="2">  1       -1 0.13842164E+00 0.11384254E+04</pdfrwt>
<totfact> 0.11474452E+00</totfact>
</mgrwt>
</event>
<event>
 4    5  0.1074803E-007  0.8457384E+03  0.7818608E-02  0.9619453E-01
         -1   -1    0    0    0  501 -0.00000000000E+00  0.00000000000E+00  0.16104547207E+04  0.16104547207E+04  0.50400000000E-02 0.  1.
          1   -1    0    0  501    0  0.00000000000E+00 -0.00000000000E+00 -0.57003953752E+03  0.57003953754E+03  0.50400000000E-02 0. -1.
    8880023    1    1    2    0    0  0.34758556565E+03  0.40080854120E+03 -0.15858023720E+03  0.86047725713E+03  0.65864270000E+03 0. -1.
    8880022    1    1    2    0    0 -0.34758556565E+03 -0.40080854120E+03  0.11989954204E+04  0.13200170011E+04  0.15294330000E+03 0.  0.
<mgrwt>
<rscale>  0 0.76021892E+03</rscale>
<asrwt>0</asrwt>
<pdfrwt beam="1">  1        1 0.87698391E-01 0.84573839E+03</pdfrwt>
<pdfrwt beam="2">  1       -1 0.24776226E+00 0.84573839E+03</pdfrwt>
<totfact> 0.27341484E+00</totfact>
</mgrwt>
</event>
<event>
 4    5  0.1074803E-007  0.7255641E+03  0.7818608E-02  0.9904190E-01
          1   -1    0    0  501    0  0.00000000000E+00  0.00000000000E+00  0.10771231071E+04  0.10771231072E+04  0.50400000000E-02 0. -1.
         -1   -1    0    0    0  501 -0.00000000000E+00 -0.00000000000E+00 -0.97732432571E+03  0.97732432572E+03  0.50400000000E-02 0.  1.
    8880023    1    1    2    0    0  0.17797148597E+03 -0.24689906866E+03  0.91686459119E+03  0.11692236248E+04  0.65864270000E+03 0. -1.
    8880022    1    1    2    0    0 -0.17797148597E+03  0.24689906866E+03 -0.81706580975E+03  0.88522380809E+03  0.15294330000E+03 0.  0.
<mgrwt>
<rscale>  0 0.60058656E+03</rscale>
<asrwt>0</asrwt>
<pdfrwt beam="1">  1        1 0.16571125E+00 0.72556406E+03</pdfrwt>
<pdfrwt beam="2">  1       -1 0.15035759E+00 0.72556406E+03</pdfrwt>
<totfact> 0.47641719E+00</totfact>
</mgrwt>
</event>
<event>
 4    5  0.1074803E-007  0.7190826E+03  0.7818608E-02  0.9925702E-01
         -1   -1    0    0    0  501 -0.00000000000E+00  0.00000000000E+00  0.53145759676E+03  0.53145759678E+03  0.50400000000E-02 0.  1.
          1   -1    0    0  501    0  0.00000000000E+00 -0.00000000000E+00 -0.22126013767E+04  0.22126013767E+04  0.50400000000E-02 0. -1.
    8880023    1    1    2    0    0 -0.28810199498E+03 -0.16334795746E+02 -0.20960903313E+04  0.22160041671E+04  0.65864270000E+03 0. -1.
    8880022    1    1    2    0    0  0.28810199498E+03  0.16334795746E+02  0.41494655139E+03  0.52805480642E+03  0.15294330000E+03 0.  0.
<mgrwt>
<rscale>  0 0.59031649E+03</rscale>
<asrwt>0</asrwt>
<pdfrwt beam="1">  1        1 0.34040021E+00 0.71908260E+03</pdfrwt>
<pdfrwt beam="2">  1       -1 0.81762709E-01 0.71908260E+03</pdfrwt>
<totfact> 0.33769261E+00</totfact>
</mgrwt>
</event>
<event>
 4    5  0.1074803E-007  0.9868802E+03  0.7818608E-02  0.9398927E-01
         -1   -1    0    0    0  501 -0.00000000000E+00  0.00000000000E+00  0.42973837180E+03  0.42973837183E+03  0.50400000000E-02 0.  1.
          1   -1    0    0  501    0  0.00000000000E+00 -0.00000000000E+00 -0.33350563566E+04  0.33350563566E+04  0.50400000000E-02 0. -1.
    8880023    1    1    2    0    0 -0.24170401087E+03  0.69404713900E+03 -0.28454563324E+04  0.30117360784E+04  0.65864270000E+03 0. -1.
    8880022    1    1    2    0    0  0.24170401087E+03 -0.69404713900E+03 -0.59861652434E+02  0.75305865008E+03  0.15294330000E+03 0.  0.
<mgrwt>
<rscale>  0 0.92164017E+03</rscale>
<asrwt>0</asrwt>
<pdfrwt beam="1">  1        1 0.51308558E+00 0.98688017E+03</pdfrwt>
<pdfrwt beam="2">  1       -1 0.66113598E-01 0.98688017E+03</pdfrwt>
<totfact> 0.80813221E-01</totfact>
</mgrwt>
</event>
<event>
 4    5  0.1074803E-007  0.7147234E+03  0.7818608E-02  0.9940862E-01
         -1   -1    0    0    0  501 -0.00000000000E+00  0.00000000000E+00  0.94111505503E+03  0.94111505504E+03  0.50400000000E-02 0.  1.
          1   -1    0    0  501    0  0.00000000000E+00 -0.00000000000E+00 -0.12435214030E+04  0.12435214030E+04  0.50400000000E-02 0. -1.
    8880023    1    1    2    0    0  0.26828664207E+03 -0.71004181234E+02 -0.11082499478E+04  0.13187294905E+04  0.65864270000E+03 0. -1.
    8880022    1    1    2    0    0 -0.26828664207E+03  0.71004181234E+02  0.80584359982E+03  0.86590696755E+03  0.15294330000E+03 0.  0.
<mgrwt>
<rscale>  0 0.58321158E+03</rscale>
<asrwt>0</asrwt>
<pdfrwt beam="1">  1        1 0.19131099E+00 0.71472339E+03</pdfrwt>
<pdfrwt beam="2">  1       -1 0.14478693E+00 0.71472339E+03</pdfrwt>
<totfact> 0.39869002E+00</totfact>
</mgrwt>
</event>
<event>
 4    5  0.1074803E-007  0.8246770E+03  0.7818608E-02  0.9659779E-01
          1   -1    0    0  501    0  0.00000000000E+00  0.00000000000E+00  0.11366904082E+04  0.11366904082E+04  0.50400000000E-02 0. -1.
         -1   -1    0    0    0  501 -0.00000000000E+00 -0.00000000000E+00 -0.11056667460E+04  0.11056667460E+04  0.50400000000E-02 0.  1.
    8880023    1    1    2    0    0 -0.34564393391E+03  0.35610700854E+03  0.90584841151E+03  0.12250116250E+04  0.65864270000E+03 0. -1.
    8880022    1    1    2    0    0  0.34564393391E+03 -0.35610700854E+03 -0.87482474930E+03  0.10173455291E+04  0.15294330000E+03 0.  0.
<mgrwt>
<rscale>  0 0.73462839E+03</rscale>
<asrwt>0</asrwt>
<pdfrwt beam="1">  1        1 0.17487545E+00 0.82467699E+03</pdfrwt>
<pdfrwt beam="2">  1       -1 0.17010258E+00 0.82467699E+03</pdfrwt>
<totfact> 0.30062814E+00</totfact>
</mgrwt>
</event>
<event>
 4    5  0.1074803E-007  0.7481196E+03  0.7818608E-02  0.9836897E-01
          1   -1    0    0  501    0  0.00000000000E+00  0.00000000000E+00  0.11208683908E+04  0.11208683908E+04  0.50400000000E-02 0. -1.
         -1   -1    0    0    0  501 -0.00000000000E+00 -0.00000000000E+00 -0.41279549886E+03  0.41279549889E+03  0.50400000000E-02 0.  1.
    8880023    1    1    2    0    0  0.10756658507E+03  0.33808598368E+03  0.84052741252E+03  0.11252418585E+04  0.65864270000E+03 0. -1.
    8880022    1    1    2    0    0 -0.10756658507E+03 -0.33808598368E+03 -0.13245452055E+03  0.40842203125E+03  0.15294330000E+03 0.  0.
<mgrwt>
<rscale>  0 0.63419495E+03</rscale>
<asrwt>0</asrwt>
<pdfrwt beam="1">  1        1 0.17244129E+00 0.74811958E+03</pdfrwt>
<pdfrwt beam="2">  1       -1 0.63507000E-01 0.74811958E+03</pdfrwt>
<totfact> 0.31613925E+01</totfact>
</mgrwt>
</event>
<event>
 4    5  0.1074803E-007  0.6864380E+03  0.7818608E-02  0.1005894E+00
          1   -1    0    0  501    0  0.00000000000E+00  0.00000000000E+00  0.47824338771E+03  0.47824338774E+03  0.50400000000E-02 0. -1.
         -1   -1    0    0    0  501 -0.00000000000E+00 -0.00000000000E+00 -0.59881104811E+03  0.59881104813E+03  0.50400000000E-02 0.  1.
    8880023    1    1    2    0    0  0.80283041952E+02  0.17590228791E+03  0.15869260794E+03  0.70454278209E+03  0.65864270000E+03 0.  0.
    8880022    1    1    2    0    0 -0.80283041952E+02 -0.17590228791E+03 -0.27926026834E+03  0.37251165378E+03  0.15294330000E+03 0.  0.
<mgrwt>
<rscale>  0 0.53139795E+03</rscale>
<asrwt>0</asrwt>
<pdfrwt beam="1">  1        1 0.73575906E-01 0.68643804E+03</pdfrwt>
<pdfrwt beam="2">  1       -1 0.92124776E-01 0.68643804E+03</pdfrwt>
<totfact> 0.55469333E+01</totfact>
</mgrwt>
</event>
<event>
 4    5  0.1074803E-007  0.1017781E+04  0.7818608E-02  0.9358656E-01
          1   -1    0    0  501    0  0.00000000000E+00  0.00000000000E+00  0.17738288927E+04  0.17738288927E+04  0.50400000000E-02 0. -1.
         -1   -1    0    0    0  501 -0.00000000000E+00 -0.00000000000E+00 -0.69658257689E+03  0.69658257691E+03  0.50400000000E-02 0.  1.
    8880023    1    1    2    0    0  0.67383954362E+03 -0.38471808255E+03  0.12978776087E+04  0.16493526691E+04  0.65864270000E+03 0. -1.
    8880022    1    1    2    0    0 -0.67383954362E+03  0.38471808255E+03 -0.22063129286E+03  0.82105880056E+03  0.15294330000E+03 0.  0.
<mgrwt>
<rscale>  0 0.95557682E+03</rscale>
<asrwt>0</asrwt>
<pdfrwt beam="1">  1        1 0.27289675E+00 0.10177809E+04</pdfrwt>
<pdfrwt beam="2">  1       -1 0.10716655E+00 0.10177809E+04</pdfrwt>
<totfact> 0.34654645E+00</totfact>
</mgrwt>
</event>
<event>
 4    5  0.1074803E-007  0.7406979E+03  0.7818608E-02  0.9857919E-01
         -1   -1    0    0    0  501 -0.00000000000E+00  0.00000000000E+00  0.52429523733E+03  0.52429523736E+03  0.50400000000E-02 0.  1.
          1   -1    0    0  501    0  0.00000000000E+00 -0.00000000000E+00 -0.86155572343E+03  0.86155572345E+03  0.50400000000E-02 0. -1.
    8880023    1    1    2    0    0  0.81600478091E+01  0.33875733643E+03 -0.58093402513E+03  0.94133823208E+03  0.65864270000E+03 0.  0.
    8880022    1    1    2    0    0 -0.81600478091E+01 -0.33875733643E+03  0.24367353903E+03  0.44451272873E+03  0.15294330000E+03 0.  0.
<mgrwt>
<rscale>  0 0.62344784E+03</rscale>
<asrwt>0</asrwt>
<pdfrwt beam="1">  1        1 0.13254703E+00 0.74069786E+03</pdfrwt>
<pdfrwt beam="2">  1       -1 0.80660806E-01 0.74069786E+03</pdfrwt>
<totfact> 0.30823006E+01</totfact>
</mgrwt>
</event>
<event>
 4    5  0.1074803E-007  0.6898272E+03  0.7818608E-02  0.1004235E+00
          1   -1    0    0  501    0  0.00000000000E+00  0.00000000000E+00  0.81420251530E+03  0.81420251532E+03  0.50400000000E-02 0. -1.
         -1   -1    0    0    0  501 -0.00000000000E+00 -0.00000000000E+00 -0.14569285311E+04  0.14569285311E+04  0.50400000000E-02 0.  1.
    8880023    1    1    2    0    0 -0.42591425819E+01 -0.20502020498E+03  0.65330787869E+03  0.95009095111E+03  0.65864270000E+03 0. -1.
    8880022    1    1    2    0    0  0.42591425819E+01  0.20502020498E+03 -0.12960338945E+04  0.13210400954E+04  0.15294330000E+03 0.  0.
<mgrwt>
<rscale>  0 0.53831716E+03</rscale>
<asrwt>0</asrwt>
<pdfrwt beam="1">  1        1 0.12526193E+00 0.68982725E+03</pdfrwt>
<pdfrwt beam="2">  1       -1 0.22414285E+00 0.68982725E+03</pdfrwt>
<totfact> 0.23399748E+00</totfact>
</mgrwt>
</event>
<event>
 4    5  0.1074803E-007  0.9283983E+03  0.7818608E-02  0.9481900E-01
          1   -1    0    0  501    0  0.00000000000E+00  0.00000000000E+00  0.14606033392E+04  0.14606033392E+04  0.50400000000E-02 0. -1.
         -1   -1    0    0    0  501 -0.00000000000E+00 -0.00000000000E+00 -0.59232389714E+03  0.59232389716E+03  0.50400000000E-02 0.  1.
    8880023    1    1    2    0    0  0.61042975883E+03  0.23556025328E+03  0.10039563811E+04  0.13674252246E+04  0.65864270000E+03 0.  0.
    8880022    1    1    2    0    0 -0.61042975883E+03 -0.23556025328E+03 -0.13567693902E+03  0.68550201180E+03  0.15294330000E+03 0.  0.
<mgrwt>
<rscale>  0 0.85631496E+03</rscale>
<asrwt>0</asrwt>
<pdfrwt beam="1">  1        1 0.22470821E+00 0.92839826E+03</pdfrwt>
<pdfrwt beam="2">  1       -1 0.91126754E-01 0.92839826E+03</pdfrwt>
<totfact> 0.83013235E+00</totfact>
</mgrwt>
</event>
<event>
 4    5  0.1074803E-007  0.6609345E+03  0.7818608E-02  0.1023219E+00
         -1   -1    0    0    0  501 -0.00000000000E+00  0.00000000000E+00  0.11053074757E+03  0.11053074768E+03  0.50400000000E-02 0.  1.
          1   -1    0    0  501    0  0.00000000000E+00 -0.00000000000E+00 -0.28142116076E+04  0.28142116076E+04  0.50400000000E-02 0. -1.
    8880023    1    1    2    0    0 -0.40794944903E+02 -0.36877241915E+02 -0.26802426218E+04  0.27605316293E+04  0.65864270000E+03 0.  0.
    8880022    1    1    2    0    0  0.40794944903E+02  0.36877241915E+02 -0.23438238245E+02  0.16421072598E+03  0.15294330000E+03 0.  1.
<mgrwt>
<rscale>  0 0.46542724E+03</rscale>
<asrwt>0</asrwt>
<pdfrwt beam="1">  1        1 0.43295558E+00 0.66093446E+03</pdfrwt>
<pdfrwt beam="2">  1       -1 0.17004733E-01 0.66093446E+03</pdfrwt>
<totfact> 0.23282104E+01</totfact>
</mgrwt>
</event>
<event>
 4    5  0.1074803E-007  0.1405180E+04  0.7818608E-02  0.8979668E-01
          1   -1    0    0  501    0  0.00000000000E+00  0.00000000000E+00  0.94854957386E+03  0.94854957387E+03  0.50400000000E-02 0. -1.
         -1   -1    0    0    0  501 -0.00000000000E+00 -0.00000000000E+00 -0.25080017856E+04  0.25080017856E+04  0.50400000000E-02 0.  1.
    8880023    1    1    2    0    0 -0.12180982669E+04  0.23865959331E+03  0.64709671734E+02  0.14066695907E+04  0.65864270000E+03 0.  0.
    8880022    1    1    2    0    0  0.12180982669E+04 -0.23865959331E+03 -0.16241618835E+04  0.20498817688E+04  0.15294330000E+03 0.  0.
<mgrwt>
<rscale>  0 0.13648427E+04</rscale>
<asrwt>0</asrwt>
<pdfrwt beam="1">  1        1 0.14593070E+00 0.14051804E+04</pdfrwt>
<pdfrwt beam="2">  1       -1 0.38584643E+00 0.14051804E+04</pdfrwt>
<totfact> 0.14319129E-01</totfact>
</mgrwt>
</event>
<event>
 4    5  0.1074803E-007  0.1007282E+04  0.7818608E-02  0.9372091E-01
          1   -1    0    0  501    0  0.00000000000E+00  0.00000000000E+00  0.20033982967E+04  0.20033982967E+04  0.50400000000E-02 0. -1.
         -1   -1    0    0    0  501 -0.00000000000E+00 -0.00000000000E+00 -0.57731550897E+03  0.57731550900E+03  0.50400000000E-02 0.  1.
    8880023    1    1    2    0    0 -0.59359909938E+03  0.47796227539E+03  0.14924725054E+04  0.18005810765E+04  0.65864270000E+03 0. -1.
    8880022    1    1    2    0    0  0.59359909938E+03 -0.47796227539E+03 -0.66389717699E+02  0.78013272916E+03  0.15294330000E+03 0.  0.
<mgrwt>
<rscale>  0 0.94408481E+03</rscale>
<asrwt>0</asrwt>
<pdfrwt beam="1">  1        1 0.30821512E+00 0.10072825E+04</pdfrwt>
<pdfrwt beam="2">  1       -1 0.88817770E-01 0.10072825E+04</pdfrwt>
<totfact> 0.37246920E+00</totfact>
</mgrwt>
</event>
<event>
 4    5  0.1074803E-007  0.7949020E+03  0.7818608E-02  0.9721929E-01
         -1   -1    0    0    0  501 -0.00000000000E+00  0.00000000000E+00  0.69571986700E+03  0.69571986702E+03  0.50400000000E-02 0.  1.
          1   -1    0    0  501    0  0.00000000000E+00 -0.00000000000E+00 -0.88575848522E+03  0.88575848524E+03  0.50400000000E-02 0. -1.
    8880023    1    1    2    0    0 -0.26693965614E+03 -0.35609292697E+03 -0.56876104611E+03  0.97742431241E+03  0.65864270000E+03 0. -1.
    8880022    1    1    2    0    0  0.26693965614E+03  0.35609292697E+03  0.37872242788E+03  0.60405403985E+03  0.15294330000E+03 0.  0.
<mgrwt>
<rscale>  0 0.69726007E+03</rscale>
<asrwt>0</asrwt>
<pdfrwt beam="1">  1        1 0.13627054E+00 0.79490198E+03</pdfrwt>
<pdfrwt beam="2">  1       -1 0.10703383E+00 0.79490198E+03</pdfrwt>
<totfact> 0.15580865E+01</totfact>
</mgrwt>
</event>
<event>
 4    5  0.1074803E-007  0.1547840E+04  0.7818608E-02  0.8876573E-01
         -1   -1    0    0    0  501 -0.00000000000E+00  0.00000000000E+00  0.16863824743E+04  0.16863824743E+04  0.50400000000E-02 0.  1.
          1   -1    0    0  501    0  0.00000000000E+00 -0.00000000000E+00 -0.14035757691E+04  0.14035757691E+04  0.50400000000E-02 0. -1.
    8880023    1    1    2    0    0 -0.84710618079E+03 -0.11155313208E+04 -0.27948085722E+03  0.15728695957E+04  0.65864270000E+03 0.  0.
    8880022    1    1    2    0    0  0.84710618079E+03  0.11155313208E+04  0.56228756244E+03  0.15170886477E+04  0.15294330000E+03 0.  0.
<mgrwt>
<rscale>  0 0.15119079E+04</rscale>
<asrwt>0</asrwt>
<pdfrwt beam="1">  1        1 0.21593474E+00 0.15478402E+04</pdfrwt>
<pdfrwt beam="2">  1       -1 0.25944345E+00 0.15478402E+04</pdfrwt>
<totfact> 0.43520360E-01</totfact>
</mgrwt>
</event>
<event>
 4    5  0.1074803E-007  0.9577540E+03  0.7818608E-02  0.9439044E-01
          1   -1    0    0  501    0  0.00000000000E+00  0.00000000000E+00  0.26937871360E+04  0.26937871360E+04  0.50400000000E-02 0. -1.
         -1   -1    0    0    0  501 -0.00000000000E+00 -0.00000000000E+00 -0.64218560556E+03  0.64218560558E+03  0.50400000000E-02 0.  1.
    8880023    1    1    2    0    0  0.44855349545E+03  0.53130251756E+03  0.23698959057E+04  0.25561102115E+04  0.65864270000E+03 0. -1.
    8880022    1    1    2    0    0 -0.44855349545E+03 -0.53130251756E+03 -0.31829437525E+03  0.77986253005E+03  0.15294330000E+03 0.  0.
<mgrwt>
<rscale>  0 0.88930969E+03</rscale>
<asrwt>0</asrwt>
<pdfrwt beam="1">  1        1 0.41442879E+00 0.95775404E+03</pdfrwt>
<pdfrwt beam="2">  1       -1 0.98797785E-01 0.95775404E+03</pdfrwt>
<totfact> 0.99977509E-01</totfact>
</mgrwt>
</event>
<event>
 4    5  0.1074803E-007  0.1442606E+04  0.7818608E-02  0.8951264E-01
         -1   -1    0    0    0  501 -0.00000000000E+00  0.00000000000E+00  0.88235415626E+03  0.88235415628E+03  0.50400000000E-02 0.  1.
          1   -1    0    0  501    0  0.00000000000E+00 -0.00000000000E+00 -0.29875788284E+04  0.29875788284E+04  0.50400000000E-02 0. -1.
    8880023    1    1    2    0    0  0.12054427095E+03  0.12777997359E+04 -0.21354052135E+04  0.25770271086E+04  0.65864270000E+03 0.  0.
    8880022    1    1    2    0    0 -0.12054427095E+03 -0.12777997359E+04  0.30180541387E+02  0.12929058761E+04  0.15294330000E+03 0.  0.
<mgrwt>
<rscale>  0 0.14035343E+04</rscale>
<asrwt>0</asrwt>
<pdfrwt beam="1">  1        1 0.45962751E+00 0.14426064E+04</pdfrwt>
<pdfrwt beam="2">  1       -1 0.13574680E+00 0.14426064E+04</pdfrwt>
<totfact> 0.26624342E-01</totfact>
</mgrwt>
</event>
<event>
 4    5  0.1074803E-007  0.1171668E+04  0.7818608E-02  0.9185167E-01
         -1   -1    0    0    0  501 -0.00000000000E+00  0.00000000000E+00  0.61437547711E+03  0.61437547713E+03  0.50400000000E-02 0.  1.
          1   -1    0    0  501    0  0.00000000000E+00 -0.00000000000E+00 -0.21770017271E+04  0.21770017271E+04  0.50400000000E-02 0. -1.
    8880023    1    1    2    0    0  0.15595276336E+03  0.95638652978E+03 -0.13500796807E+04  0.17876022514E+04  0.65864270000E+03 0.  0.
    8880022    1    1    2    0    0 -0.15595276336E+03 -0.95638652978E+03 -0.21254656929E+03  0.10037749528E+04  0.15294330000E+03 0.  0.
<mgrwt>
<rscale>  0 0.11207850E+04</rscale>
<asrwt>0</asrwt>
<pdfrwt beam="1">  1        1 0.33492334E+00 0.11716683E+04</pdfrwt>
<pdfrwt beam="2">  1       -1 0.94519305E-01 0.11716683E+04</pdfrwt>
<totfact> 0.24246826E+00</totfact>
</mgrwt>
</event>
<event>
 4    5  0.1074803E-007  0.7639196E+03  0.7818608E-02  0.9795064E-01
          1   -1    0    0  501    0  0.00000000000E+00  0.00000000000E+00  0.35283002306E+03  0.35283002309E+03  0.50400000000E-02 0. -1.
         -1   -1    0    0    0  501 -0.00000000000E+00 -0.00000000000E+00 -0.18307019230E+04  0.18307019230E+04  0.50400000000E-02 0.  1.
    8880023    1    1    2    0    0  0.35716282422E+03  0.14898881160E+03 -0.13256081048E+03  0.77533574903E+03  0.65864270000E+03 0.  0.
    8880022    1    1    2    0    0 -0.35716282422E+03 -0.14898881160E+03 -0.13453110894E+04  0.14081961970E+04  0.15294330000E+03 0.  0.
<mgrwt>
<rscale>  0 0.65628125E+03</rscale>
<asrwt>0</asrwt>
<pdfrwt beam="1">  1        1 0.54281543E-01 0.76391960E+03</pdfrwt>
<pdfrwt beam="2">  1       -1 0.28164644E+00 0.76391960E+03</pdfrwt>
<totfact> 0.32121844E+00</totfact>
</mgrwt>
</event>
<event>
 4    5  0.1074803E-007  0.9391162E+03  0.7818608E-02  0.9465949E-01
          1   -1    0    0  501    0  0.00000000000E+00  0.00000000000E+00  0.15889671398E+04  0.15889671398E+04  0.50400000000E-02 0. -1.
         -1   -1    0    0    0  501 -0.00000000000E+00 -0.00000000000E+00 -0.53798278769E+03  0.53798278771E+03  0.50400000000E-02 0.  1.
    8880023    1    1    2    0    0 -0.23770440250E+03  0.62580000240E+03  0.10904979329E+04  0.14391403593E+04  0.65864270000E+03 0. -1.
    8880022    1    1    2    0    0  0.23770440250E+03 -0.62580000240E+03 -0.39513580802E+02  0.68780956816E+03  0.15294330000E+03 0.  0.
<mgrwt>
<rscale>  0 0.86841455E+03</rscale>
<asrwt>0</asrwt>
<pdfrwt beam="1">  1        1 0.24445648E+00 0.93911620E+03</pdfrwt>
<pdfrwt beam="2">  1       -1 0.82766584E-01 0.93911620E+03</pdfrwt>
<totfact> 0.83497518E+00</totfact>
</mgrwt>
</event>
<event>
 4    5  0.1074803E-007  0.7121983E+03  0.7818608E-02  0.9949927E-01
          1   -1    0    0  501    0  0.00000000000E+00  0.00000000000E+00  0.32146707600E+04  0.32146707600E+04  0.50400000000E-02 0. -1.
         -1   -1    0    0    0  501 -0.00000000000E+00 -0.00000000000E+00 -0.48771455253E+03  0.48771455256E+03  0.50400000000E-02 0.  1.
    8880023    1    1    2    0    0  0.10559592140E+03  0.24953105976E+03  0.31204783651E+04  0.32007204942E+04  0.65864270000E+03 0. -1.
    8880022    1    1    2    0    0 -0.10559592140E+03 -0.24953105976E+03 -0.39352215767E+03  0.50166481837E+03  0.15294330000E+03 0.  0.
<mgrwt>
<rscale>  0 0.57901466E+03</rscale>
<asrwt>0</asrwt>
<pdfrwt beam="1">  1        1 0.49456475E+00 0.71219833E+03</pdfrwt>
<pdfrwt beam="2">  1       -1 0.75033005E-01 0.71219833E+03</pdfrwt>
<totfact> 0.81061742E-01</totfact>
</mgrwt>
</event>
<event>
 4    5  0.1074803E-007  0.7229431E+03  0.7818608E-02  0.9912750E-01
         -1   -1    0    0    0  501 -0.00000000000E+00  0.00000000000E+00  0.76128725764E+03  0.76128725766E+03  0.50400000000E-02 0.  1.
          1   -1    0    0  501    0  0.00000000000E+00 -0.00000000000E+00 -0.48919723411E+03  0.48919723414E+03  0.50400000000E-02 0. -1.
    8880023    1    1    2    0    0  0.18496145743E+03  0.23372171357E+03 -0.12208783952E+03  0.73317953255E+03  0.65864270000E+03 0.  0.
    8880022    1    1    2    0    0 -0.18496145743E+03 -0.23372171357E+03  0.39417786305E+03  0.51730495925E+03  0.15294330000E+03 0. -1.
<mgrwt>
<rscale>  0 0.59647311E+03</rscale>
<asrwt>0</asrwt>
<pdfrwt beam="1">  1        1 0.75261113E-01 0.72294314E+03</pdfrwt>
<pdfrwt beam="2">  1       -1 0.11712112E+00 0.72294314E+03</pdfrwt>
<totfact> 0.30794732E+01</totfact>
</mgrwt>
</event>
<event>
 4    5  0.1074803E-007  0.1044518E+04  0.7818608E-02  0.9325501E-01
         -1   -1    0    0    0  501 -0.00000000000E+00  0.00000000000E+00  0.46162661587E+03  0.46162661589E+03  0.50400000000E-02 0.  1.
          1   -1    0    0  501    0  0.00000000000E+00 -0.00000000000E+00 -0.27027989050E+04  0.27027989050E+04  0.50400000000E-02 0. -1.
    8880023    1    1    2    0    0  0.76836808162E+03  0.25849017518E+03 -0.20747198199E+04  0.23228170864E+04  0.65864270000E+03 0.  0.
    8880022    1    1    2    0    0 -0.76836808162E+03 -0.25849017518E+03 -0.16645246925E+03  0.84160843451E+03  0.15294330000E+03 0.  0.
<mgrwt>
<rscale>  0 0.98468690E+03</rscale>
<asrwt>0</asrwt>
<pdfrwt beam="1">  1        1 0.41581521E+00 0.10445175E+04</pdfrwt>
<pdfrwt beam="2">  1       -1 0.71019481E-01 0.10445175E+04</pdfrwt>
<totfact> 0.19871543E+00</totfact>
</mgrwt>
</event>
<event>
 4    5  0.1074803E-007  0.1090697E+04  0.7818608E-02  0.9271486E-01
          1   -1    0    0  501    0  0.00000000000E+00  0.00000000000E+00  0.11538182300E+04  0.11538182300E+04  0.50400000000E-02 0. -1.
         -1   -1    0    0    0  501 -0.00000000000E+00 -0.00000000000E+00 -0.17419719292E+04  0.17419719292E+04  0.50400000000E-02 0.  1.
    8880023    1    1    2    0    0  0.58300453564E+03 -0.64491432422E+03  0.72777977360E+03  0.13112140860E+04  0.65864270000E+03 0.  0.
    8880022    1    1    2    0    0 -0.58300453564E+03  0.64491432422E+03 -0.13159334728E+04  0.15845760733E+04  0.15294330000E+03 0.  0.
<mgrwt>
<rscale>  0 0.10345086E+04</rscale>
<asrwt>0</asrwt>
<pdfrwt beam="1">  1        1 0.17751050E+00 0.10906966E+04</pdfrwt>
<pdfrwt beam="2">  1       -1 0.26799568E+00 0.10906966E+04</pdfrwt>
<totfact> 0.61349147E-01</totfact>
</mgrwt>
</event>
<event>
 4    5  0.1074803E-007  0.1036543E+04  0.7818608E-02  0.9335236E-01
          1   -1    0    0  501    0  0.00000000000E+00  0.00000000000E+00  0.94969459183E+03  0.94969459185E+03  0.50400000000E-02 0. -1.
         -1   -1    0    0    0  501 -0.00000000000E+00 -0.00000000000E+00 -0.11565698056E+04  0.11565698056E+04  0.50400000000E-02 0.  1.
    8880023    1    1    2    0    0 -0.76600073959E+03  0.23206620001E+03  0.37790472305E+03  0.11032833001E+04  0.65864270000E+03 0. -1.
    8880022    1    1    2    0    0  0.76600073959E+03 -0.23206620001E+03 -0.58477993684E+03  0.10029810974E+04  0.15294330000E+03 0.  1.
<mgrwt>
<rscale>  0 0.97602713E+03</rscale>
<asrwt>0</asrwt>
<pdfrwt beam="1">  1        1 0.14610686E+00 0.10365433E+04</pdfrwt>
<pdfrwt beam="2">  1       -1 0.17793382E+00 0.10365433E+04</pdfrwt>
<totfact> 0.35675989E+00</totfact>
</mgrwt>
</event>
<event>
 4    5  0.1074803E-007  0.7847646E+03  0.7818608E-02  0.9744762E-01
         -1   -1    0    0    0  501 -0.00000000000E+00  0.00000000000E+00  0.11191030471E+04  0.11191030471E+04  0.50400000000E-02 0.  1.
          1   -1    0    0  501    0  0.00000000000E+00 -0.00000000000E+00 -0.65280489533E+03  0.65280489535E+03  0.50400000000E-02 0. -1.
    8880023    1    1    2    0    0 -0.99434534486E+02 -0.41491931762E+03 -0.33343544668E+03  0.85266328064E+03  0.65864270000E+03 0. -1.
    8880022    1    1    2    0    0  0.99434534486E+02  0.41491931762E+03  0.79973359849E+03  0.91924466185E+03  0.15294330000E+03 0.  0.
<mgrwt>
<rscale>  0 0.68413115E+03</rscale>
<asrwt>0</asrwt>
<pdfrwt beam="1">  1        1 0.10043152E+00 0.78476460E+03</pdfrwt>
<pdfrwt beam="2">  1       -1 0.17216970E+00 0.78476460E+03</pdfrwt>
<totfact> 0.73793481E+00</totfact>
</mgrwt>
</event>
<event>
 4    5  0.1074803E-007  0.7392479E+03  0.7818608E-02  0.9862143E-01
         -1   -1    0    0    0  501 -0.00000000000E+00  0.00000000000E+00  0.53399259963E+03  0.53399259966E+03  0.50400000000E-02 0.  1.
          1   -1    0    0  501    0  0.00000000000E+00 -0.00000000000E+00 -0.68558250791E+03  0.68558250793E+03  0.50400000000E-02 0. -1.
    8880023    1    1    2    0    0  0.20360395148E+03  0.26687564935E+03 -0.33030861011E+03  0.80968584368E+03  0.65864270000E+03 0. -1.
    8880022    1    1    2    0    0 -0.20360395148E+03 -0.26687564935E+03  0.17871870183E+03  0.40988926391E+03  0.15294330000E+03 0.  0.
<mgrwt>
<rscale>  0 0.62131578E+03</rscale>
<asrwt>0</asrwt>
<pdfrwt beam="1">  1        1 0.10547423E+00 0.73924785E+03</pdfrwt>
<pdfrwt beam="2">  1       -1 0.82152707E-01 0.73924785E+03</pdfrwt>
<totfact> 0.42437990E+01</totfact>
</mgrwt>
</event>
<event>
 4    5  0.1074803E-007  0.8543994E+03  0.7818608E-02  0.9603604E-01
         -1   -1    0    0    0  501 -0.00000000000E+00  0.00000000000E+00  0.13615296086E+04  0.13615296086E+04  0.50400000000E-02 0.  1.
          1   -1    0    0  501    0  0.00000000000E+00 -0.00000000000E+00 -0.59355814350E+03  0.59355814352E+03  0.50400000000E-02 0. -1.
    8880023    1    1    2    0    0 -0.49021710515E+03 -0.23637970067E+03 -0.15925877839E+03  0.86911549165E+03  0.65864270000E+03 0. -1.
    8880022    1    1    2    0    0  0.49021710515E+03  0.23637970067E+03  0.92723024349E+03  0.10859722605E+04  0.15294330000E+03 0.  0.
<mgrwt>
<rscale>  0 0.77058071E+03</rscale>
<asrwt>0</asrwt>
<pdfrwt beam="1">  1        1 0.91316638E-01 0.85439943E+03</pdfrwt>
<pdfrwt beam="2">  1       -1 0.20946609E+00 0.85439943E+03</pdfrwt>
<totfact> 0.46102526E+00</totfact>
</mgrwt>
</event>
<event>
 4    5  0.1074803E-007  0.9517777E+03  0.7818608E-02  0.9447561E-01
         -1   -1    0    0    0  501 -0.00000000000E+00  0.00000000000E+00  0.50859028368E+03  0.50859028370E+03  0.50400000000E-02 0.  1.
          1   -1    0    0  501    0  0.00000000000E+00 -0.00000000000E+00 -0.16037831056E+04  0.16037831056E+04  0.50400000000E-02 0. -1.
    8880023    1    1    2    0    0  0.37739439022E+03  0.57414636948E+03 -0.10347197823E+04  0.14058896875E+04  0.65864270000E+03 0.  0.
    8880022    1    1    2    0    0 -0.37739439022E+03 -0.57414636948E+03 -0.60473039639E+02  0.70648370179E+03  0.15294330000E+03 0.  0.
<mgrwt>
<rscale>  0 0.88262853E+03</rscale>
<asrwt>0</asrwt>
<pdfrwt beam="1">  1        1 0.24673586E+00 0.95177770E+03</pdfrwt>
<pdfrwt beam="2">  1       -1 0.78244660E-01 0.95177770E+03</pdfrwt>
<totfact> 0.91834100E+00</totfact>
</mgrwt>
</event>
<event>
 4    5  0.1074803E-007  0.1208953E+04  0.7818608E-02  0.9148468E-01
          1   -1    0    0  501    0  0.00000000000E+00  0.00000000000E+00  0.24810011550E+04  0.24810011550E+04  0.50400000000E-02 0. -1.
         -1   -1    0    0    0  501 -0.00000000000E+00 -0.00000000000E+00 -0.56505958540E+03  0.56505958543E+03  0.50400000000E-02 0.  1.
    8880023    1    1    2    0    0 -0.81912831228E+03  0.59731639033E+03  0.52483285184E+03  0.13179597076E+04  0.65864270000E+03 0.  0.
    8880022    1    1    2    0    0  0.81912831228E+03 -0.59731639033E+03  0.13911087177E+04  0.17281010328E+04  0.15294330000E+03 0.  0.
<mgrwt>
<rscale>  0 0.11601529E+04</rscale>
<asrwt>0</asrwt>
<pdfrwt beam="1">  1        1 0.38169247E+00 0.12089534E+04</pdfrwt>
<pdfrwt beam="2">  1       -1 0.86932246E-01 0.12089534E+04</pdfrwt>
<totfact> 0.18024448E+00</totfact>
</mgrwt>
</event>
<event>
 4    5  0.1074803E-007  0.7071553E+03  0.7818608E-02  0.9968720E-01
          1   -1    0    0  501    0  0.00000000000E+00  0.00000000000E+00  0.28744671848E+04  0.28744671848E+04  0.50400000000E-02 0. -1.
         -1   -1    0    0    0  501 -0.00000000000E+00 -0.00000000000E+00 -0.23269451034E+03  0.23269451040E+03  0.50400000000E-02 0.  1.
    8880023    1    1    2    0    0  0.17995295522E+03 -0.18405259113E+03  0.27094331966E+04  0.28001958638E+04  0.65864270000E+03 0. -1.
    8880022    1    1    2    0    0 -0.17995295522E+03  0.18405259113E+03 -0.67660522141E+02  0.30696583143E+03  0.15294330000E+03 0.  0.
<mgrwt>
<rscale>  0 0.57043339E+03</rscale>
<asrwt>0</asrwt>
<pdfrwt beam="1">  1        1 0.44222574E+00 0.70715531E+03</pdfrwt>
<pdfrwt beam="2">  1       -1 0.35799154E-01 0.70715531E+03</pdfrwt>
<totfact> 0.58904081E+00</totfact>
</mgrwt>
</event>
<event>
 4    5  0.1074803E-007  0.1324383E+04  0.7818608E-02  0.9044785E-01
         -1   -1    0    0    0  501 -0.00000000000E+00  0.00000000000E+00  0.12568323184E+04  0.12568323184E+04  0.50400000000E-02 0.  1.
          1   -1    0    0  501    0  0.00000000000E+00 -0.00000000000E+00 -0.25574938097E+04  0.25574938097E+04  0.50400000000E-02 0. -1.
    8880023    1    1    2    0    0  0.16559839410E+03  0.11369943342E+04 -0.20452860174E+04  0.24366337524E+04  0.65864270000E+03 0. -1.
    8880022    1    1    2    0    0 -0.16559839410E+03 -0.11369943342E+04  0.74462452612E+03  0.13776923757E+04  0.15294330000E+03 0.  0.
<mgrwt>
<rscale>  0 0.12809809E+04</rscale>
<asrwt>0</asrwt>
<pdfrwt beam="1">  1        1 0.39346059E+00 0.13243826E+04</pdfrwt>
<pdfrwt beam="2">  1       -1 0.19335882E+00 0.13243826E+04</pdfrwt>
<totfact> 0.20022944E-01</totfact>
</mgrwt>
</event>
<event>
 4    5  0.1074803E-007  0.7461690E+03  0.7818608E-02  0.9842328E-01
         -1   -1    0    0    0  501 -0.00000000000E+00  0.00000000000E+00  0.20330947194E+04  0.20330947194E+04  0.50400000000E-02 0.  1.
          1   -1    0    0  501    0  0.00000000000E+00 -0.00000000000E+00 -0.51878457548E+03  0.51878457550E+03  0.50400000000E-02 0. -1.
    8880023    1    1    2    0    0 -0.20357504669E+03  0.28550855400E+03 -0.21837268477E+03  0.77746689303E+03  0.65864270000E+03 0. -1.
    8880022    1    1    2    0    0  0.20357504669E+03 -0.28550855400E+03  0.17326828287E+04  0.17744124019E+04  0.15294330000E+03 0.  0.
<mgrwt>
<rscale>  0 0.63139600E+03</rscale>
<asrwt>0</asrwt>
<pdfrwt beam="1">  1        1 0.79813013E-01 0.74616898E+03</pdfrwt>
<pdfrwt beam="2">  1       -1 0.31278380E+00 0.74616898E+03</pdfrwt>
<totfact> 0.12142962E+00</totfact>
</mgrwt>
</event>
<event>
 4    5  0.1074803E-007  0.8320571E+03  0.7818608E-02  0.9645343E-01
         -1   -1    0    0    0  501 -0.00000000000E+00  0.00000000000E+00  0.16984696972E+04  0.16984696972E+04  0.50400000000E-02 0.  1.
          1   -1    0    0  501    0  0.00000000000E+00 -0.00000000000E+00 -0.12250820878E+04  0.12250820879E+04  0.50400000000E-02 0. -1.
    8880023    1    1    2    0    0 -0.46972688904E+03  0.19459050169E+03 -0.10329462153E+04  0.13263849002E+04  0.65864270000E+03 0. -1.
    8880022    1    1    2    0    0  0.46972688904E+03 -0.19459050169E+03  0.15063338247E+04  0.15971668848E+04  0.15294330000E+03 0.  0.
<mgrwt>
<rscale>  0 0.74366411E+03</rscale>
<asrwt>0</asrwt>
<pdfrwt beam="1">  1        1 0.18847417E+00 0.83205710E+03</pdfrwt>
<pdfrwt beam="2">  1       -1 0.26130303E+00 0.83205710E+03</pdfrwt>
<totfact> 0.62721648E-01</totfact>
</mgrwt>
</event>
<event>
 4    5  0.1074803E-007  0.6836597E+03  0.7818608E-02  0.1007325E+00
          1   -1    0    0  501    0  0.00000000000E+00  0.00000000000E+00  0.46120297234E+03  0.46120297236E+03  0.50400000000E-02 0. -1.
         -1   -1    0    0    0  501 -0.00000000000E+00 -0.00000000000E+00 -0.51370127345E+03  0.51370127347E+03  0.50400000000E-02 0.  1.
    8880023    1    1    2    0    0  0.18309674332E+03 -0.74794680717E+01  0.10105758770E+03  0.69108841848E+03  0.65864270000E+03 0. -1.
    8880022    1    1    2    0    0 -0.18309674332E+03  0.74794680717E+01 -0.15355588881E+03  0.28381582736E+03  0.15294330000E+03 0.  1.
<mgrwt>
<rscale>  0 0.52551809E+03</rscale>
<asrwt>0</asrwt>
<pdfrwt beam="1">  1        1 0.70954304E-01 0.68365969E+03</pdfrwt>
<pdfrwt beam="2">  1       -1 0.79030965E-01 0.68365969E+03</pdfrwt>
<totfact> 0.81162877E+01</totfact>
</mgrwt>
</event>
<event>
 4    5  0.1074803E-007  0.8944409E+03  0.7818608E-02  0.9535015E-01
          1   -1    0    0  501    0  0.00000000000E+00  0.00000000000E+00  0.29232876229E+04  0.29232876229E+04  0.50400000000E-02 0. -1.
         -1   -1    0    0    0  501 -0.00000000000E+00 -0.00000000000E+00 -0.54659893099E+03  0.54659893101E+03  0.50400000000E-02 0.  1.
    8880023    1    1    2    0    0  0.21818505983E+03  0.56445512608E+03  0.26437600075E+04  0.27909660502E+04  0.65864270000E+03 0. -1.
    8880022    1    1    2    0    0 -0.21818505983E+03 -0.56445512608E+03 -0.26707131563E+03  0.67892050370E+03  0.15294330000E+03 0.  0.
<mgrwt>
<rscale>  0 0.81750786E+03</rscale>
<asrwt>0</asrwt>
<pdfrwt beam="1">  1        1 0.44973656E+00 0.89444090E+03</pdfrwt>
<pdfrwt beam="2">  1       -1 0.84092143E-01 0.89444090E+03</pdfrwt>
<totfact> 0.99585539E-01</totfact>
</mgrwt>
</event>
<event>
 4    5  0.1074803E-007  0.1132885E+04  0.7818608E-02  0.9225297E-01
          1   -1    0    0  501    0  0.00000000000E+00  0.00000000000E+00  0.13716537623E+04  0.13716537623E+04  0.50400000000E-02 0. -1.
         -1   -1    0    0    0  501 -0.00000000000E+00 -0.00000000000E+00 -0.18147364724E+04  0.18147364724E+04  0.50400000000E-02 0.  1.
    8880023    1    1    2    0    0 -0.79593294209E+03  0.46487568842E+03  0.97061936238E+03  0.14918213053E+04  0.65864270000E+03 0. -1.
    8880022    1    1    2    0    0  0.79593294209E+03 -0.46487568842E+03 -0.14137020725E+04  0.16945689295E+04  0.15294330000E+03 0.  0.
<mgrwt>
<rscale>  0 0.10796099E+04</rscale>
<asrwt>0</asrwt>
<pdfrwt beam="1">  1        1 0.21102366E+00 0.11328852E+04</pdfrwt>
<pdfrwt beam="2">  1       -1 0.27919023E+00 0.11328852E+04</pdfrwt>
<totfact> 0.35956409E-01</totfact>
</mgrwt>
</event>
<event>
 4    5  0.1074803E-007  0.1919660E+04  0.7818608E-02  0.8659082E-01
         -1   -1    0    0    0  501 -0.00000000000E+00  0.00000000000E+00  0.20882304809E+04  0.20882304809E+04  0.50400000000E-02 0.  1.
          1   -1    0    0  501    0  0.00000000000E+00 -0.00000000000E+00 -0.21736569832E+04  0.21736569832E+04  0.50400000000E-02 0. -1.
    8880023    1    1    2    0    0 -0.87705834879E+03 -0.15754530328E+04 -0.10741923492E+04  0.21997688549E+04  0.65864270000E+03 0.  0.
    8880022    1    1    2    0    0  0.87705834879E+03  0.15754530328E+04  0.98876584688E+03  0.20621186092E+04  0.15294330000E+03 0.  0.
<mgrwt>
<rscale>  0 0.18915344E+04</rscale>
<asrwt>0</asrwt>
<pdfrwt beam="1">  1        1 0.33440877E+00 0.19196598E+04</pdfrwt>
<pdfrwt beam="2">  1       -1 0.32126623E+00 0.19196598E+04</pdfrwt>
<totfact> 0.48896102E-02</totfact>
</mgrwt>
</event>
<event>
 4    5  0.1074803E-007  0.1119293E+04  0.7818608E-02  0.9239874E-01
          1   -1    0    0  501    0  0.00000000000E+00  0.00000000000E+00  0.67492867747E+03  0.67492867748E+03  0.50400000000E-02 0. -1.
         -1   -1    0    0    0  501 -0.00000000000E+00 -0.00000000000E+00 -0.21058620989E+04  0.21058620990E+04  0.50400000000E-02 0.  1.
    8880023    1    1    2    0    0  0.59861755595E+03 -0.67872125027E+03 -0.47140420392E+02  0.11202847582E+04  0.65864270000E+03 0.  0.
    8880022    1    1    2    0    0 -0.59861755595E+03  0.67872125027E+03 -0.13837930011E+04  0.16605060183E+04  0.15294330000E+03 0.  0.
<mgrwt>
<rscale>  0 0.10651170E+04</rscale>
<asrwt>0</asrwt>
<pdfrwt beam="1">  1        1 0.10383518E+00 0.11192925E+04</pdfrwt>
<pdfrwt beam="2">  1       -1 0.32397878E+00 0.11192925E+04</pdfrwt>
<totfact> 0.66394134E-01</totfact>
</mgrwt>
</event>
<event>
 4    5  0.1074803E-007  0.6922970E+03  0.7818608E-02  0.1003079E+00
          1   -1    0    0  501    0  0.00000000000E+00  0.00000000000E+00  0.42347754139E+04  0.42347754139E+04  0.50400000000E-02 0. -1.
         -1   -1    0    0    0  501 -0.00000000000E+00 -0.00000000000E+00 -0.17011933913E+03  0.17011933921E+03  0.50400000000E-02 0.  1.
    8880023    1    1    2    0    0  0.21322518753E+03 -0.43749132593E-01  0.40835424485E+04  0.41418104879E+04  0.65864270000E+03 0. -1.
    8880022    1    1    2    0    0 -0.21322518753E+03  0.43749132593E-01 -0.18886373688E+02  0.26308426528E+03  0.15294330000E+03 0.  0.
<mgrwt>
<rscale>  0 0.54320353E+03</rscale>
<asrwt>0</asrwt>
<pdfrwt beam="1">  1        1 0.65150388E+00 0.69229704E+03</pdfrwt>
<pdfrwt beam="2">  1       -1 0.26172207E-01 0.69229704E+03</pdfrwt>
<totfact> 0.85842574E-01</totfact>
</mgrwt>
</event>
<event>
 4    5  0.1074803E-007  0.6937445E+03  0.7818608E-02  0.1002421E+00
          1   -1    0    0  501    0  0.00000000000E+00  0.00000000000E+00  0.17682794189E+04  0.17682794189E+04  0.50400000000E-02 0. -1.
         -1   -1    0    0    0  501 -0.00000000000E+00 -0.00000000000E+00 -0.42711206048E+03  0.42711206051E+03  0.50400000000E-02 0.  1.
    8880023    1    1    2    0    0  0.19408200722E+03 -0.99011809730E+02  0.16486622650E+04  0.17886779013E+04  0.65864270000E+03 0. -1.
    8880022    1    1    2    0    0 -0.19408200722E+03  0.99011809730E+02 -0.30749490666E+03  0.40671357812E+03  0.15294330000E+03 0.  0.
<mgrwt>
<rscale>  0 0.54601170E+03</rscale>
<asrwt>0</asrwt>
<pdfrwt beam="1">  1        1 0.27204298E+00 0.69374446E+03</pdfrwt>
<pdfrwt beam="2">  1       -1 0.65709549E-01 0.69374446E+03</pdfrwt>
<totfact> 0.10568488E+01</totfact>
</mgrwt>
</event>
<event>
 4    5  0.1074803E-007  0.9213783E+03  0.7818608E-02  0.9492549E-01
         -1   -1    0    0    0  501 -0.00000000000E+00  0.00000000000E+00  0.46351069350E+03  0.46351069352E+03  0.50400000000E-02 0.  1.
          1   -1    0    0  501    0  0.00000000000E+00 -0.00000000000E+00 -0.21065346058E+04  0.21065346059E+04  0.50400000000E-02 0. -1.
    8880023    1    1    2    0    0 -0.59165980418E+03 -0.25508140795E+03 -0.16699741179E+04  0.19072890733E+04  0.65864270000E+03 0.  0.
    8880022    1    1    2    0    0  0.59165980418E+03  0.25508140795E+03  0.26950205544E+02  0.66275622604E+03  0.15294330000E+03 0.  0.
<mgrwt>
<rscale>  0 0.84835401E+03</rscale>
<asrwt>0</asrwt>
<pdfrwt beam="1">  1        1 0.32408224E+00 0.92137835E+03</pdfrwt>
<pdfrwt beam="2">  1       -1 0.71309338E-01 0.92137835E+03</pdfrwt>
<totfact> 0.51276919E+00</totfact>
</mgrwt>
</event>
<event>
 4    5  0.1074803E-007  0.8551579E+03  0.7818608E-02  0.9602235E-01
          1   -1    0    0  501    0  0.00000000000E+00  0.00000000000E+00  0.12232113447E+04  0.12232113447E+04  0.50400000000E-02 0. -1.
         -1   -1    0    0    0  501 -0.00000000000E+00 -0.00000000000E+00 -0.41454544872E+03  0.41454544875E+03  0.50400000000E-02 0.  1.
    8880023    1    1    2    0    0  0.17459835340E+03  0.51672070281E+03  0.53428810640E+03  0.10083446120E+04  0.65864270000E+03 0. -1.
    8880022    1    1    2    0    0 -0.17459835340E+03 -0.51672070281E+03  0.27437778961E+03  0.62941218146E+03  0.15294330000E+03 0.  1.
<mgrwt>
<rscale>  0 0.77148411E+03</rscale>
<asrwt>0</asrwt>
<pdfrwt beam="1">  1        1 0.18818636E+00 0.85515792E+03</pdfrwt>
<pdfrwt beam="2">  1       -1 0.63776222E-01 0.85515792E+03</pdfrwt>
<totfact> 0.26081134E+01</totfact>
</mgrwt>
</event>
<event>
 4    5  0.1074803E-007  0.7847780E+03  0.7818608E-02  0.9744731E-01
         -1   -1    0    0    0  501 -0.00000000000E+00  0.00000000000E+00  0.47847926345E+03  0.47847926347E+03  0.50400000000E-02 0.  1.
          1   -1    0    0  501    0  0.00000000000E+00 -0.00000000000E+00 -0.22000398258E+04  0.22000398258E+04  0.50400000000E-02 0. -1.
    8880023    1    1    2    0    0  0.11735565068E+03  0.41023636596E+03 -0.19986895021E+04  0.21472391941E+04  0.65864270000E+03 0.  0.
    8880022    1    1    2    0    0 -0.11735565068E+03 -0.41023636596E+03  0.27712893977E+03  0.53127989513E+03  0.15294330000E+03 0.  0.
<mgrwt>
<rscale>  0 0.68414860E+03</rscale>
<asrwt>0</asrwt>
<pdfrwt beam="1">  1        1 0.33846766E+00 0.78477795E+03</pdfrwt>
<pdfrwt beam="2">  1       -1 0.73612195E-01 0.78477795E+03</pdfrwt>
<totfact> 0.42434247E+00</totfact>
</mgrwt>
</event>
<event>
 4    5  0.1074803E-007  0.1039768E+04  0.7818608E-02  0.9331284E-01
         -1   -1    0    0    0  501 -0.00000000000E+00  0.00000000000E+00  0.12213516050E+04  0.12213516050E+04  0.50400000000E-02 0.  1.
          1   -1    0    0  501    0  0.00000000000E+00 -0.00000000000E+00 -0.17796021317E+04  0.17796021317E+04  0.50400000000E-02 0. -1.
    8880023    1    1    2    0    0 -0.67550536521E+03 -0.43703466422E+03 -0.14538279888E+04  0.17873815551E+04  0.65864270000E+03 0. -1.
    8880022    1    1    2    0    0  0.67550536521E+03  0.43703466422E+03  0.89557746212E+03  0.12135721816E+04  0.15294330000E+03 0.  0.
<mgrwt>
<rscale>  0 0.97953098E+03</rscale>
<asrwt>0</asrwt>
<pdfrwt beam="1">  1        1 0.27378495E+00 0.10397678E+04</pdfrwt>
<pdfrwt beam="2">  1       -1 0.18790025E+00 0.10397678E+04</pdfrwt>
<totfact> 0.77138682E-01</totfact>
</mgrwt>
</event>
<event>
 4    5  0.1074803E-007  0.1096321E+04  0.7818608E-02  0.9265164E-01
         -1   -1    0    0    0  501 -0.00000000000E+00  0.00000000000E+00  0.45646455530E+03  0.45646455533E+03  0.50400000000E-02 0.  1.
          1   -1    0    0  501    0  0.00000000000E+00 -0.00000000000E+00 -0.31315124629E+04  0.31315124629E+04  0.50400000000E-02 0. -1.
    8880023    1    1    2    0    0  0.38150564252E+03  0.78902595096E+03 -0.24289485298E+04  0.26649033141E+04  0.65864270000E+03 0.  0.
    8880022    1    1    2    0    0 -0.38150564252E+03 -0.78902595096E+03 -0.24609937779E+03  0.92307370417E+03  0.15294330000E+03 0.  0.
<mgrwt>
<rscale>  0 0.10405418E+04</rscale>
<asrwt>0</asrwt>
<pdfrwt beam="1">  1        1 0.48177113E+00 0.10963205E+04</pdfrwt>
<pdfrwt beam="2">  1       -1 0.70225318E-01 0.10963205E+04</pdfrwt>
<totfact> 0.99548386E-01</totfact>
</mgrwt>
</event>
<event>
 4    5  0.1074803E-007  0.7681504E+03  0.7818608E-02  0.9784446E-01
          1   -1    0    0  501    0  0.00000000000E+00  0.00000000000E+00  0.11580779028E+04  0.11580779028E+04  0.50400000000E-02 0. -1.
         -1   -1    0    0    0  501 -0.00000000000E+00 -0.00000000000E+00 -0.47757408908E+03  0.47757408910E+03  0.50400000000E-02 0.  1.
    8880023    1    1    2    0    0 -0.15264455748E+03  0.36461557535E+03  0.87924807135E+03  0.11675325503E+04  0.65864270000E+03 0.  0.
    8880022    1    1    2    0    0  0.15264455748E+03 -0.36461557535E+03 -0.19874425760E+03  0.46811944166E+03  0.15294330000E+03 0.  0.
<mgrwt>
<rscale>  0 0.66203971E+03</rscale>
<asrwt>0</asrwt>
<pdfrwt beam="1">  1        1 0.17816583E+00 0.76815043E+03</pdfrwt>
<pdfrwt beam="2">  1       -1 0.73472938E-01 0.76815043E+03</pdfrwt>
<totfact> 0.22011382E+01</totfact>
</mgrwt>
</event>
<event>
 4    5  0.1074803E-007  0.1514759E+04  0.7818608E-02  0.8899284E-01
         -1   -1    0    0    0  501 -0.00000000000E+00  0.00000000000E+00  0.14753596215E+04  0.14753596215E+04  0.50400000000E-02 0.  1.
          1   -1    0    0  501    0  0.00000000000E+00 -0.00000000000E+00 -0.23980992858E+04  0.23980992858E+04  0.50400000000E-02 0. -1.
    8880023    1    1    2    0    0 -0.13491748942E+04 -0.20102884919E+03 -0.17153504534E+04  0.22884324062E+04  0.65864270000E+03 0.  0.
    8880022    1    1    2    0    0  0.13491748942E+04  0.20102884919E+03  0.79261078905E+03  0.15850265011E+04  0.15294330000E+03 0.  0.
<mgrwt>
<rscale>  0 0.14779000E+04</rscale>
<asrwt>0</asrwt>
<pdfrwt beam="1">  1        1 0.36893835E+00 0.15147593E+04</pdfrwt>
<pdfrwt beam="2">  1       -1 0.22697840E+00 0.15147593E+04</pdfrwt>
<totfact> 0.14842469E-01</totfact>
</mgrwt>
</event>
<event>
 4    5  0.1074803E-007  0.1379137E+04  0.7818608E-02  0.9000066E-01
          1   -1    0    0  501    0  0.00000000000E+00  0.00000000000E+00  0.21801034540E+04  0.21801034540E+04  0.50400000000E-02 0. -1.
         -1   -1    0    0    0  501 -0.00000000000E+00 -0.00000000000E+00 -0.22976822037E+04  0.22976822037E+04  0.50400000000E-02 0.  1.
    8880023    1    1    2    0    0  0.83943636802E+03 -0.87381687485E+03  0.17612047130E+04  0.22369312895E+04  0.65864270000E+03 0.  0.
    8880022    1    1    2    0    0 -0.83943636802E+03  0.87381687485E+03 -0.18787834627E+04  0.22408543682E+04  0.15294330000E+03 0.  0.
<mgrwt>
<rscale>  0 0.13378647E+04</rscale>
<asrwt>0</asrwt>
<pdfrwt beam="1">  1        1 0.33540053E+00 0.13791372E+04</pdfrwt>
<pdfrwt beam="2">  1       -1 0.35348957E+00 0.13791372E+04</pdfrwt>
<totfact> 0.31834722E-02</totfact>
</mgrwt>
</event>
<event>
 4    5  0.1074803E-007  0.8940550E+03  0.7818608E-02  0.9535644E-01
          1   -1    0    0  501    0  0.00000000000E+00  0.00000000000E+00  0.11333271217E+04  0.11333271218E+04  0.50400000000E-02 0. -1.
         -1   -1    0    0    0  501 -0.00000000000E+00 -0.00000000000E+00 -0.96559226732E+03  0.96559226733E+03  0.50400000000E-02 0.  1.
    8880023    1    1    2    0    0  0.51333184431E+03 -0.31939703506E+03  0.80804364178E+03  0.12051011500E+04  0.65864270000E+03 0.  0.
    8880022    1    1    2    0    0 -0.51333184431E+03  0.31939703506E+03 -0.64030878736E+03  0.89381823911E+03  0.15294330000E+03 0.  0.
<mgrwt>
<rscale>  0 0.81706215E+03</rscale>
<asrwt>0</asrwt>
<pdfrwt beam="1">  1        1 0.17435802E+00 0.89405495E+03</pdfrwt>
<pdfrwt beam="2">  1       -1 0.14855266E+00 0.89405495E+03</pdfrwt>
<totfact> 0.43577610E+00</totfact>
</mgrwt>
</event>
<event>
 4    5  0.1074803E-007  0.7634576E+03  0.7818608E-02  0.9796237E-01
          1   -1    0    0  501    0  0.00000000000E+00  0.00000000000E+00  0.13948374617E+04  0.13948374618E+04  0.50400000000E-02 0. -1.
         -1   -1    0    0    0  501 -0.00000000000E+00 -0.00000000000E+00 -0.44939390390E+03  0.44939390393E+03  0.50400000000E-02 0.  1.
    8880023    1    1    2    0    0  0.18002355063E+03  0.34153893014E+03  0.11507553869E+04  0.13809799008E+04  0.65864270000E+03 0. -1.
    8880022    1    1    2    0    0 -0.18002355063E+03 -0.34153893014E+03 -0.20531182906E+03  0.46325146492E+03  0.15294330000E+03 0.  0.
<mgrwt>
<rscale>  0 0.65564880E+03</rscale>
<asrwt>0</asrwt>
<pdfrwt beam="1">  1        1 0.21459038E+00 0.76345761E+03</pdfrwt>
<pdfrwt beam="2">  1       -1 0.69137525E-01 0.76345761E+03</pdfrwt>
<totfact> 0.16928667E+01</totfact>
</mgrwt>
</event>
<event>
 4    5  0.1074803E-007  0.9428203E+03  0.7818608E-02  0.9460520E-01
         -1   -1    0    0    0  501 -0.00000000000E+00  0.00000000000E+00  0.78796098219E+03  0.78796098221E+03  0.50400000000E-02 0.  1.
          1   -1    0    0  501    0  0.00000000000E+00 -0.00000000000E+00 -0.17037174513E+04  0.17037174513E+04  0.50400000000E-02 0. -1.
    8880023    1    1    2    0    0 -0.63299117773E+03 -0.23328522447E+03 -0.13707735957E+04  0.16637097956E+04  0.65864270000E+03 0. -1.
    8880022    1    1    2    0    0  0.63299117773E+03  0.23328522447E+03  0.45501712652E+03  0.82796863798E+03  0.15294330000E+03 0.  0.
<mgrwt>
<rscale>  0 0.87258141E+03</rscale>
<asrwt>0</asrwt>
<pdfrwt beam="1">  1        1 0.26211038E+00 0.94282026E+03</pdfrwt>
<pdfrwt beam="2">  1       -1 0.12122477E+00 0.94282026E+03</pdfrwt>
<totfact> 0.29052669E+00</totfact>
</mgrwt>
</event>
<event>
 4    5  0.1074803E-007  0.8046566E+03  0.7818608E-02  0.9700817E-01
          1   -1    0    0  501    0  0.00000000000E+00  0.00000000000E+00  0.63023389909E+03  0.63023389911E+03  0.50400000000E-02 0. -1.
         -1   -1    0    0    0  501 -0.00000000000E+00 -0.00000000000E+00 -0.86226917092E+03  0.86226917093E+03  0.50400000000E-02 0.  1.
    8880023    1    1    2    0    0 -0.15511463061E+03 -0.43543248134E+03  0.21354078599E+03  0.83250938011E+03  0.65864270000E+03 0. -1.
    8880022    1    1    2    0    0  0.15511463061E+03  0.43543248134E+03 -0.44557605781E+03  0.65999368993E+03  0.15294330000E+03 0.  0.
<mgrwt>
<rscale>  0 0.70968194E+03</rscale>
<asrwt>0</asrwt>
<pdfrwt beam="1">  1        1 0.96959062E-01 0.80465657E+03</pdfrwt>
<pdfrwt beam="2">  1       -1 0.13265680E+00 0.80465657E+03</pdfrwt>
<totfact> 0.15687698E+01</totfact>
</mgrwt>
</event>
<event>
 4    5  0.1074803E-007  0.1005770E+04  0.7818608E-02  0.9374047E-01
          1   -1    0    0  501    0  0.00000000000E+00  0.00000000000E+00  0.18399204331E+04  0.18399204331E+04  0.50400000000E-02 0. -1.
         -1   -1    0    0    0  501 -0.00000000000E+00 -0.00000000000E+00 -0.51616293506E+03  0.51616293508E+03  0.50400000000E-02 0.  1.
    8880023    1    1    2    0    0 -0.25868559715E+03 -0.71473477676E+03  0.12084144681E+04  0.15722085652E+04  0.65864270000E+03 0.  0.
    8880022    1    1    2    0    0  0.25868559715E+03  0.71473477676E+03  0.11534302991E+03  0.78387480304E+03  0.15294330000E+03 0.  0.
<mgrwt>
<rscale>  0 0.94242659E+03</rscale>
<asrwt>0</asrwt>
<pdfrwt beam="1">  1        1 0.28306468E+00 0.10057705E+04</pdfrwt>
<pdfrwt beam="2">  1       -1 0.79409683E-01 0.10057705E+04</pdfrwt>
<totfact> 0.61175952E+00</totfact>
</mgrwt>
</event>
<event>
 4    5  0.1074803E-007  0.8732507E+03  0.7818608E-02  0.9570414E-01
         -1   -1    0    0    0  501 -0.00000000000E+00  0.00000000000E+00  0.14854120054E+04  0.14854120054E+04  0.50400000000E-02 0.  1.
          1   -1    0    0  501    0  0.00000000000E+00 -0.00000000000E+00 -0.43559579393E+03  0.43559579396E+03  0.50400000000E-02 0. -1.
    8880023    1    1    2    0    0 -0.21574610176E+03 -0.53123452131E+03  0.99682305175E+03  0.13252256034E+04  0.65864270000E+03 0.  1.
    8880022    1    1    2    0    0  0.21574610176E+03  0.53123452131E+03  0.52993159704E+02  0.59578219598E+03  0.15294330000E+03 0.  0.
<mgrwt>
<rscale>  0 0.79285700E+03</rscale>
<asrwt>0</asrwt>
<pdfrwt beam="1">  1        1 0.67014738E-01 0.87325065E+03</pdfrwt>
<pdfrwt beam="2">  1       -1 0.22852492E+00 0.87325065E+03</pdfrwt>
<totfact> 0.52743307E+00</totfact>
</mgrwt>
</event>
<event>
 4    5  0.1074803E-007  0.1162482E+04  0.7818608E-02  0.9194484E-01
          1   -1    0    0  501    0  0.00000000000E+00  0.00000000000E+00  0.17389430075E+04  0.17389430075E+04  0.50400000000E-02 0. -1.
         -1   -1    0    0    0  501 -0.00000000000E+00 -0.00000000000E+00 -0.80844523758E+03  0.80844523760E+03  0.50400000000E-02 0.  1.
    8880023    1    1    2    0    0  0.48344534450E+03  0.82694313959E+03  0.10544615961E+04  0.15694756516E+04  0.65864270000E+03 0.  0.
    8880022    1    1    2    0    0 -0.48344534450E+03 -0.82694313959E+03 -0.12396382617E+03  0.97791259346E+03  0.15294330000E+03 0.  0.
<mgrwt>
<rscale>  0 0.11110543E+04</rscale>
<asrwt>0</asrwt>
<pdfrwt beam="1">  1        1 0.26752969E+00 0.11624821E+04</pdfrwt>
<pdfrwt beam="2">  1       -1 0.12437619E+00 0.11624821E+04</pdfrwt>
<totfact> 0.25081787E+00</totfact>
</mgrwt>
</event>
<event>
 4    5  0.1074803E-007  0.1121446E+04  0.7818608E-02  0.9237546E-01
         -1   -1    0    0    0  501 -0.00000000000E+00  0.00000000000E+00  0.14265142386E+04  0.14265142386E+04  0.50400000000E-02 0.  1.
          1   -1    0    0  501    0  0.00000000000E+00 -0.00000000000E+00 -0.88630039617E+03  0.88630039618E+03  0.50400000000E-02 0. -1.
    8880023    1    1    2    0    0 -0.11433329311E+03  0.90042196340E+03 -0.19059239582E+03  0.11375269147E+04  0.65864270000E+03 0.  0.
    8880022    1    1    2    0    0  0.11433329311E+03 -0.90042196340E+03  0.73080623823E+03  0.11752877201E+04  0.15294330000E+03 0.  0.
<mgrwt>
<rscale>  0 0.10674158E+04</rscale>
<asrwt>0</asrwt>
<pdfrwt beam="1">  1        1 0.13635391E+00 0.11214464E+04</pdfrwt>
<pdfrwt beam="2">  1       -1 0.21946373E+00 0.11214464E+04</pdfrwt>
<totfact> 0.20530227E+00</totfact>
</mgrwt>
</event>
<event>
 4    5  0.1074803E-007  0.7095908E+03  0.7818608E-02  0.9959523E-01
          1   -1    0    0  501    0  0.00000000000E+00  0.00000000000E+00  0.27085725732E+04  0.27085725733E+04  0.50400000000E-02 0. -1.
         -1   -1    0    0    0  501 -0.00000000000E+00 -0.00000000000E+00 -0.59438736272E+03  0.59438736274E+03  0.50400000000E-02 0.  1.
    8880023    1    1    2    0    0  0.18744598508E+02 -0.26335831770E+03  0.26188192349E+04  0.27132514360E+04  0.65864270000E+03 0. -1.
    8880022    1    1    2    0    0 -0.18744598508E+02  0.26335831770E+03 -0.50463402434E+03  0.58970850004E+03  0.15294330000E+03 0.  0.
<mgrwt>
<rscale>  0 0.57461251E+03</rscale>
<asrwt>0</asrwt>
<pdfrwt beam="1">  1        1 0.41670346E+00 0.70959085E+03</pdfrwt>
<pdfrwt beam="2">  1       -1 0.91444212E-01 0.70959085E+03</pdfrwt>
<totfact> 0.12196795E+00</totfact>
</mgrwt>
</event>
<event>
 4    5  0.1074803E-007  0.7656398E+03  0.7818608E-02  0.9790720E-01
         -1   -1    0    0    0  501 -0.00000000000E+00  0.00000000000E+00  0.18585970811E+04  0.18585970811E+04  0.50400000000E-02 0.  1.
          1   -1    0    0  501    0  0.00000000000E+00 -0.00000000000E+00 -0.17579994053E+04  0.17579994053E+04  0.50400000000E-02 0. -1.
    8880023    1    1    2    0    0  0.38442279140E+03 -0.67920089983E+02 -0.16486736580E+04  0.18177813560E+04  0.65864270000E+03 0. -1.
    8880022    1    1    2    0    0 -0.38442279140E+03  0.67920089983E+02  0.17492713338E+04  0.17988151305E+04  0.15294330000E+03 0.  0.
<mgrwt>
<rscale>  0 0.65862967E+03</rscale>
<asrwt>0</asrwt>
<pdfrwt beam="1">  1        1 0.27046145E+00 0.76563975E+03</pdfrwt>
<pdfrwt beam="2">  1       -1 0.28593801E+00 0.76563975E+03</pdfrwt>
<totfact> 0.18984982E-01</totfact>
</mgrwt>
</event>
<event>
 4    5  0.1074803E-007  0.8274148E+03  0.7818608E-02  0.9654384E-01
          1   -1    0    0  501    0  0.00000000000E+00  0.00000000000E+00  0.19827498562E+04  0.19827498562E+04  0.50400000000E-02 0. -1.
         -1   -1    0    0    0  501 -0.00000000000E+00 -0.00000000000E+00 -0.60376505621E+03  0.60376505623E+03  0.50400000000E-02 0.  1.
    8880023    1    1    2    0    0 -0.53570480937E+02 -0.49793093002E+03  0.17560674062E+04  0.19412336153E+04  0.65864270000E+03 0. -1.
    8880022    1    1    2    0    0  0.53570480937E+02  0.49793093002E+03 -0.37708260627E+03  0.64528129716E+03  0.15294330000E+03 0.  0.
<mgrwt>
<rscale>  0 0.73798957E+03</rscale>
<asrwt>0</asrwt>
<pdfrwt beam="1">  1        1 0.30503844E+00 0.82741478E+03</pdfrwt>
<pdfrwt beam="2">  1       -1 0.92886932E-01 0.82741478E+03</pdfrwt>
<totfact> 0.35759023E+00</totfact>
</mgrwt>
</event>
<event>
 4    5  0.1074803E-007  0.9516248E+03  0.7818608E-02  0.9447780E-01
         -1   -1    0    0    0  501 -0.00000000000E+00  0.00000000000E+00  0.54865824864E+03  0.54865824866E+03  0.50400000000E-02 0.  1.
          1   -1    0    0  501    0  0.00000000000E+00 -0.00000000000E+00 -0.24327218038E+04  0.24327218038E+04  0.50400000000E-02 0. -1.
    8880023    1    1    2    0    0 -0.44594517428E+03 -0.52241032163E+03 -0.20484918154E+04  0.22587404823E+04  0.65864270000E+03 0. -1.
    8880022    1    1    2    0    0  0.44594517428E+03  0.52241032163E+03  0.16442826018E+03  0.72263957017E+03  0.15294330000E+03 0.  1.
<mgrwt>
<rscale>  0 0.88245743E+03</rscale>
<asrwt>0</asrwt>
<pdfrwt beam="1">  1        1 0.37426489E+00 0.95162485E+03</pdfrwt>
<pdfrwt beam="2">  1       -1 0.84408963E-01 0.95162485E+03</pdfrwt>
<totfact> 0.21491247E+00</totfact>
</mgrwt>
</event>
<event>
 4    5  0.1074803E-007  0.9475845E+03  0.7818608E-02  0.9453598E-01
          1   -1    0    0  501    0  0.00000000000E+00  0.00000000000E+00  0.15573675365E+04  0.15573675365E+04  0.50400000000E-02 0. -1.
         -1   -1    0    0    0  501 -0.00000000000E+00 -0.00000000000E+00 -0.89321088622E+03  0.89321088624E+03  0.50400000000E-02 0.  1.
    8880023    1    1    2    0    0  0.64832787567E+03 -0.20922975104E+03  0.12294300740E+04  0.15522289252E+04  0.65864270000E+03 0.  0.
    8880022    1    1    2    0    0 -0.64832787567E+03  0.20922975104E+03 -0.56527342375E+03  0.89834949753E+03  0.15294330000E+03 0.  1.
<mgrwt>
<rscale>  0 0.87793029E+03</rscale>
<asrwt>0</asrwt>
<pdfrwt beam="1">  1        1 0.23959500E+00 0.94758447E+03</pdfrwt>
<pdfrwt beam="2">  1       -1 0.13741706E+00 0.94758447E+03</pdfrwt>
<totfact> 0.26619703E+00</totfact>
</mgrwt>
</event>
<event>
 4    5  0.1074803E-007  0.9493325E+03  0.7818608E-02  0.9451075E-01
          1   -1    0    0  501    0  0.00000000000E+00  0.00000000000E+00  0.16132508744E+04  0.16132508745E+04  0.50400000000E-02 0. -1.
         -1   -1    0    0    0  501 -0.00000000000E+00 -0.00000000000E+00 -0.82867752860E+03  0.82867752862E+03  0.50400000000E-02 0.  1.
    8880023    1    1    2    0    0  0.66187163804E+03 -0.17131236796E+03  0.12729191036E+04  0.15879405666E+04  0.65864270000E+03 0. -1.
    8880022    1    1    2    0    0 -0.66187163804E+03  0.17131236796E+03 -0.48834575773E+03  0.85398783643E+03  0.15294330000E+03 0.  0.
<mgrwt>
<rscale>  0 0.87988992E+03</rscale>
<asrwt>0</asrwt>
<pdfrwt beam="1">  1        1 0.24819244E+00 0.94933250E+03</pdfrwt>
<pdfrwt beam="2">  1       -1 0.12748885E+00 0.94933250E+03</pdfrwt>
<totfact> 0.29501602E+00</totfact>
</mgrwt>
</event>
<event>
 4    5  0.1074803E-007  0.8320373E+03  0.7818608E-02  0.9645381E-01
         -1   -1    0    0    0  501 -0.00000000000E+00  0.00000000000E+00  0.11023167105E+04  0.11023167106E+04  0.50400000000E-02 0.  1.
          1   -1    0    0  501    0  0.00000000000E+00 -0.00000000000E+00 -0.53271979886E+03  0.53271979889E+03  0.50400000000E-02 0. -1.
    8880023    1    1    2    0    0  0.35538603622E+03 -0.36356101553E+03 -0.32026786361E+02  0.83265345016E+03  0.65864270000E+03 0.  0.
    8880022    1    1    2    0    0 -0.35538603622E+03  0.36356101553E+03  0.60162369804E+03  0.80238305928E+03  0.15294330000E+03 0.  0.
<mgrwt>
<rscale>  0 0.74363996E+03</rscale>
<asrwt>0</asrwt>
<pdfrwt beam="1">  1        1 0.81956892E-01 0.83203729E+03</pdfrwt>
<pdfrwt beam="2">  1       -1 0.16958719E+00 0.83203729E+03</pdfrwt>
<totfact> 0.10259785E+01</totfact>
</mgrwt>
</event>
<event>
 4    5  0.1074803E-007  0.1009271E+04  0.7818608E-02  0.9369527E-01
         -1   -1    0    0    0  501 -0.00000000000E+00  0.00000000000E+00  0.14618299824E+04  0.14618299824E+04  0.50400000000E-02 0.  1.
          1   -1    0    0  501    0  0.00000000000E+00 -0.00000000000E+00 -0.18272216180E+04  0.18272216180E+04  0.50400000000E-02 0. -1.
    8880023    1    1    2    0    0  0.69832166170E+03  0.31171371823E+03 -0.15626200404E+04  0.18602177782E+04  0.65864270000E+03 0. -1.
    8880022    1    1    2    0    0 -0.69832166170E+03 -0.31171371823E+03  0.11972284048E+04  0.14288338222E+04  0.15294330000E+03 0.  0.
<mgrwt>
<rscale>  0 0.94626482E+03</rscale>
<asrwt>0</asrwt>
<pdfrwt beam="1">  1        1 0.28111102E+00 0.10092714E+04</pdfrwt>
<pdfrwt beam="2">  1       -1 0.22489692E+00 0.10092714E+04</pdfrwt>
<totfact> 0.40270945E-01</totfact>
</mgrwt>
</event>
<event>
 4    5  0.1074803E-007  0.7084977E+03  0.7818608E-02  0.9963622E-01
         -1   -1    0    0    0  501 -0.00000000000E+00  0.00000000000E+00  0.37677121958E+03  0.37677121961E+03  0.50400000000E-02 0.  1.
          1   -1    0    0  501    0  0.00000000000E+00 -0.00000000000E+00 -0.17604285342E+04  0.17604285342E+04  0.50400000000E-02 0. -1.
    8880023    1    1    2    0    0 -0.21646074350E+03  0.14595737457E+03 -0.16102237060E+04  0.17592013524E+04  0.65864270000E+03 0. -1.
    8880022    1    1    2    0    0  0.21646074350E+03 -0.14595737457E+03  0.22656639145E+03  0.37799840134E+03  0.15294330000E+03 0.  0.
<mgrwt>
<rscale>  0 0.57274513E+03</rscale>
<asrwt>0</asrwt>
<pdfrwt beam="1">  1        1 0.27083515E+00 0.70849772E+03</pdfrwt>
<pdfrwt beam="2">  1       -1 0.57964804E-01 0.70849772E+03</pdfrwt>
<totfact> 0.13682566E+01</totfact>
</mgrwt>
</event>
<event>
 4    5  0.1074803E-007  0.8765791E+03  0.7818608E-02  0.9564727E-01
          1   -1    0    0  501    0  0.00000000000E+00  0.00000000000E+00  0.22354343051E+04  0.22354343051E+04  0.50400000000E-02 0. -1.
         -1   -1    0    0    0  501 -0.00000000000E+00 -0.00000000000E+00 -0.61034985271E+03  0.61034985273E+03  0.50400000000E-02 0.  1.
    8880023    1    1    2    0    0  0.57429220574E+03 -0.69059820873E+02  0.19692601500E+04  0.21555455322E+04  0.65864270000E+03 0. -1.
    8880022    1    1    2    0    0 -0.57429220574E+03  0.69059820873E+02 -0.34417569768E+03  0.69023862564E+03  0.15294330000E+03 0.  0.
<mgrwt>
<rscale>  0 0.79675455E+03</rscale>
<asrwt>0</asrwt>
<pdfrwt beam="1">  1        1 0.34391297E+00 0.87657915E+03</pdfrwt>
<pdfrwt beam="2">  1       -1 0.93899977E-01 0.87657915E+03</pdfrwt>
<totfact> 0.23417322E+00</totfact>
</mgrwt>
</event>
<event>
 4    5  0.1074803E-007  0.9639173E+03  0.7818608E-02  0.9430367E-01
          1   -1    0    0  501    0  0.00000000000E+00  0.00000000000E+00  0.23700965351E+04  0.23700965352E+04  0.50400000000E-02 0. -1.
         -1   -1    0    0    0  501 -0.00000000000E+00 -0.00000000000E+00 -0.37534399526E+03  0.37534399530E+03  0.50400000000E-02 0.  1.
    8880023    1    1    2    0    0 -0.49373311097E+03 -0.50155155730E+03  0.49922324758E+03  0.10855231028E+04  0.65864270000E+03 0.  1.
    8880022    1    1    2    0    0  0.49373311097E+03  0.50155155730E+03  0.14955292923E+04  0.16599174277E+04  0.15294330000E+03 0.  0.
<mgrwt>
<rscale>  0 0.89618206E+03</rscale>
<asrwt>0</asrwt>
<pdfrwt beam="1">  1        1 0.36463025E+00 0.96391730E+03</pdfrwt>
<pdfrwt beam="2">  1       -1 0.57745228E-01 0.96391730E+03</pdfrwt>
<totfact> 0.51695439E+00</totfact>
</mgrwt>
</event>
<event>
 4    5  0.1074803E-007  0.8066570E+03  0.7818608E-02  0.9696583E-01
         -1   -1    0    0    0  501 -0.00000000000E+00  0.00000000000E+00  0.70393445810E+03  0.70393445811E+03  0.50400000000E-02 0.  1.
          1   -1    0    0  501    0  0.00000000000E+00 -0.00000000000E+00 -0.12715395809E+04  0.12715395809E+04  0.50400000000E-02 0. -1.
    8880023    1    1    2    0    0 -0.11543464159E+03  0.45117647775E+03 -0.10254694125E+04  0.13047157134E+04  0.65864270000E+03 0.  0.
    8880022    1    1    2    0    0  0.11543464159E+03 -0.45117647775E+03  0.45786428972E+03  0.67075832560E+03  0.15294330000E+03 0.  0.
<mgrwt>
<rscale>  0 0.71220616E+03</rscale>
<asrwt>0</asrwt>
<pdfrwt beam="1">  1        1 0.19562147E+00 0.80665704E+03</pdfrwt>
<pdfrwt beam="2">  1       -1 0.10829761E+00 0.80665704E+03</pdfrwt>
<totfact> 0.77197718E+00</totfact>
</mgrwt>
</event>
<event>
 4    5  0.1074803E-007  0.7837309E+03  0.7818608E-02  0.9747145E-01
          1   -1    0    0  501    0  0.00000000000E+00  0.00000000000E+00  0.10223766072E+04  0.10223766072E+04  0.50400000000E-02 0. -1.
         -1   -1    0    0    0  501 -0.00000000000E+00 -0.00000000000E+00 -0.83590117505E+03  0.83590117506E+03  0.50400000000E-02 0.  1.
    8880023    1    1    2    0    0  0.37172863113E+03  0.20552807068E+03  0.78454776791E+03  0.11089406519E+04  0.65864270000E+03 0. -1.
    8880022    1    1    2    0    0 -0.37172863113E+03 -0.20552807068E+03 -0.59807233579E+03  0.74933713033E+03  0.15294330000E+03 0.  0.
<mgrwt>
<rscale>  0 0.68277863E+03</rscale>
<asrwt>0</asrwt>
<pdfrwt beam="1">  1        1 0.15728871E+00 0.78373093E+03</pdfrwt>
<pdfrwt beam="2">  1       -1 0.12860018E+00 0.78373093E+03</pdfrwt>
<totfact> 0.77969262E+00</totfact>
</mgrwt>
</event>
<event>
 4    5  0.1074803E-007  0.8394644E+03  0.7818608E-02  0.9631191E-01
          1   -1    0    0  501    0  0.00000000000E+00  0.00000000000E+00  0.11042521406E+04  0.11042521406E+04  0.50400000000E-02 0. -1.
         -1   -1    0    0    0  501 -0.00000000000E+00 -0.00000000000E+00 -0.10809043682E+04  0.10809043682E+04  0.50400000000E-02 0.  1.
    8880023    1    1    2    0    0  0.47244546674E+03  0.21837003228E+03  0.85112853986E+03  0.11954581497E+04  0.65864270000E+03 0. -1.
    8880022    1    1    2    0    0 -0.47244546674E+03 -0.21837003228E+03 -0.82778076746E+03  0.98969835911E+03  0.15294330000E+03 0.  0.
<mgrwt>
<rscale>  0 0.75265704E+03</rscale>
<asrwt>0</asrwt>
<pdfrwt beam="1">  1        1 0.16988494E+00 0.83946435E+03</pdfrwt>
<pdfrwt beam="2">  1       -1 0.16629298E+00 0.83946435E+03</pdfrwt>
<totfact> 0.33822457E+00</totfact>
</mgrwt>
</event>
<event>
 4    5  0.1074803E-007  0.1940743E+04  0.7818608E-02  0.8648434E-01
          1   -1    0    0  501    0  0.00000000000E+00  0.00000000000E+00  0.28444800709E+04  0.28444800709E+04  0.50400000000E-02 0. -1.
         -1   -1    0    0    0  501 -0.00000000000E+00 -0.00000000000E+00 -0.14253714861E+04  0.14253714862E+04  0.50400000000E-02 0.  1.
    8880023    1    1    2    0    0 -0.14064198288E+04 -0.11638978427E+04  0.14740518668E+04  0.24370707900E+04  0.65864270000E+03 0.  0.
    8880022    1    1    2    0    0  0.14064198288E+04  0.11638978427E+04 -0.54943282002E+02  0.18327807671E+04  0.15294330000E+03 0.  0.
<mgrwt>
<rscale>  0 0.19129557E+04</rscale>
<asrwt>0</asrwt>
<pdfrwt beam="1">  1        1 0.43761232E+00 0.19407434E+04</pdfrwt>
<pdfrwt beam="2">  1       -1 0.21928792E+00 0.19407434E+04</pdfrwt>
<totfact> 0.77419195E-02</totfact>
</mgrwt>
</event>
<event>
 4    5  0.1074803E-007  0.7998886E+03  0.7818608E-02  0.9711037E-01
          1   -1    0    0  501    0  0.00000000000E+00  0.00000000000E+00  0.57397945666E+03  0.57397945668E+03  0.50400000000E-02 0. -1.
         -1   -1    0    0    0  501 -0.00000000000E+00 -0.00000000000E+00 -0.19808521499E+04  0.19808521499E+04  0.50400000000E-02 0.  1.
    8880023    1    1    2    0    0 -0.43325457438E+03  0.13528528463E+03  0.24368604663E+03  0.83618462677E+03  0.65864270000E+03 0.  0.
    8880022    1    1    2    0    0  0.43325457438E+03 -0.13528528463E+03 -0.16505587399E+04  0.17186469798E+04  0.15294330000E+03 0.  0.
<mgrwt>
<rscale>  0 0.70363446E+03</rscale>
<asrwt>0</asrwt>
<pdfrwt beam="1">  1        1 0.88304533E-01 0.79988864E+03</pdfrwt>
<pdfrwt beam="2">  1       -1 0.30474648E+00 0.79988864E+03</pdfrwt>
<totfact> 0.11751247E+00</totfact>
</mgrwt>
</event>
<event>
 4    5  0.1074803E-007  0.1541399E+04  0.7818608E-02  0.8880943E-01
          1   -1    0    0  501    0  0.00000000000E+00  0.00000000000E+00  0.20710215267E+04  0.20710215267E+04  0.50400000000E-02 0. -1.
         -1   -1    0    0    0  501 -0.00000000000E+00 -0.00000000000E+00 -0.20497505591E+04  0.20497505591E+04  0.50400000000E-02 0.  1.
    8880023    1    1    2    0    0  0.99732345554E+03  0.97336833923E+03  0.14520420612E+04  0.21176251681E+04  0.65864270000E+03 0.  0.
    8880022    1    1    2    0    0 -0.99732345554E+03 -0.97336833923E+03 -0.14307710936E+04  0.20031469177E+04  0.15294330000E+03 0.  0.
<mgrwt>
<rscale>  0 0.15052899E+04</rscale>
<asrwt>0</asrwt>
<pdfrwt beam="1">  1        1 0.31861870E+00 0.15413988E+04</pdfrwt>
<pdfrwt beam="2">  1       -1 0.31534624E+00 0.15413988E+04</pdfrwt>
<totfact> 0.65667765E-02</totfact>
</mgrwt>
</event>
<event>
 4    5  0.1074803E-007  0.7388737E+03  0.7818608E-02  0.9863240E-01
         -1   -1    0    0    0  501 -0.00000000000E+00  0.00000000000E+00  0.47969829139E+03  0.47969829142E+03  0.50400000000E-02 0.  1.
          1   -1    0    0  501    0  0.00000000000E+00 -0.00000000000E+00 -0.19549997772E+04  0.19549997772E+04  0.50400000000E-02 0. -1.
    8880023    1    1    2    0    0 -0.33397281630E+03 -0.24212868605E+02 -0.17987949321E+04  0.19446330037E+04  0.65864270000E+03 0.  0.
    8880022    1    1    2    0    0  0.33397281630E+03  0.24212868605E+02  0.32349344631E+03  0.49006506492E+03  0.15294330000E+03 0.  0.
<mgrwt>
<rscale>  0 0.62076378E+03</rscale>
<asrwt>0</asrwt>
<pdfrwt beam="1">  1        1 0.30076919E+00 0.73887368E+03</pdfrwt>
<pdfrwt beam="2">  1       -1 0.73799738E-01 0.73887368E+03</pdfrwt>
<totfact> 0.62074535E+00</totfact>
</mgrwt>
</event>
<event>
 4    5  0.1074803E-007  0.8564280E+03  0.7818608E-02  0.9599949E-01
         -1   -1    0    0    0  501 -0.00000000000E+00  0.00000000000E+00  0.28294914886E+03  0.28294914890E+03  0.50400000000E-02 0.  1.
          1   -1    0    0  501    0  0.00000000000E+00 -0.00000000000E+00 -0.24829468056E+04  0.24829468056E+04  0.50400000000E-02 0. -1.
    8880023    1    1    2    0    0  0.10945084769E+03  0.53635737299E+03 -0.19784645574E+04  0.21558735888E+04  0.65864270000E+03 0. -1.
    8880022    1    1    2    0    0 -0.10945084769E+03 -0.53635737299E+03 -0.22153309940E+03  0.61002236579E+03  0.15294330000E+03 0.  0.
<mgrwt>
<rscale>  0 0.77299543E+03</rscale>
<asrwt>0</asrwt>
<pdfrwt beam="1">  1        1 0.38199180E+00 0.85642800E+03</pdfrwt>
<pdfrwt beam="2">  1       -1 0.43530640E-01 0.85642800E+03</pdfrwt>
<totfact> 0.75269284E+00</totfact>
</mgrwt>
</event>
<event>
 4    5  0.1074803E-007  0.1083253E+04  0.7818608E-02  0.9279934E-01
         -1   -1    0    0    0  501 -0.00000000000E+00  0.00000000000E+00  0.58123259218E+03  0.58123259220E+03  0.50400000000E-02 0.  1.
          1   -1    0    0  501    0  0.00000000000E+00 -0.00000000000E+00 -0.20295483305E+04  0.20295483305E+04  0.50400000000E-02 0. -1.
    8880023    1    1    2    0    0  0.75877751475E+03 -0.40482614626E+03 -0.13513125258E+04  0.17319016353E+04  0.65864270000E+03 0.  0.
    8880022    1    1    2    0    0 -0.75877751475E+03  0.40482614626E+03 -0.97003212499E+02  0.87887928741E+03  0.15294330000E+03 0.  0.
<mgrwt>
<rscale>  0 0.10265130E+04</rscale>
<asrwt>0</asrwt>
<pdfrwt beam="1">  1        1 0.31223820E+00 0.10832533E+04</pdfrwt>
<pdfrwt beam="2">  1       -1 0.89420400E-01 0.10832533E+04</pdfrwt>
<totfact> 0.34895105E+00</totfact>
</mgrwt>
</event>
<event>
 4    5  0.1074803E-007  0.7879787E+03  0.7818608E-02  0.9737418E-01
          1   -1    0    0  501    0  0.00000000000E+00  0.00000000000E+00  0.15332462144E+04  0.15332462145E+04  0.50400000000E-02 0. -1.
         -1   -1    0    0    0  501 -0.00000000000E+00 -0.00000000000E+00 -0.57724726493E+03  0.57724726495E+03  0.50400000000E-02 0.  1.
    8880023    1    1    2    0    0 -0.43037541707E+03  0.43327698841E+02  0.13115489534E+04  0.15300559312E+04  0.65864270000E+03 0. -1.
    8880022    1    1    2    0    0  0.43037541707E+03 -0.43327698841E+02 -0.35555000388E+03  0.58043754822E+03  0.15294330000E+03 0.  0.
<mgrwt>
<rscale>  0 0.68831987E+03</rscale>
<asrwt>0</asrwt>
<pdfrwt beam="1">  1        1 0.23588403E+00 0.78797874E+03</pdfrwt>
<pdfrwt beam="2">  1       -1 0.88807272E-01 0.78797874E+03</pdfrwt>
<totfact> 0.79807976E+00</totfact>
</mgrwt>
</event>
<event>
 4    5  0.1074803E-007  0.8151781E+03  0.7818608E-02  0.9678890E-01
          1   -1    0    0  501    0  0.00000000000E+00  0.00000000000E+00  0.99909886365E+03  0.99909886366E+03  0.50400000000E-02 0. -1.
         -1   -1    0    0    0  501 -0.00000000000E+00 -0.00000000000E+00 -0.47233232379E+03  0.47233232381E+03  0.50400000000E-02 0.  1.
    8880023    1    1    2    0    0  0.17201599483E+03 -0.44845918229E+03  0.52075261650E+03  0.96731516814E+03  0.65864270000E+03 0. -1.
    8880022    1    1    2    0    0 -0.17201599483E+03  0.44845918229E+03  0.60139233582E+01  0.50411601933E+03  0.15294330000E+03 0.  0.
<mgrwt>
<rscale>  0 0.72287679E+03</rscale>
<asrwt>0</asrwt>
<pdfrwt beam="1">  1        1 0.15370752E+00 0.81517811E+03</pdfrwt>
<pdfrwt beam="2">  1       -1 0.72666512E-01 0.81517811E+03</pdfrwt>
<totfact> 0.29523138E+01</totfact>
</mgrwt>
</event>
<event>
 4    5  0.1074803E-007  0.7253660E+03  0.7818608E-02  0.9904831E-01
          1   -1    0    0  501    0  0.00000000000E+00  0.00000000000E+00  0.32864919533E+04  0.32864919533E+04  0.50400000000E-02 0. -1.
         -1   -1    0    0    0  501 -0.00000000000E+00 -0.00000000000E+00 -0.13661134958E+03  0.13661134967E+03  0.50400000000E-02 0.  1.
    8880023    1    1    2    0    0 -0.27657974785E+03  0.12589364502E+03  0.29290095299E+04  0.30174911101E+04  0.65864270000E+03 0.  0.
    8880022    1    1    2    0    0  0.27657974785E+03 -0.12589364502E+03  0.22087107382E+03  0.40561219292E+03  0.15294330000E+03 0.  0.
<mgrwt>
<rscale>  0 0.60027742E+03</rscale>
<asrwt>0</asrwt>
<pdfrwt beam="1">  1        1 0.50561410E+00 0.72536596E+03</pdfrwt>
<pdfrwt beam="2">  1       -1 0.21017132E-01 0.72536596E+03</pdfrwt>
<totfact> 0.73976881E+00</totfact>
</mgrwt>
</event>
<event>
 4    5  0.1074803E-007  0.9149562E+03  0.7818608E-02  0.9502436E-01
          1   -1    0    0  501    0  0.00000000000E+00  0.00000000000E+00  0.73115876869E+03  0.73115876871E+03  0.50400000000E-02 0. -1.
         -1   -1    0    0    0  501 -0.00000000000E+00 -0.00000000000E+00 -0.10002569742E+04  0.10002569742E+04  0.50400000000E-02 0.  1.
    8880023    1    1    2    0    0 -0.54719228916E+03  0.32235896142E+03 -0.49492698349E+03  0.10402392160E+04  0.65864270000E+03 0.  1.
    8880022    1    1    2    0    0  0.54719228916E+03 -0.32235896142E+03  0.22582877799E+03  0.69117652688E+03  0.15294330000E+03 0.  0.
<mgrwt>
<rscale>  0 0.84104440E+03</rscale>
<asrwt>0</asrwt>
<pdfrwt beam="1">  1        1 0.11248596E+00 0.91495623E+03</pdfrwt>
<pdfrwt beam="2">  1       -1 0.15388569E+00 0.91495623E+03</pdfrwt>
<totfact> 0.83884872E+00</totfact>
</mgrwt>
</event>
<event>
 4    5  0.1074803E-007  0.1200949E+04  0.7818608E-02  0.9156201E-01
         -1   -1    0    0    0  501 -0.00000000000E+00  0.00000000000E+00  0.55929520939E+03  0.55929520941E+03  0.50400000000E-02 0.  1.
          1   -1    0    0  501    0  0.00000000000E+00 -0.00000000000E+00 -0.29187915528E+04  0.29187915528E+04  0.50400000000E-02 0. -1.
    8880023    1    1    2    0    0 -0.67361757864E+03  0.74478672301E+03 -0.39108213693E+03  0.12630215157E+04  0.65864270000E+03 0.  0.
    8880022    1    1    2    0    0  0.67361757864E+03 -0.74478672301E+03 -0.19684142065E+04  0.22150652465E+04  0.15294330000E+03 0.  0.
<mgrwt>
<rscale>  0 0.11517175E+04</rscale>
<asrwt>0</asrwt>
<pdfrwt beam="1">  1        1 0.44904484E+00 0.12009488E+04</pdfrwt>
<pdfrwt beam="2">  1       -1 0.86045419E-01 0.12009488E+04</pdfrwt>
<totfact> 0.90936462E-01</totfact>
</mgrwt>
</event>
<event>
 4    5  0.1074803E-007  0.7600629E+03  0.7818608E-02  0.9804945E-01
         -1   -1    0    0    0  501 -0.00000000000E+00  0.00000000000E+00  0.11200261601E+04  0.11200261601E+04  0.50400000000E-02 0.  1.
          1   -1    0    0  501    0  0.00000000000E+00 -0.00000000000E+00 -0.62696583328E+03  0.62696583330E+03  0.50400000000E-02 0. -1.
    8880023    1    1    2    0    0  0.15712785205E+03 -0.34524803008E+03 -0.32946101694E+03  0.82839612029E+03  0.65864270000E+03 0. -1.
    8880022    1    1    2    0    0 -0.15712785205E+03  0.34524803008E+03  0.82252134376E+03  0.91859587313E+03  0.15294330000E+03 0.  0.
<mgrwt>
<rscale>  0 0.65097854E+03</rscale>
<asrwt>0</asrwt>
<pdfrwt beam="1">  1        1 0.96456283E-01 0.76006287E+03</pdfrwt>
<pdfrwt beam="2">  1       -1 0.17231172E+00 0.76006287E+03</pdfrwt>
<totfact> 0.78367461E+00</totfact>
</mgrwt>
</event>
<event>
 4    5  0.1074803E-007  0.8455781E+03  0.7818608E-02  0.9619751E-01
         -1   -1    0    0    0  501 -0.00000000000E+00  0.00000000000E+00  0.98032206927E+03  0.98032206928E+03  0.50400000000E-02 0.  1.
          1   -1    0    0  501    0  0.00000000000E+00 -0.00000000000E+00 -0.59483815446E+03  0.59483815448E+03  0.50400000000E-02 0. -1.
    8880023    1    1    2    0    0  0.44837474250E+03 -0.28311172150E+03  0.53845045659E+03  0.10024625963E+04  0.65864270000E+03 0.  0.
    8880022    1    1    2    0    0 -0.44837474250E+03  0.28311172150E+03 -0.15296654179E+03  0.57269762744E+03  0.15294330000E+03 0.  0.
<mgrwt>
<rscale>  0 0.76002636E+03</rscale>
<asrwt>0</asrwt>
<pdfrwt beam="1">  1        1 0.91513563E-01 0.84557812E+03</pdfrwt>
<pdfrwt beam="2">  1       -1 0.15081878E+00 0.84557812E+03</pdfrwt>
<totfact> 0.12137431E+01</totfact>
</mgrwt>
</event>
<event>
 4    5  0.1074803E-007  0.1120976E+04  0.7818608E-02  0.9238054E-01
         -1   -1    0    0    0  501 -0.00000000000E+00  0.00000000000E+00  0.10147941658E+04  0.10147941658E+04  0.50400000000E-02 0.  1.
          1   -1    0    0  501    0  0.00000000000E+00 -0.00000000000E+00 -0.14787476667E+04  0.14787476668E+04  0.50400000000E-02 0. -1.
    8880023    1    1    2    0    0  0.44815499460E+03  0.78862783618E+03  0.43963860417E+03  0.12041050916E+04  0.65864270000E+03 0.  0.
    8880022    1    1    2    0    0 -0.44815499460E+03 -0.78862783618E+03 -0.90359210516E+03  0.12894367409E+04  0.15294330000E+03 0.  0.
<mgrwt>
<rscale>  0 0.10669137E+04</rscale>
<asrwt>0</asrwt>
<pdfrwt beam="1">  1        1 0.22749964E+00 0.11209759E+04</pdfrwt>
<pdfrwt beam="2">  1       -1 0.15612218E+00 0.11209759E+04</pdfrwt>
<totfact> 0.20959097E+00</totfact>
</mgrwt>
</event>
<event>
 4    5  0.1074803E-007  0.1129322E+04  0.7818608E-02  0.9229091E-01
          1   -1    0    0  501    0  0.00000000000E+00  0.00000000000E+00  0.25777354501E+04  0.25777354501E+04  0.50400000000E-02 0. -1.
         -1   -1    0    0    0  501 -0.00000000000E+00 -0.00000000000E+00 -0.65462201628E+03  0.65462201630E+03  0.50400000000E-02 0.  1.
    8880023    1    1    2    0    0 -0.82870426348E+03 -0.39345530393E+03  0.20024525376E+04  0.22989528495E+04  0.65864270000E+03 0. -1.
    8880022    1    1    2    0    0  0.82870426348E+03  0.39345530393E+03 -0.79339103780E+02  0.93340461693E+03  0.15294330000E+03 0.  0.
<mgrwt>
<rscale>  0 0.10758139E+04</rscale>
<asrwt>0</asrwt>
<pdfrwt beam="1">  1        1 0.39657468E+00 0.11293219E+04</pdfrwt>
<pdfrwt beam="2">  1       -1 0.10071108E+00 0.11293219E+04</pdfrwt>
<totfact> 0.11220263E+00</totfact>
</mgrwt>
</event>
<event>
 4    5  0.1074803E-007  0.6860026E+03  0.7818608E-02  0.1006114E+00
         -1   -1    0    0    0  501 -0.00000000000E+00  0.00000000000E+00  0.20943076266E+03  0.20943076272E+03  0.50400000000E-02 0.  1.
          1   -1    0    0  501    0  0.00000000000E+00 -0.00000000000E+00 -0.12020487691E+04  0.12020487691E+04  0.50400000000E-02 0. -1.
    8880023    1    1    2    0    0 -0.18093079619E+03  0.63665934014E+02 -0.93468839458E+03  0.11594144666E+04  0.65864270000E+03 0. -1.
    8880022    1    1    2    0    0  0.18093079619E+03 -0.63665934014E+02 -0.57929611884E+02  0.25206506524E+03  0.15294330000E+03 0.  0.
<mgrwt>
<rscale>  0 0.53048937E+03</rscale>
<asrwt>0</asrwt>
<pdfrwt beam="1">  1        1 0.18493058E+00 0.68600256E+03</pdfrwt>
<pdfrwt beam="2">  1       -1 0.32220118E-01 0.68600256E+03</pdfrwt>
<totfact> 0.98292223E+01</totfact>
</mgrwt>
</event>
<event>
 4    5  0.1074803E-007  0.7855922E+03  0.7818608E-02  0.9742861E-01
          1   -1    0    0  501    0  0.00000000000E+00  0.00000000000E+00  0.23358158900E+04  0.23358158900E+04  0.50400000000E-02 0. -1.
         -1   -1    0    0    0  501 -0.00000000000E+00 -0.00000000000E+00 -0.52541983995E+03  0.52541983997E+03  0.50400000000E-02 0.  1.
    8880023    1    1    2    0    0  0.24179382732E+03  0.35338447075E+03  0.21530508409E+04  0.22918950606E+04  0.65864270000E+03 0. -1.
    8880022    1    1    2    0    0 -0.24179382732E+03 -0.35338447075E+03 -0.34265479084E+03  0.56934066937E+03  0.15294330000E+03 0.  0.
<mgrwt>
<rscale>  0 0.68521206E+03</rscale>
<asrwt>0</asrwt>
<pdfrwt beam="1">  1        1 0.35935630E+00 0.78559216E+03</pdfrwt>
<pdfrwt beam="2">  1       -1 0.80833819E-01 0.78559216E+03</pdfrwt>
<totfact> 0.28227315E+00</totfact>
</mgrwt>
</event>
<event>
 4    5  0.1074803E-007  0.7244486E+03  0.7818608E-02  0.9907811E-01
          1   -1    0    0  501    0  0.00000000000E+00  0.00000000000E+00  0.35309480898E+04  0.35309480898E+04  0.50400000000E-02 0. -1.
         -1   -1    0    0    0  501 -0.00000000000E+00 -0.00000000000E+00 -0.87621664974E+03  0.87621664975E+03  0.50400000000E-02 0.  1.
    8880023    1    1    2    0    0 -0.30166420816E+03  0.37840343732E+01  0.34593239603E+04  0.35343667158E+04  0.65864270000E+03 0. -1.
    8880022    1    1    2    0    0  0.30166420816E+03 -0.37840343732E+01 -0.80459252029E+03  0.87279802367E+03  0.15294330000E+03 0.  0.
<mgrwt>
<rscale>  0 0.59884220E+03</rscale>
<asrwt>0</asrwt>
<pdfrwt beam="1">  1        1 0.54322279E+00 0.72444863E+03</pdfrwt>
<pdfrwt beam="2">  1       -1 0.13480256E+00 0.72444863E+03</pdfrwt>
<totfact> 0.12148866E-01</totfact>
</mgrwt>
</event>
<event>
 4    5  0.1074803E-007  0.1568785E+04  0.7818608E-02  0.8862532E-01
          1   -1    0    0  501    0  0.00000000000E+00  0.00000000000E+00  0.27652818560E+04  0.27652818560E+04  0.50400000000E-02 0. -1.
         -1   -1    0    0    0  501 -0.00000000000E+00 -0.00000000000E+00 -0.11070297461E+04  0.11070297461E+04  0.50400000000E-02 0.  1.
    8880023    1    1    2    0    0  0.12872401926E+04  0.60851250225E+03  0.18521264735E+04  0.24272324691E+04  0.65864270000E+03 0. -1.
    8880022    1    1    2    0    0 -0.12872401926E+04 -0.60851250225E+03 -0.19387436369E+03  0.14450791330E+04  0.15294330000E+03 0.  0.
<mgrwt>
<rscale>  0 0.15334138E+04</rscale>
<asrwt>0</asrwt>
<pdfrwt beam="1">  1        1 0.42542798E+00 0.15687846E+04</pdfrwt>
<pdfrwt beam="2">  1       -1 0.17031227E+00 0.15687846E+04</pdfrwt>
<totfact> 0.20318002E-01</totfact>
</mgrwt>
</event>
<event>
 4    5  0.1074803E-007  0.6703525E+03  0.7818608E-02  0.1015411E+00
         -1   -1    0    0    0  501 -0.00000000000E+00  0.00000000000E+00  0.24610643413E+03  0.24610643419E+03  0.50400000000E-02 0.  1.
          1   -1    0    0  501    0  0.00000000000E+00 -0.00000000000E+00 -0.10645719965E+04  0.10645719965E+04  0.50400000000E-02 0. -1.
    8880023    1    1    2    0    0  0.11831408593E+03  0.39547281168E+02 -0.87788490589E+03  0.11045606930E+04  0.65864270000E+03 0. -1.
    8880022    1    1    2    0    0 -0.11831408593E+03 -0.39547281168E+02  0.59419343519E+02  0.20611773765E+03  0.15294330000E+03 0.  0.
<mgrwt>
<rscale>  0 0.49379447E+03</rscale>
<asrwt>0</asrwt>
<pdfrwt beam="1">  1        1 0.16378030E+00 0.67035246E+03</pdfrwt>
<pdfrwt beam="2">  1       -1 0.37862529E-01 0.67035246E+03</pdfrwt>
<totfact> 0.93291390E+01</totfact>
</mgrwt>
</event>
<event>
 4    5  0.1074803E-007  0.9898229E+03  0.7818608E-02  0.9394995E-01
          1   -1    0    0  501    0  0.00000000000E+00  0.00000000000E+00  0.82741435851E+03  0.82741435852E+03  0.50400000000E-02 0. -1.
         -1   -1    0    0    0  501 -0.00000000000E+00 -0.00000000000E+00 -0.27729389613E+04  0.27729389613E+04  0.50400000000E-02 0.  1.
    8880023    1    1    2    0    0  0.65136946759E+03 -0.34879360465E+03  0.45109150155E+03  0.10877650992E+04  0.65864270000E+03 0. -1.
    8880022    1    1    2    0    0 -0.65136946759E+03  0.34879360465E+03 -0.23966161044E+04  0.25125882207E+04  0.15294330000E+03 0.  0.
<mgrwt>
<rscale>  0 0.92488707E+03</rscale>
<asrwt>0</asrwt>
<pdfrwt beam="1">  1        1 0.12729452E+00 0.98982290E+03</pdfrwt>
<pdfrwt beam="2">  1       -1 0.42660599E+00 0.98982290E+03</pdfrwt>
<totfact> 0.10108970E-01</totfact>
</mgrwt>
</event>
<event>
 4    5  0.1074803E-007  0.9390183E+03  0.7818608E-02  0.9466094E-01
          1   -1    0    0  501    0  0.00000000000E+00  0.00000000000E+00  0.16551108277E+04  0.16551108277E+04  0.50400000000E-02 0. -1.
         -1   -1    0    0    0  501 -0.00000000000E+00 -0.00000000000E+00 -0.87977776797E+03  0.87977776798E+03  0.50400000000E-02 0.  1.
    8880023    1    1    2    0    0  0.54786622841E+03 -0.38443161937E+03  0.13466587848E+04  0.16417201842E+04  0.65864270000E+03 0.  0.
    8880022    1    1    2    0    0 -0.54786622841E+03  0.38443161937E+03 -0.57132572506E+03  0.89316841152E+03  0.15294330000E+03 0.  0.
<mgrwt>
<rscale>  0 0.86830427E+03</rscale>
<asrwt>0</asrwt>
<pdfrwt beam="1">  1        1 0.25463244E+00 0.93901825E+03</pdfrwt>
<pdfrwt beam="2">  1       -1 0.13535043E+00 0.93901825E+03</pdfrwt>
<totfact> 0.23772426E+00</totfact>
</mgrwt>
</event>
<event>
 4    5  0.1074803E-007  0.1450314E+04  0.7818608E-02  0.8945542E-01
          1   -1    0    0  501    0  0.00000000000E+00  0.00000000000E+00  0.16155359125E+04  0.16155359125E+04  0.50400000000E-02 0. -1.
         -1   -1    0    0    0  501 -0.00000000000E+00 -0.00000000000E+00 -0.18841635048E+04  0.18841635048E+04  0.50400000000E-02 0.  1.
    8880023    1    1    2    0    0  0.11110086372E+04  0.65974239981E+03  0.93633412124E+03  0.17263058880E+04  0.65864270000E+03 0.  0.
    8880022    1    1    2    0    0 -0.11110086372E+04 -0.65974239981E+03 -0.12049617135E+04  0.17733935293E+04  0.15294330000E+03 0.  0.
<mgrwt>
<rscale>  0 0.14114918E+04</rscale>
<asrwt>0</asrwt>
<pdfrwt beam="1">  1        1 0.24854399E+00 0.14503139E+04</pdfrwt>
<pdfrwt beam="2">  1       -1 0.28987131E+00 0.14503139E+04</pdfrwt>
<totfact> 0.19880675E-01</totfact>
</mgrwt>
</event>
<event>
 4    5  0.1074803E-007  0.1054981E+04  0.7818608E-02  0.9312918E-01
         -1   -1    0    0    0  501 -0.00000000000E+00  0.00000000000E+00  0.12651940351E+04  0.12651940351E+04  0.50400000000E-02 0.  1.
          1   -1    0    0  501    0  0.00000000000E+00 -0.00000000000E+00 -0.17481026552E+04  0.17481026552E+04  0.50400000000E-02 0. -1.
    8880023    1    1    2    0    0 -0.76598235421E+03 -0.30404722215E+03 -0.14116084716E+04  0.17622776068E+04  0.65864270000E+03 0.  0.
    8880022    1    1    2    0    0  0.76598235421E+03  0.30404722215E+03  0.92869985144E+03  0.12510190835E+04  0.15294330000E+03 0.  0.
<mgrwt>
<rscale>  0 0.99602254E+03</rscale>
<asrwt>0</asrwt>
<pdfrwt beam="1">  1        1 0.26893887E+00 0.10549805E+04</pdfrwt>
<pdfrwt beam="2">  1       -1 0.19464524E+00 0.10549805E+04</pdfrwt>
<totfact> 0.72504990E-01</totfact>
</mgrwt>
</event>
<event>
 4    5  0.2020344E-007  0.1084930E+04  0.7818608E-02  0.9278023E-01
         -1   -1    0    0    0  501 -0.00000000000E+00  0.00000000000E+00  0.29525675439E+04  0.29525675439E+04  0.50400000000E-02 0.  1.
          1   -1    0    0  501    0  0.00000000000E+00 -0.00000000000E+00 -0.17399882042E+04  0.17399882042E+04  0.50400000000E-02 0. -1.
    8880023    1    1    2    0    0 -0.34815007518E+03  0.78870427627E+03 -0.14948488620E+04  0.18470642210E+04  0.65864270000E+03 0. -1.
    8880022    1    1    2    0    0  0.34815007518E+03 -0.78870427627E+03  0.27074282016E+04  0.28454915270E+04  0.15294330000E+03 0.  0.
<mgrwt>
<rscale>  0 0.10283152E+04</rscale>
<asrwt>0</asrwt>
<pdfrwt beam="1">  1        1 0.26769050E+00 0.10849300E+04</pdfrwt>
<pdfrwt beam="2">  1       -1 0.45424116E+00 0.10849300E+04</pdfrwt>
<totfact> 0.13718671E-02</totfact>
</mgrwt>
</event>
<event>
 4    5  0.1074803E-007  0.7694510E+03  0.7818608E-02  0.9781227E-01
         -1   -1    0    0    0  501 -0.00000000000E+00  0.00000000000E+00  0.37713919447E+03  0.37713919451E+03  0.50400000000E-02 0.  1.
          1   -1    0    0  501    0  0.00000000000E+00 -0.00000000000E+00 -0.15442244301E+04  0.15442244301E+04  0.50400000000E-02 0. -1.
    8880023    1    1    2    0    0  0.32049689157E+03  0.23564045601E+03 -0.12681768817E+04  0.14833500907E+04  0.65864270000E+03 0. -1.
    8880022    1    1    2    0    0 -0.32049689157E+03 -0.23564045601E+03  0.10109164603E+03  0.43801353396E+03  0.15294330000E+03 0.  0.
<mgrwt>
<rscale>  0 0.66379822E+03</rscale>
<asrwt>0</asrwt>
<pdfrwt beam="1">  1        1 0.23757299E+00 0.76945103E+03</pdfrwt>
<pdfrwt beam="2">  1       -1 0.58021415E-01 0.76945103E+03</pdfrwt>
<totfact> 0.18948078E+01</totfact>
</mgrwt>
</event>
<event>
 4    5  0.1074803E-007  0.6642805E+03  0.7818608E-02  0.1020145E+00
          1   -1    0    0  501    0  0.00000000000E+00  0.00000000000E+00  0.52455916044E+03  0.52455916046E+03  0.50400000000E-02 0. -1.
         -1   -1    0    0    0  501 -0.00000000000E+00 -0.00000000000E+00 -0.48919479724E+03  0.48919479727E+03  0.50400000000E-02 0.  1.
    8880023    1    1    2    0    0  0.82193175817E+02 -0.26507335867E+02  0.27305294647E+03  0.71821060619E+03  0.65864270000E+03 0. -1.
    8880022    1    1    2    0    0 -0.82193175817E+02  0.26507335867E+02 -0.23768858328E+03  0.29554335154E+03  0.15294330000E+03 0.  0.
<mgrwt>
<rscale>  0 0.47634382E+03</rscale>
<asrwt>0</asrwt>
<pdfrwt beam="1">  1        1 0.80701409E-01 0.66428049E+03</pdfrwt>
<pdfrwt beam="2">  1       -1 0.75260738E-01 0.66428049E+03</pdfrwt>
<totfact> 0.75533513E+01</totfact>
</mgrwt>
</event>
<event>
 4    5  0.1074803E-007  0.7000158E+03  0.7818608E-02  0.9997135E-01
         -1   -1    0    0    0  501 -0.00000000000E+00  0.00000000000E+00  0.26690080457E+03  0.26690080462E+03  0.50400000000E-02 0.  1.
          1   -1    0    0  501    0  0.00000000000E+00 -0.00000000000E+00 -0.14844793571E+04  0.14844793571E+04  0.50400000000E-02 0. -1.
    8880023    1    1    2    0    0  0.20046046641E+03  0.12660003379E+03 -0.12831896875E+04  0.14617106238E+04  0.65864270000E+03 0. -1.
    8880022    1    1    2    0    0 -0.20046046641E+03 -0.12660003379E+03  0.65611135035E+02  0.28966953793E+03  0.15294330000E+03 0.  0.
<mgrwt>
<rscale>  0 0.55776018E+03</rscale>
<asrwt>0</asrwt>
<pdfrwt beam="1">  1        1 0.22838144E+00 0.70001584E+03</pdfrwt>
<pdfrwt beam="2">  1       -1 0.41061663E-01 0.70001584E+03</pdfrwt>
<totfact> 0.40315481E+01</totfact>
</mgrwt>
</event>
<event>
 4    5  0.1074803E-007  0.7095962E+03  0.7818608E-02  0.9959504E-01
         -1   -1    0    0    0  501 -0.00000000000E+00  0.00000000000E+00  0.79664315812E+03  0.79664315814E+03  0.50400000000E-02 0.  1.
          1   -1    0    0  501    0  0.00000000000E+00 -0.00000000000E+00 -0.99606558827E+03  0.99606558828E+03  0.50400000000E-02 0. -1.
    8880023    1    1    2    0    0  0.23856338793E+03 -0.11315489975E+03 -0.83012053435E+03  0.10920745530E+04  0.65864270000E+03 0. -1.
    8880022    1    1    2    0    0 -0.23856338793E+03  0.11315489975E+03  0.63069810420E+03  0.70063419347E+03  0.15294330000E+03 0.  0.
<mgrwt>
<rscale>  0 0.57462157E+03</rscale>
<asrwt>0</asrwt>
<pdfrwt beam="1">  1        1 0.15324086E+00 0.70959617E+03</pdfrwt>
<pdfrwt beam="2">  1       -1 0.12256049E+00 0.70959617E+03</pdfrwt>
<totfact> 0.93048221E+00</totfact>
</mgrwt>
</event>
<event>
 4    5  0.1074803E-007  0.8265901E+03  0.7818608E-02  0.9656004E-01
         -1   -1    0    0    0  501 -0.00000000000E+00  0.00000000000E+00  0.32479778260E+04  0.32479778260E+04  0.50400000000E-02 0.  1.
          1   -1    0    0  501    0  0.00000000000E+00 -0.00000000000E+00 -0.82907551595E+03  0.82907551596E+03  0.50400000000E-02 0. -1.
    8880023    1    1    2    0    0  0.17912180396E+03 -0.46621488967E+03 -0.59484453009E+03  0.10183767305E+04  0.65864270000E+03 0. -1.
    8880022    1    1    2    0    0 -0.17912180396E+03  0.46621488967E+03  0.30137468401E+04  0.30586766115E+04  0.15294330000E+03 0.  0.
<mgrwt>
<rscale>  0 0.73697825E+03</rscale>
<asrwt>0</asrwt>
<pdfrwt beam="1">  1        1 0.12755008E+00 0.82659007E+03</pdfrwt>
<pdfrwt beam="2">  1       -1 0.49968889E+00 0.82659007E+03</pdfrwt>
<totfact> 0.32958102E-02</totfact>
</mgrwt>
</event>
<event>
 4    5  0.1074803E-007  0.6764426E+03  0.7818608E-02  0.1011412E+00
         -1   -1    0    0    0  501 -0.00000000000E+00  0.00000000000E+00  0.40293902945E+03  0.40293902948E+03  0.50400000000E-02 0.  1.
          1   -1    0    0  501    0  0.00000000000E+00 -0.00000000000E+00 -0.10790040498E+04  0.10790040498E+04  0.50400000000E-02 0. -1.
    8880023    1    1    2    0    0 -0.13650860759E+02 -0.15355130882E+03 -0.92861570130E+03  0.11488697391E+04  0.65864270000E+03 0. -1.
    8880022    1    1    2    0    0  0.13650860759E+02  0.15355130882E+03  0.25255068099E+03  0.33307334015E+03  0.15294330000E+03 0.  0.
<mgrwt>
<rscale>  0 0.50917295E+03</rscale>
<asrwt>0</asrwt>
<pdfrwt beam="1">  1        1 0.16600062E+00 0.67644257E+03</pdfrwt>
<pdfrwt beam="2">  1       -1 0.61990620E-01 0.67644257E+03</pdfrwt>
<totfact> 0.35940524E+01</totfact>
</mgrwt>
</event>
<event>
 4    5  0.1074803E-007  0.1115920E+04  0.7818608E-02  0.9243535E-01
          1   -1    0    0  501    0  0.00000000000E+00  0.00000000000E+00  0.99475999851E+03  0.99475999852E+03  0.50400000000E-02 0. -1.
         -1   -1    0    0    0  501 -0.00000000000E+00 -0.00000000000E+00 -0.13187090844E+04  0.13187090844E+04  0.50400000000E-02 0.  1.
    8880023    1    1    2    0    0  0.90080596529E+03  0.39788716911E+01  0.35953924193E+03  0.11724102914E+04  0.65864270000E+03 0.  0.
    8880022    1    1    2    0    0 -0.90080596529E+03 -0.39788716911E+01 -0.68348832780E+03  0.11410587915E+04  0.15294330000E+03 0.  0.
<mgrwt>
<rscale>  0 0.10615157E+04</rscale>
<asrwt>0</asrwt>
<pdfrwt beam="1">  1        1 0.15304000E+00 0.11159200E+04</pdfrwt>
<pdfrwt beam="2">  1       -1 0.20287832E+00 0.11159200E+04</pdfrwt>
<totfact> 0.21750965E+00</totfact>
</mgrwt>
</event>
<event>
 4    5  0.1074803E-007  0.8385127E+03  0.7818608E-02  0.9632991E-01
          1   -1    0    0  501    0  0.00000000000E+00  0.00000000000E+00  0.22151485406E+04  0.22151485406E+04  0.50400000000E-02 0. -1.
         -1   -1    0    0    0  501 -0.00000000000E+00 -0.00000000000E+00 -0.28325898650E+03  0.28325898655E+03  0.50400000000E-02 0.  1.
    8880023    1    1    2    0    0  0.58681731475E+02 -0.51560630816E+03  0.17271927924E+04  0.19199735829E+04  0.65864270000E+03 0.  0.
    8880022    1    1    2    0    0 -0.58681731475E+02  0.51560630816E+03  0.20469676172E+03  0.57843394428E+03  0.15294330000E+03 0.  0.
<mgrwt>
<rscale>  0 0.75150577E+03</rscale>
<asrwt>0</asrwt>
<pdfrwt beam="1">  1        1 0.34079208E+00 0.83851274E+03</pdfrwt>
<pdfrwt beam="2">  1       -1 0.43578305E-01 0.83851274E+03</pdfrwt>
<totfact> 0.11442240E+01</totfact>
</mgrwt>
</event>
<event>
 4    5  0.1074803E-007  0.8002108E+03  0.7818608E-02  0.9710340E-01
         -1   -1    0    0    0  501 -0.00000000000E+00  0.00000000000E+00  0.97810154456E+03  0.97810154457E+03  0.50400000000E-02 0.  1.
          1   -1    0    0  501    0  0.00000000000E+00 -0.00000000000E+00 -0.76236045498E+03  0.76236045499E+03  0.50400000000E-02 0. -1.
    8880023    1    1    2    0    0  0.42716266967E+03 -0.15511039757E+03 -0.45150109014E+03  0.91879846672E+03  0.65864270000E+03 0. -1.
    8880022    1    1    2    0    0 -0.42716266967E+03  0.15511039757E+03  0.66724217972E+03  0.82166353284E+03  0.15294330000E+03 0.  0.
<mgrwt>
<rscale>  0 0.70404455E+03</rscale>
<asrwt>0</asrwt>
<pdfrwt beam="1">  1        1 0.11728622E+00 0.80021084E+03</pdfrwt>
<pdfrwt beam="2">  1       -1 0.15047716E+00 0.80021084E+03</pdfrwt>
<totfact> 0.84660280E+00</totfact>
</mgrwt>
</event>
<event>
 4    5  0.1074803E-007  0.1111944E+04  0.7818608E-02  0.9247873E-01
          1   -1    0    0  501    0  0.00000000000E+00  0.00000000000E+00  0.91667883041E+03  0.91667883042E+03  0.50400000000E-02 0. -1.
         -1   -1    0    0    0  501 -0.00000000000E+00 -0.00000000000E+00 -0.15661344020E+04  0.15661344020E+04  0.50400000000E-02 0.  1.
    8880023    1    1    2    0    0 -0.65296245395E+03 -0.61339105473E+03  0.31690250960E+03  0.11562205495E+04  0.65864270000E+03 0.  1.
    8880022    1    1    2    0    0  0.65296245395E+03  0.61339105473E+03 -0.96635808120E+03  0.13265926829E+04  0.15294330000E+03 0.  0.
<mgrwt>
<rscale>  0 0.10572668E+04</rscale>
<asrwt>0</asrwt>
<pdfrwt beam="1">  1        1 0.14102751E+00 0.11119437E+04</pdfrwt>
<pdfrwt beam="2">  1       -1 0.24094375E+00 0.11119437E+04</pdfrwt>
<totfact> 0.13990891E+00</totfact>
</mgrwt>
</event>
<event>
 4    5  0.1074803E-007  0.1075367E+04  0.7818608E-02  0.9288990E-01
         -1   -1    0    0    0  501 -0.00000000000E+00  0.00000000000E+00  0.70359871270E+03  0.70359871272E+03  0.50400000000E-02 0.  1.
          1   -1    0    0  501    0  0.00000000000E+00 -0.00000000000E+00 -0.15231660959E+04  0.15231660959E+04  0.50400000000E-02 0. -1.
    8880023    1    1    2    0    0  0.71505663243E+03 -0.45967171950E+03 -0.83726271228E+03  0.13628731170E+04  0.65864270000E+03 0.  1.
    8880022    1    1    2    0    0 -0.71505663243E+03  0.45967171950E+03  0.17695329072E+02  0.86389169169E+03  0.15294330000E+03 0.  0.
<mgrwt>
<rscale>  0 0.10180277E+04</rscale>
<asrwt>0</asrwt>
<pdfrwt beam="1">  1        1 0.23433325E+00 0.10753670E+04</pdfrwt>
<pdfrwt beam="2">  1       -1 0.10824596E+00 0.10753670E+04</pdfrwt>
<totfact> 0.49818001E+00</totfact>
</mgrwt>
</event>
<event>
 4    5  0.1074803E-007  0.7520353E+03  0.7818608E-02  0.9826181E-01
         -1   -1    0    0    0  501 -0.00000000000E+00  0.00000000000E+00  0.19377431195E+04  0.19377431195E+04  0.50400000000E-02 0.  1.
          1   -1    0    0  501    0  0.00000000000E+00 -0.00000000000E+00 -0.80321393518E+03  0.80321393520E+03  0.50400000000E-02 0. -1.
    8880023    1    1    2    0    0 -0.10143608576E+03 -0.34850765979E+03 -0.60013169458E+03  0.96214090732E+03  0.65864270000E+03 0. -1.
    8880022    1    1    2    0    0  0.10143608576E+03  0.34850765979E+03  0.17346608789E+04  0.17788161474E+04  0.15294330000E+03 0.  0.
<mgrwt>
<rscale>  0 0.63976227E+03</rscale>
<asrwt>0</asrwt>
<pdfrwt beam="1">  1        1 0.12357138E+00 0.75203529E+03</pdfrwt>
<pdfrwt beam="2">  1       -1 0.29811432E+00 0.75203529E+03</pdfrwt>
<totfact> 0.78927299E-01</totfact>
</mgrwt>
</event>
<event>
 4    5  0.1074803E-007  0.8485418E+03  0.7818608E-02  0.9614279E-01
         -1   -1    0    0    0  501 -0.00000000000E+00  0.00000000000E+00  0.27869039122E+03  0.27869039126E+03  0.50400000000E-02 0.  1.
          1   -1    0    0  501    0  0.00000000000E+00 -0.00000000000E+00 -0.21218881996E+04  0.21218881996E+04  0.50400000000E-02 0. -1.
    8880023    1    1    2    0    0  0.81633498271E+02 -0.52872394995E+03 -0.60209301756E+03  0.10404514652E+04  0.65864270000E+03 0.  1.
    8880022    1    1    2    0    0 -0.81633498271E+02  0.52872394995E+03 -0.12411047908E+04  0.13601271257E+04  0.15294330000E+03 0. -1.
<mgrwt>
<rscale>  0 0.76358236E+03</rscale>
<asrwt>0</asrwt>
<pdfrwt beam="1">  1        1 0.32644433E+00 0.84854184E+03</pdfrwt>
<pdfrwt beam="2">  1       -1 0.42875446E-01 0.84854184E+03</pdfrwt>
<totfact> 0.13604818E+01</totfact>
</mgrwt>
</event>
<event>
 4    5  0.1074803E-007  0.1226804E+04  0.7818608E-02  0.9131497E-01
         -1   -1    0    0    0  501 -0.00000000000E+00  0.00000000000E+00  0.10378345324E+04  0.10378345324E+04  0.50400000000E-02 0.  1.
          1   -1    0    0  501    0  0.00000000000E+00 -0.00000000000E+00 -0.24053860675E+04  0.24053860675E+04  0.50400000000E-02 0. -1.
    8880023    1    1    2    0    0  0.83750657955E+03  0.60812965098E+03  0.48213122384E+03  0.13181425061E+04  0.65864270000E+03 0.  0.
    8880022    1    1    2    0    0 -0.83750657955E+03 -0.60812965098E+03 -0.18496827589E+04  0.21250780938E+04  0.15294330000E+03 0.  0.
<mgrwt>
<rscale>  0 0.11789353E+04</rscale>
<asrwt>0</asrwt>
<pdfrwt beam="1">  1        1 0.37005939E+00 0.12268044E+04</pdfrwt>
<pdfrwt beam="2">  1       -1 0.15966685E+00 0.12268044E+04</pdfrwt>
<totfact> 0.45458089E-01</totfact>
</mgrwt>
</event>
<event>
 4    5  0.1074803E-007  0.7048046E+03  0.7818608E-02  0.9977825E-01
          1   -1    0    0  501    0  0.00000000000E+00  0.00000000000E+00  0.16923464404E+04  0.16923464404E+04  0.50400000000E-02 0. -1.
         -1   -1    0    0    0  501 -0.00000000000E+00 -0.00000000000E+00 -0.34062404960E+03  0.34062404964E+03  0.50400000000E-02 0.  1.
    8880023    1    1    2    0    0  0.21936057213E+03  0.12173872315E+03  0.15333277269E+04  0.16875554810E+04  0.65864270000E+03 0. -1.
    8880022    1    1    2    0    0 -0.21936057213E+03 -0.12173872315E+03 -0.18160533610E+03  0.34541500899E+03  0.15294330000E+03 0.  0.
<mgrwt>
<rscale>  0 0.56633374E+03</rscale>
<asrwt>0</asrwt>
<pdfrwt beam="1">  1        1 0.26036099E+00 0.70480464E+03</pdfrwt>
<pdfrwt beam="2">  1       -1 0.52403701E-01 0.70480464E+03</pdfrwt>
<totfact> 0.18478545E+01</totfact>
</mgrwt>
</event>
<event>
 4    5  0.1074803E-007  0.7622547E+03  0.7818608E-02  0.9799305E-01
          1   -1    0    0  501    0  0.00000000000E+00  0.00000000000E+00  0.10995901617E+04  0.10995901617E+04  0.50400000000E-02 0. -1.
         -1   -1    0    0    0  501 -0.00000000000E+00 -0.00000000000E+00 -0.55698203045E+03  0.55698203047E+03  0.50400000000E-02 0.  1.
    8880023    1    1    2    0    0  0.37527440665E+03  0.79944626059E+02  0.84997530188E+03  0.11417049722E+04  0.65864270000E+03 0.  0.
    8880022    1    1    2    0    0 -0.37527440665E+03 -0.79944626059E+02 -0.30736717068E+03  0.51486721992E+03  0.15294330000E+03 0.  0.
<mgrwt>
<rscale>  0 0.65399859E+03</rscale>
<asrwt>0</asrwt>
<pdfrwt beam="1">  1        1 0.16916772E+00 0.76225470E+03</pdfrwt>
<pdfrwt beam="2">  1       -1 0.85689543E-01 0.76225470E+03</pdfrwt>
<totfact> 0.17566002E+01</totfact>
</mgrwt>
</event>
<event>
 4    5  0.1074803E-007  0.1032260E+04  0.7818608E-02  0.9340517E-01
         -1   -1    0    0    0  501 -0.00000000000E+00  0.00000000000E+00  0.32647786207E+03  0.32647786211E+03  0.50400000000E-02 0.  1.
          1   -1    0    0  501    0  0.00000000000E+00 -0.00000000000E+00 -0.29444909238E+04  0.29444909238E+04  0.50400000000E-02 0. -1.
    8880023    1    1    2    0    0  0.67169415567E+03  0.42494514644E+03 -0.20067413818E+04  0.22566729040E+04  0.65864270000E+03 0.  0.
    8880022    1    1    2    0    0 -0.67169415567E+03 -0.42494514644E+03 -0.61127167994E+03  0.10142958819E+04  0.15294330000E+03 0.  0.
<mgrwt>
<rscale>  0 0.97136843E+03</rscale>
<asrwt>0</asrwt>
<pdfrwt beam="1">  1        1 0.45299859E+00 0.10322604E+04</pdfrwt>
<pdfrwt beam="2">  1       -1 0.50227365E-01 0.10322604E+04</pdfrwt>
<totfact> 0.26675788E+00</totfact>
</mgrwt>
</event>
<event>
 4    5  0.1074803E-007  0.1104132E+04  0.7818608E-02  0.9256469E-01
         -1   -1    0    0    0  501 -0.00000000000E+00  0.00000000000E+00  0.45609865302E+03  0.45609865305E+03  0.50400000000E-02 0.  1.
          1   -1    0    0  501    0  0.00000000000E+00 -0.00000000000E+00 -0.29970749802E+04  0.29970749802E+04  0.50400000000E-02 0. -1.
    8880023    1    1    2    0    0  0.84949605501E+03 -0.25229821738E+03 -0.22528484297E+04  0.25088710990E+04  0.65864270000E+03 0.  0.
    8880022    1    1    2    0    0 -0.84949605501E+03  0.25229821738E+03 -0.28812789756E+03  0.94430253433E+03  0.15294330000E+03 0.  0.
<mgrwt>
<rscale>  0 0.10489108E+04</rscale>
<asrwt>0</asrwt>
<pdfrwt beam="1">  1        1 0.46108845E+00 0.11041323E+04</pdfrwt>
<pdfrwt beam="2">  1       -1 0.70169025E-01 0.11041323E+04</pdfrwt>
<totfact> 0.12481306E+00</totfact>
</mgrwt>
</event>
<event>
 4    5  0.1074803E-007  0.7347367E+03  0.7818608E-02  0.9875552E-01
          1   -1    0    0  501    0  0.00000000000E+00  0.00000000000E+00  0.13365537511E+04  0.13365537512E+04  0.50400000000E-02 0. -1.
         -1   -1    0    0    0  501 -0.00000000000E+00 -0.00000000000E+00 -0.39136832428E+03  0.39136832431E+03  0.50400000000E-02 0.  1.
    8880023    1    1    2    0    0 -0.16665149017E+03 -0.27974124822E+03  0.11108584536E+04  0.13318575732E+04  0.65864270000E+03 0.  0.
    8880022    1    1    2    0    0  0.16665149017E+03  0.27974124822E+03 -0.16567302674E+03  0.39606450224E+03  0.15294330000E+03 0.  0.
<mgrwt>
<rscale>  0 0.61460884E+03</rscale>
<asrwt>0</asrwt>
<pdfrwt beam="1">  1        1 0.20562365E+00 0.73473675E+03</pdfrwt>
<pdfrwt beam="2">  1       -1 0.60210511E-01 0.73473675E+03</pdfrwt>
<totfact> 0.24622613E+01</totfact>
</mgrwt>
</event>
<event>
 4    5  0.1074803E-007  0.6594974E+03  0.7818608E-02  0.1024677E+00
         -1   -1    0    0    0  501 -0.00000000000E+00  0.00000000000E+00  0.67004026721E+03  0.67004026723E+03  0.50400000000E-02 0.  1.
          1   -1    0    0  501    0  0.00000000000E+00 -0.00000000000E+00 -0.46491268990E+03  0.46491268993E+03  0.50400000000E-02 0. -1.
    8880023    1    1    2    0    0 -0.33557587293E+02  0.74520515712E+00 -0.20931460291E+03  0.69191724668E+03  0.65864270000E+03 0. -1.
    8880022    1    1    2    0    0  0.33557587293E+02 -0.74520515712E+00  0.41444218023E+03  0.44303571048E+03  0.15294330000E+03 0.  0.
<mgrwt>
<rscale>  0 0.46035851E+03</rscale>
<asrwt>0</asrwt>
<pdfrwt beam="1">  1        1 0.71525030E-01 0.65949744E+03</pdfrwt>
<pdfrwt beam="2">  1       -1 0.10308312E+00 0.65949744E+03</pdfrwt>
<totfact> 0.44843618E+01</totfact>
</mgrwt>
</event>
<event>
 4    5  0.1074803E-007  0.9952885E+03  0.7818608E-02  0.9387748E-01
         -1   -1    0    0    0  501 -0.00000000000E+00  0.00000000000E+00  0.90087360106E+03  0.90087360108E+03  0.50400000000E-02 0.  1.
          1   -1    0    0  501    0  0.00000000000E+00 -0.00000000000E+00 -0.21316769199E+04  0.21316769199E+04  0.50400000000E-02 0. -1.
    8880023    1    1    2    0    0 -0.54109504264E+03  0.51381437710E+03 -0.18167753804E+04  0.20715385703E+04  0.65864270000E+03 0.  0.
    8880022    1    1    2    0    0  0.54109504264E+03 -0.51381437710E+03  0.58597206158E+03  0.96101195063E+03  0.15294330000E+03 0.  0.
<mgrwt>
<rscale>  0 0.93090886E+03</rscale>
<asrwt>0</asrwt>
<pdfrwt beam="1">  1        1 0.32795029E+00 0.99528853E+03</pdfrwt>
<pdfrwt beam="2">  1       -1 0.13859594E+00 0.99528853E+03</pdfrwt>
<totfact> 0.10577212E+00</totfact>
</mgrwt>
</event>
<event>
 4    5  0.1074803E-007  0.1297513E+04  0.7818608E-02  0.9067711E-01
          1   -1    0    0  501    0  0.00000000000E+00  0.00000000000E+00  0.30394891988E+04  0.30394891988E+04  0.50400000000E-02 0. -1.
         -1   -1    0    0    0  501 -0.00000000000E+00 -0.00000000000E+00 -0.13695651205E+04  0.13695651205E+04  0.50400000000E-02 0.  1.
    8880023    1    1    2    0    0  0.11087864361E+04 -0.14255710003E+03  0.26266939323E+04  0.29296861791E+04  0.65864270000E+03 0. -1.
    8880022    1    1    2    0    0 -0.11087864361E+04  0.14255710003E+03 -0.95676985401E+03  0.14793681402E+04  0.15294330000E+03 0.  0.
<mgrwt>
<rscale>  0 0.12529754E+04</rscale>
<asrwt>0</asrwt>
<pdfrwt beam="1">  1        1 0.46761372E+00 0.12975130E+04</pdfrwt>
<pdfrwt beam="2">  1       -1 0.21070233E+00 0.12975130E+04</pdfrwt>
<totfact> 0.69410661E-02</totfact>
</mgrwt>
</event>
<event>
 4    5  0.1074803E-007  0.7372823E+03  0.7818608E-02  0.9867935E-01
         -1   -1    0    0    0  501 -0.00000000000E+00  0.00000000000E+00  0.25522141528E+03  0.25522141533E+03  0.50400000000E-02 0.  1.
          1   -1    0    0  501    0  0.00000000000E+00 -0.00000000000E+00 -0.16873921249E+04  0.16873921249E+04  0.50400000000E-02 0. -1.
    8880023    1    1    2    0    0  0.20006394678E+02  0.33071851348E+03 -0.13923755608E+04  0.15755300377E+04  0.65864270000E+03 0.  0.
    8880022    1    1    2    0    0 -0.20006394678E+02 -0.33071851348E+03 -0.39795148828E+02  0.36708350259E+03  0.15294330000E+03 0.  0.
<mgrwt>
<rscale>  0 0.61840756E+03</rscale>
<asrwt>0</asrwt>
<pdfrwt beam="1">  1        1 0.25959878E+00 0.73728230E+03</pdfrwt>
<pdfrwt beam="2">  1       -1 0.39264834E-01 0.73728230E+03</pdfrwt>
<totfact> 0.31709071E+01</totfact>
</mgrwt>
</event>
<event>
 4    5  0.1074803E-007  0.9793569E+03  0.7818608E-02  0.9409078E-01
          1   -1    0    0  501    0  0.00000000000E+00  0.00000000000E+00  0.28571434564E+04  0.28571434564E+04  0.50400000000E-02 0. -1.
         -1   -1    0    0    0  501 -0.00000000000E+00 -0.00000000000E+00 -0.63401255053E+03  0.63401255055E+03  0.50400000000E-02 0.  1.
    8880023    1    1    2    0    0  0.10041477581E+03  0.71780683780E+03  0.25119273058E+04  0.26960932438E+04  0.65864270000E+03 0.  0.
    8880022    1    1    2    0    0 -0.10041477581E+03 -0.71780683780E+03 -0.28879639996E+03  0.79506276308E+03  0.15294330000E+03 0.  0.
<mgrwt>
<rscale>  0 0.91332373E+03</rscale>
<asrwt>0</asrwt>
<pdfrwt beam="1">  1        1 0.43956054E+00 0.97935693E+03</pdfrwt>
<pdfrwt beam="2">  1       -1 0.97540391E-01 0.97935693E+03</pdfrwt>
<totfact> 0.78714883E-01</totfact>
</mgrwt>
</event>
<event>
 4    5  0.1074803E-007  0.8646144E+03  0.7818608E-02  0.9585407E-01
         -1   -1    0    0    0  501 -0.00000000000E+00  0.00000000000E+00  0.54786816789E+03  0.54786816792E+03  0.50400000000E-02 0.  1.
          1   -1    0    0  501    0  0.00000000000E+00 -0.00000000000E+00 -0.18248270998E+04  0.18248270998E+04  0.50400000000E-02 0. -1.
    8880023    1    1    2    0    0 -0.42424350197E+03 -0.36573938517E+03 -0.15156412508E+04  0.17449144547E+04  0.65864270000E+03 0. -1.
    8880022    1    1    2    0    0  0.42424350197E+03  0.36573938517E+03  0.23868231889E+03  0.62778081302E+03  0.15294330000E+03 0.  0.
<mgrwt>
<rscale>  0 0.78269589E+03</rscale>
<asrwt>0</asrwt>
<pdfrwt beam="1">  1        1 0.28074263E+00 0.86461440E+03</pdfrwt>
<pdfrwt beam="2">  1       -1 0.84287411E-01 0.86461440E+03</pdfrwt>
<totfact> 0.56147730E+00</totfact>
</mgrwt>
</event>
<event>
 4    5  0.1074803E-007  0.9316550E+03  0.7818608E-02  0.9477015E-01
          1   -1    0    0  501    0  0.00000000000E+00  0.00000000000E+00  0.98946498275E+03  0.98946498276E+03  0.50400000000E-02 0. -1.
         -1   -1    0    0    0  501 -0.00000000000E+00 -0.00000000000E+00 -0.24364149967E+04  0.24364149967E+04  0.50400000000E-02 0.  1.
    8880023    1    1    2    0    0  0.38958124894E+03 -0.53141058298E+03  0.70614634502E+03  0.11690267850E+04  0.65864270000E+03 0.  0.
    8880022    1    1    2    0    0 -0.38958124894E+03  0.53141058298E+03 -0.21530963589E+04  0.22568531944E+04  0.15294330000E+03 0.  0.
<mgrwt>
<rscale>  0 0.85999835E+03</rscale>
<asrwt>0</asrwt>
<pdfrwt beam="1">  1        1 0.15222538E+00 0.93165496E+03</pdfrwt>
<pdfrwt beam="2">  1       -1 0.37483308E+00 0.93165496E+03</pdfrwt>
<totfact> 0.16948644E-01</totfact>
</mgrwt>
</event>
<event>
 4    5  0.1074803E-007  0.8521057E+03  0.7818608E-02  0.9607763E-01
          1   -1    0    0  501    0  0.00000000000E+00  0.00000000000E+00  0.17711011024E+04  0.17711011024E+04  0.50400000000E-02 0. -1.
         -1   -1    0    0    0  501 -0.00000000000E+00 -0.00000000000E+00 -0.33207394293E+03  0.33207394296E+03  0.50400000000E-02 0.  1.
    8880023    1    1    2    0    0  0.51581180351E+03  0.16190177038E+03  0.12451931583E+04  0.15088373695E+04  0.65864270000E+03 0. -1.
    8880022    1    1    2    0    0 -0.51581180351E+03 -0.16190177038E+03  0.19383400113E+03  0.59433767582E+03  0.15294330000E+03 0.  0.
<mgrwt>
<rscale>  0 0.76784496E+03</rscale>
<asrwt>0</asrwt>
<pdfrwt beam="1">  1        1 0.27247708E+00 0.85210575E+03</pdfrwt>
<pdfrwt beam="2">  1       -1 0.51088302E-01 0.85210575E+03</pdfrwt>
<totfact> 0.16833913E+01</totfact>
</mgrwt>
</event>
<event>
 4    5  0.1074803E-007  0.7481194E+03  0.7818608E-02  0.9836897E-01
         -1   -1    0    0    0  501 -0.00000000000E+00  0.00000000000E+00  0.21629978608E+03  0.21629978614E+03  0.50400000000E-02 0.  1.
          1   -1    0    0  501    0  0.00000000000E+00 -0.00000000000E+00 -0.17621551789E+04  0.17621551789E+04  0.50400000000E-02 0. -1.
    8880023    1    1    2    0    0  0.32104048852E+03  0.15101467227E+03 -0.13543751724E+04  0.15472603984E+04  0.65864270000E+03 0.  0.
    8880022    1    1    2    0    0 -0.32104048852E+03 -0.15101467227E+03 -0.19148022044E+03  0.43119456670E+03  0.15294330000E+03 0.  0.
<mgrwt>
<rscale>  0 0.63419469E+03</rscale>
<asrwt>0</asrwt>
<pdfrwt beam="1">  1        1 0.27110079E+00 0.74811940E+03</pdfrwt>
<pdfrwt beam="2">  1       -1 0.33276891E-01 0.74811940E+03</pdfrwt>
<totfact> 0.37928793E+01</totfact>
</mgrwt>
</event>
<event>
 4    5  0.1074803E-007  0.8601845E+03  0.7818608E-02  0.9593235E-01
          1   -1    0    0  501    0  0.00000000000E+00  0.00000000000E+00  0.80625882204E+03  0.80625882205E+03  0.50400000000E-02 0. -1.
         -1   -1    0    0    0  501 -0.00000000000E+00 -0.00000000000E+00 -0.17837634836E+04  0.17837634836E+04  0.50400000000E-02 0.  1.
    8880023    1    1    2    0    0 -0.55258473246E+03  0.27518175686E+02  0.50694495383E+03  0.99845406955E+03  0.65864270000E+03 0. -1.
    8880022    1    1    2    0    0  0.55258473246E+03 -0.27518175686E+02 -0.14844496154E+04  0.15915682361E+04  0.15294330000E+03 0.  0.
<mgrwt>
<rscale>  0 0.77745530E+03</rscale>
<asrwt>0</asrwt>
<pdfrwt beam="1">  1        1 0.12403982E+00 0.86018448E+03</pdfrwt>
<pdfrwt beam="2">  1       -1 0.27442515E+00 0.86018448E+03</pdfrwt>
<totfact> 0.10902798E+00</totfact>
</mgrwt>
</event>
<event>
 4    5  0.1074803E-007  0.8626697E+03  0.7818608E-02  0.9588832E-01
         -1   -1    0    0    0  501 -0.00000000000E+00  0.00000000000E+00  0.10725308369E+04  0.10725308369E+04  0.50400000000E-02 0.  1.
          1   -1    0    0  501    0  0.00000000000E+00 -0.00000000000E+00 -0.13605723183E+04  0.13605723183E+04  0.50400000000E-02 0. -1.
    8880023    1    1    2    0    0  0.52980902609E+03  0.17231150151E+03 -0.11240254565E+04  0.14169094152E+04  0.65864270000E+03 0. -1.
    8880022    1    1    2    0    0 -0.52980902609E+03 -0.17231150151E+03  0.83598397512E+03  0.10161937401E+04  0.15294330000E+03 0.  0.
<mgrwt>
<rscale>  0 0.78039781E+03</rscale>
<asrwt>0</asrwt>
<pdfrwt beam="1">  1        1 0.20931882E+00 0.86266973E+03</pdfrwt>
<pdfrwt beam="2">  1       -1 0.16500474E+00 0.86266973E+03</pdfrwt>
<totfact> 0.22497595E+00</totfact>
</mgrwt>
</event>
<event>
 4    5  0.1074803E-007  0.1139661E+04  0.7818608E-02  0.9218132E-01
         -1   -1    0    0    0  501 -0.00000000000E+00  0.00000000000E+00  0.54608412927E+03  0.54608412929E+03  0.50400000000E-02 0.  1.
          1   -1    0    0  501    0  0.00000000000E+00 -0.00000000000E+00 -0.23698457585E+04  0.23698457585E+04  0.50400000000E-02 0. -1.
    8880023    1    1    2    0    0 -0.89441366122E+03  0.25503298426E+03 -0.15695993657E+04  0.19397087398E+04  0.65864270000E+03 0. -1.
    8880022    1    1    2    0    0  0.89441366122E+03 -0.25503298426E+03 -0.25416226354E+03  0.97622114793E+03  0.15294330000E+03 0.  1.
<mgrwt>
<rscale>  0 0.10868221E+04</rscale>
<asrwt>0</asrwt>
<pdfrwt beam="1">  1        1 0.36459165E+00 0.11396613E+04</pdfrwt>
<pdfrwt beam="2">  1       -1 0.84012944E-01 0.11396613E+04</pdfrwt>
<totfact> 0.23348720E+00</totfact>
</mgrwt>
</event>
<event>
 4    5  0.1074803E-007  0.9216738E+03  0.7818608E-02  0.9492097E-01
          1   -1    0    0  501    0  0.00000000000E+00  0.00000000000E+00  0.95625282408E+03  0.95625282410E+03  0.50400000000E-02 0. -1.
         -1   -1    0    0    0  501 -0.00000000000E+00 -0.00000000000E+00 -0.13273548416E+04  0.13273548416E+04  0.50400000000E-02 0.  1.
    8880023    1    1    2    0    0 -0.16839714178E+03 -0.62234616828E+03  0.60597688456E+03  0.11030369629E+04  0.65864270000E+03 0. -1.
    8880022    1    1    2    0    0  0.16839714178E+03  0.62234616828E+03 -0.97707890212E+03  0.11805707029E+04  0.15294330000E+03 0.  0.
<mgrwt>
<rscale>  0 0.84868965E+03</rscale>
<asrwt>0</asrwt>
<pdfrwt beam="1">  1        1 0.14711582E+00 0.92167378E+03</pdfrwt>
<pdfrwt beam="2">  1       -1 0.20420844E+00 0.92167378E+03</pdfrwt>
<totfact> 0.23416311E+00</totfact>
</mgrwt>
</event>
<event>
 4    5  0.1074803E-007  0.6614194E+03  0.7818608E-02  0.1022747E+00
         -1   -1    0    0    0  501 -0.00000000000E+00  0.00000000000E+00  0.41595027615E+03  0.41595027618E+03  0.50400000000E-02 0.  1.
          1   -1    0    0  501    0  0.00000000000E+00 -0.00000000000E+00 -0.48347859785E+03  0.48347859787E+03  0.50400000000E-02 0. -1.
    8880023    1    1    2    0    0  0.21513529212E+02  0.56590857299E+02 -0.19695912158E+03  0.69012206088E+03  0.65864270000E+03 0. -1.
    8880022    1    1    2    0    0 -0.21513529212E+02 -0.56590857299E+02  0.12943079989E+03  0.20930681318E+03  0.15294330000E+03 0.  0.
<mgrwt>
<rscale>  0 0.46708148E+03</rscale>
<asrwt>0</asrwt>
<pdfrwt beam="1">  1        1 0.74381323E-01 0.66141936E+03</pdfrwt>
<pdfrwt beam="2">  1       -1 0.63992350E-01 0.66141936E+03</pdfrwt>
<totfact> 0.11759367E+02</totfact>
</mgrwt>
</event>
<event>
 4    5  0.1074803E-007  0.8076941E+03  0.7818608E-02  0.9694400E-01
         -1   -1    0    0    0  501 -0.00000000000E+00  0.00000000000E+00  0.56552449787E+03  0.56552449789E+03  0.50400000000E-02 0.  1.
          1   -1    0    0  501    0  0.00000000000E+00 -0.00000000000E+00 -0.14937088093E+04  0.14937088093E+04  0.50400000000E-02 0. -1.
    8880023    1    1    2    0    0 -0.46163742348E+03 -0.73826660785E+02 -0.12378034927E+04  0.14780146073E+04  0.65864270000E+03 0. -1.
    8880022    1    1    2    0    0  0.46163742348E+03  0.73826660785E+02  0.30961918132E+03  0.58121869985E+03  0.15294330000E+03 0.  0.
<mgrwt>
<rscale>  0 0.71351174E+03</rscale>
<asrwt>0</asrwt>
<pdfrwt beam="1">  1        1 0.22980135E+00 0.80769406E+03</pdfrwt>
<pdfrwt beam="2">  1       -1 0.87003770E-01 0.80769406E+03</pdfrwt>
<totfact> 0.88587176E+00</totfact>
</mgrwt>
</event>
<event>
 4    5  0.1074803E-007  0.1632832E+04  0.7818608E-02  0.8821121E-01
         -1   -1    0    0    0  501 -0.00000000000E+00  0.00000000000E+00  0.15605886877E+04  0.15605886877E+04  0.50400000000E-02 0.  1.
          1   -1    0    0  501    0  0.00000000000E+00 -0.00000000000E+00 -0.24402176649E+04  0.24402176649E+04  0.50400000000E-02 0. -1.
    8880023    1    1    2    0    0 -0.10498567234E+04 -0.10630760201E+04  0.73937864226E+03  0.17924343076E+04  0.65864270000E+03 0.  0.
    8880022    1    1    2    0    0  0.10498567234E+04  0.10630760201E+04 -0.16190076195E+04  0.22083720450E+04  0.15294330000E+03 0.  0.
<mgrwt>
<rscale>  0 0.15990675E+04</rscale>
<asrwt>0</asrwt>
<pdfrwt beam="1">  1        1 0.37541810E+00 0.16328319E+04</pdfrwt>
<pdfrwt beam="2">  1       -1 0.24009057E+00 0.16328319E+04</pdfrwt>
<totfact> 0.11201178E-01</totfact>
</mgrwt>
</event>
<event>
 4    5  0.1074803E-007  0.6970007E+03  0.7818608E-02  0.1000988E+00
         -1   -1    0    0    0  501 -0.00000000000E+00  0.00000000000E+00  0.89221873465E+03  0.89221873466E+03  0.50400000000E-02 0.  1.
          1   -1    0    0  501    0  0.00000000000E+00 -0.00000000000E+00 -0.34980527295E+03  0.34980527298E+03  0.50400000000E-02 0. -1.
    8880023    1    1    2    0    0  0.21526461755E+03  0.75239348455E+02  0.76452610689E+02  0.70118116280E+03  0.65864270000E+03 0. -1.
    8880022    1    1    2    0    0 -0.21526461755E+03 -0.75239348455E+02  0.46596085101E+03  0.54084284484E+03  0.15294330000E+03 0.  0.
<mgrwt>
<rscale>  0 0.55219212E+03</rscale>
<asrwt>0</asrwt>
<pdfrwt beam="1">  1        1 0.53816195E-01 0.69700073E+03</pdfrwt>
<pdfrwt beam="2">  1       -1 0.13726442E+00 0.69700073E+03</pdfrwt>
<totfact> 0.32508905E+01</totfact>
</mgrwt>
</event>
<event>
 4    5  0.1074803E-007  0.2168172E+04  0.7818608E-02  0.8542296E-01
         -1   -1    0    0    0  501 -0.00000000000E+00  0.00000000000E+00  0.20418520099E+04  0.20418520099E+04  0.50400000000E-02 0.  1.
          1   -1    0    0  501    0  0.00000000000E+00 -0.00000000000E+00 -0.23602413429E+04  0.23602413429E+04  0.50400000000E-02 0. -1.
    8880023    1    1    2    0    0 -0.15247616146E+04 -0.13936505517E+04  0.40960473080E+03  0.22065235289E+04  0.65864270000E+03 0.  0.
    8880022    1    1    2    0    0  0.15247616146E+04  0.13936505517E+04 -0.72799406378E+03  0.21955698239E+04  0.15294330000E+03 0.  0.
<mgrwt>
<rscale>  0 0.21435541E+04</rscale>
<asrwt>0</asrwt>
<pdfrwt beam="1">  1        1 0.36311405E+00 0.21681721E+04</pdfrwt>
<pdfrwt beam="2">  1       -1 0.31413108E+00 0.21681721E+04</pdfrwt>
<totfact> 0.39501459E-02</totfact>
</mgrwt>
</event>
<event>
 4    5  0.1074803E-007  0.6810444E+03  0.7818608E-02  0.1008739E+00
          1   -1    0    0  501    0  0.00000000000E+00  0.00000000000E+00  0.62933265178E+03  0.62933265180E+03  0.50400000000E-02 0. -1.
         -1   -1    0    0    0  501 -0.00000000000E+00 -0.00000000000E+00 -0.40937605601E+03  0.40937605604E+03  0.50400000000E-02 0.  1.
    8880023    1    1    2    0    0  0.65868904383E+02  0.16022653261E+03  0.35812358118E+03  0.76946342342E+03  0.65864270000E+03 0. -1.
    8880022    1    1    2    0    0 -0.65868904383E+02 -0.16022653261E+03 -0.13816698541E+03  0.26924528443E+03  0.15294330000E+03 0.  0.
<mgrwt>
<rscale>  0 0.51978911E+03</rscale>
<asrwt>0</asrwt>
<pdfrwt beam="1">  1        1 0.96820407E-01 0.68104439E+03</pdfrwt>
<pdfrwt beam="2">  1       -1 0.62980932E-01 0.68104439E+03</pdfrwt>
<totfact> 0.83707242E+01</totfact>
</mgrwt>
</event>
<event>
 4    5  0.1074803E-007  0.7887504E+03  0.7818608E-02  0.9735670E-01
          1   -1    0    0  501    0  0.00000000000E+00  0.00000000000E+00  0.37385421375E+03  0.37385421379E+03  0.50400000000E-02 0. -1.
         -1   -1    0    0    0  501 -0.00000000000E+00 -0.00000000000E+00 -0.14127358038E+04  0.14127358038E+04  0.50400000000E-02 0.  1.
    8880023    1    1    2    0    0 -0.43386581901E+03  0.87978475552E+01 -0.17517347741E+03  0.80796838086E+03  0.65864270000E+03 0.  0.
    8880022    1    1    2    0    0  0.43386581901E+03 -0.87978475552E+01 -0.86370811266E+03  0.97862163675E+03  0.15294330000E+03 0.  0.
<mgrwt>
<rscale>  0 0.68932178E+03</rscale>
<asrwt>0</asrwt>
<pdfrwt beam="1">  1        1 0.57516034E-01 0.78875038E+03</pdfrwt>
<pdfrwt beam="2">  1       -1 0.21734397E+00 0.78875038E+03</pdfrwt>
<totfact> 0.77452447E+00</totfact>
</mgrwt>
</event>
<event>
 4    5  0.1074803E-007  0.8330538E+03  0.7818608E-02  0.9643420E-01
         -1   -1    0    0    0  501 -0.00000000000E+00  0.00000000000E+00  0.44898730298E+03  0.44898730301E+03  0.50400000000E-02 0.  1.
          1   -1    0    0  501    0  0.00000000000E+00 -0.00000000000E+00 -0.10673690428E+04  0.10673690428E+04  0.50400000000E-02 0. -1.
    8880023    1    1    2    0    0 -0.27127713569E+03  0.43194577877E+03 -0.25326688754E+03  0.87070245362E+03  0.65864270000E+03 0.  1.
    8880022    1    1    2    0    0  0.27127713569E+03 -0.43194577877E+03 -0.36511485225E+03  0.64565389218E+03  0.15294330000E+03 0.  0.
<mgrwt>
<rscale>  0 0.74487848E+03</rscale>
<asrwt>0</asrwt>
<pdfrwt beam="1">  1        1 0.16421062E+00 0.83305381E+03</pdfrwt>
<pdfrwt beam="2">  1       -1 0.69074970E-01 0.83305381E+03</pdfrwt>
<totfact> 0.28991875E+01</totfact>
</mgrwt>
</event>
<event>
 4    5  0.1074803E-007  0.7628244E+03  0.7818608E-02  0.9797850E-01
          1   -1    0    0  501    0  0.00000000000E+00  0.00000000000E+00  0.13127352199E+04  0.13127352199E+04  0.50400000000E-02 0. -1.
         -1   -1    0    0    0  501 -0.00000000000E+00 -0.00000000000E+00 -0.46018260731E+03  0.46018260734E+03  0.50400000000E-02 0.  1.
    8880023    1    1    2    0    0 -0.35731032002E+03  0.14289932173E+03  0.10630174737E+04  0.13083987300E+04  0.65864270000E+03 0. -1.
    8880022    1    1    2    0    0  0.35731032002E+03 -0.14289932173E+03 -0.21046486112E+03  0.46451909726E+03  0.15294330000E+03 0.  0.
<mgrwt>
<rscale>  0 0.65478078E+03</rscale>
<asrwt>0</asrwt>
<pdfrwt beam="1">  1        1 0.20195926E+00 0.76282441E+03</pdfrwt>
<pdfrwt beam="2">  1       -1 0.70797324E-01 0.76282441E+03</pdfrwt>
<totfact> 0.18410325E+01</totfact>
</mgrwt>
</event>
<event>
 4    5  0.1074803E-007  0.1238770E+04  0.7818608E-02  0.9120326E-01
         -1   -1    0    0    0  501 -0.00000000000E+00  0.00000000000E+00  0.97906130835E+03  0.97906130837E+03  0.50400000000E-02 0.  1.
          1   -1    0    0  501    0  0.00000000000E+00 -0.00000000000E+00 -0.24170107478E+04  0.24170107478E+04  0.50400000000E-02 0. -1.
    8880023    1    1    2    0    0  0.10488523389E+04  0.25495074554E+02 -0.18766560923E+04  0.22486417062E+04  0.65864270000E+03 0.  0.
    8880022    1    1    2    0    0 -0.10488523389E+04 -0.25495074554E+02  0.43870665291E+03  0.11474303500E+04  0.15294330000E+03 0.  0.
<mgrwt>
<rscale>  0 0.11915033E+04</rscale>
<asrwt>0</asrwt>
<pdfrwt beam="1">  1        1 0.37184780E+00 0.12387701E+04</pdfrwt>
<pdfrwt beam="2">  1       -1 0.15062482E+00 0.12387701E+04</pdfrwt>
<totfact> 0.52319405E-01</totfact>
</mgrwt>
</event>
<event>
 4    5  0.1074803E-007  0.1082037E+04  0.7818608E-02  0.9281324E-01
          1   -1    0    0  501    0  0.00000000000E+00  0.00000000000E+00  0.16312939128E+04  0.16312939128E+04  0.50400000000E-02 0. -1.
         -1   -1    0    0    0  501 -0.00000000000E+00 -0.00000000000E+00 -0.65528012596E+03  0.65528012598E+03  0.50400000000E-02 0.  1.
    8880023    1    1    2    0    0 -0.11792125567E+02  0.85840261124E+03  0.90690987537E+03  0.14118391642E+04  0.65864270000E+03 0. -1.
    8880022    1    1    2    0    0  0.11792125567E+02 -0.85840261124E+03  0.69103911424E+02  0.87473487457E+03  0.15294330000E+03 0.  0.
<mgrwt>
<rscale>  0 0.10252053E+04</rscale>
<asrwt>0</asrwt>
<pdfrwt beam="1">  1        1 0.25096830E+00 0.10820371E+04</pdfrwt>
<pdfrwt beam="2">  1       -1 0.10081233E+00 0.10820371E+04</pdfrwt>
<totfact> 0.49541566E+00</totfact>
</mgrwt>
</event>
<event>
 4    5  0.1074803E-007  0.1066089E+04  0.7818608E-02  0.9299785E-01
          1   -1    0    0  501    0  0.00000000000E+00  0.00000000000E+00  0.28882164649E+04  0.28882164649E+04  0.50400000000E-02 0. -1.
         -1   -1    0    0    0  501 -0.00000000000E+00 -0.00000000000E+00 -0.37521086418E+03  0.37521086421E+03  0.50400000000E-02 0.  1.
    8880023    1    1    2    0    0  0.83826180934E+03 -0.72972683672E+01  0.20064846474E+04  0.22721194858E+04  0.65864270000E+03 0.  1.
    8880022    1    1    2    0    0 -0.83826180934E+03  0.72972683672E+01  0.50652095335E+03  0.99130784337E+03  0.15294330000E+03 0.  0.
<mgrwt>
<rscale>  0 0.10080262E+04</rscale>
<asrwt>0</asrwt>
<pdfrwt beam="1">  1        1 0.44434099E+00 0.10660893E+04</pdfrwt>
<pdfrwt beam="2">  1       -1 0.57724749E-01 0.10660893E+04</pdfrwt>
<totfact> 0.22252154E+00</totfact>
</mgrwt>
</event>
<event>
 4    5  0.1074803E-007  0.9284898E+03  0.7818608E-02  0.9481762E-01
          1   -1    0    0  501    0  0.00000000000E+00  0.00000000000E+00  0.22184032905E+04  0.22184032905E+04  0.50400000000E-02 0. -1.
         -1   -1    0    0    0  501 -0.00000000000E+00 -0.00000000000E+00 -0.42050264113E+03  0.42050264116E+03  0.50400000000E-02 0.  1.
    8880023    1    1    2    0    0 -0.35421648298E+03  0.55028522531E+03  0.17300042288E+04  0.19634174248E+04  0.65864270000E+03 0.  0.
    8880022    1    1    2    0    0  0.35421648298E+03 -0.55028522531E+03  0.67896420596E+02  0.67548850690E+03  0.15294330000E+03 0.  0.
<mgrwt>
<rscale>  0 0.85641861E+03</rscale>
<asrwt>0</asrwt>
<pdfrwt beam="1">  1        1 0.34129281E+00 0.92848982E+03</pdfrwt>
<pdfrwt beam="2">  1       -1 0.64692716E-01 0.92848982E+03</pdfrwt>
<totfact> 0.52518851E+00</totfact>
</mgrwt>
</event>
<event>
 4    5  0.1074803E-007  0.7492490E+03  0.7818608E-02  0.9833781E-01
          1   -1    0    0  501    0  0.00000000000E+00  0.00000000000E+00  0.16945070713E+04  0.16945070713E+04  0.50400000000E-02 0. -1.
         -1   -1    0    0    0  501 -0.00000000000E+00 -0.00000000000E+00 -0.35141437244E+03  0.35141437247E+03  0.50400000000E-02 0.  1.
    8880023    1    1    2    0    0  0.10165130951E+03 -0.34238997308E+03  0.14592826144E+04  0.16403901479E+04  0.65864270000E+03 0. -1.
    8880022    1    1    2    0    0 -0.10165130951E+03  0.34238997308E+03 -0.11618991560E+03  0.40553129582E+03  0.15294330000E+03 0.  0.
<mgrwt>
<rscale>  0 0.63580768E+03</rscale>
<asrwt>0</asrwt>
<pdfrwt beam="1">  1        1 0.26069340E+00 0.74924902E+03</pdfrwt>
<pdfrwt beam="2">  1       -1 0.54063750E-01 0.74924902E+03</pdfrwt>
<totfact> 0.17238311E+01</totfact>
</mgrwt>
</event>
<event>
 4    5  0.1074803E-007  0.6985273E+03  0.7818608E-02  0.1000337E+00
          1   -1    0    0  501    0  0.00000000000E+00  0.00000000000E+00  0.96902279110E+03  0.96902279112E+03  0.50400000000E-02 0. -1.
         -1   -1    0    0    0  501 -0.00000000000E+00 -0.00000000000E+00 -0.50550021811E+03  0.50550021814E+03  0.50400000000E-02 0.  1.
    8880023    1    1    2    0    0  0.16547660212E+03  0.16354699554E+03  0.78396335146E+03  0.10500185085E+04  0.65864270000E+03 0. -1.
    8880022    1    1    2    0    0 -0.16547660212E+03 -0.16354699554E+03 -0.32044077847E+03  0.42450450071E+03  0.15294330000E+03 0.  0.
<mgrwt>
<rscale>  0 0.55502876E+03</rscale>
<asrwt>0</asrwt>
<pdfrwt beam="1">  1        1 0.14908043E+00 0.69852726E+03</pdfrwt>
<pdfrwt beam="2">  1       -1 0.77769266E-01 0.69852726E+03</pdfrwt>
<totfact> 0.27401306E+01</totfact>
</mgrwt>
</event>
<event>
 4    5  0.1074803E-007  0.1027406E+04  0.7818608E-02  0.9346549E-01
          1   -1    0    0  501    0  0.00000000000E+00  0.00000000000E+00  0.21589222590E+04  0.21589222590E+04  0.50400000000E-02 0. -1.
         -1   -1    0    0    0  501 -0.00000000000E+00 -0.00000000000E+00 -0.71768331729E+03  0.71768331731E+03  0.50400000000E-02 0.  1.
    8880023    1    1    2    0    0  0.65291052932E+03 -0.44211013284E+03  0.17391302072E+04  0.20199350516E+04  0.65864270000E+03 0. -1.
    8880022    1    1    2    0    0 -0.65291052932E+03  0.44211013284E+03 -0.29789126548E+03  0.85667052472E+03  0.15294330000E+03 0.  0.
<mgrwt>
<rscale>  0 0.96608170E+03</rscale>
<asrwt>0</asrwt>
<pdfrwt beam="1">  1        1 0.33214189E+00 0.10274063E+04</pdfrwt>
<pdfrwt beam="2">  1       -1 0.11041282E+00 0.10274063E+04</pdfrwt>
<totfact> 0.17737796E+00</totfact>
</mgrwt>
</event>
<event>
 4    5  0.1074803E-007  0.6616897E+03  0.7818608E-02  0.1022488E+00
         -1   -1    0    0    0  501 -0.00000000000E+00  0.00000000000E+00  0.22596149931E+03  0.22596149937E+03  0.50400000000E-02 0.  1.
          1   -1    0    0  501    0  0.00000000000E+00 -0.00000000000E+00 -0.92587327863E+03  0.92587327864E+03  0.50400000000E-02 0. -1.
    8880023    1    1    2    0    0 -0.62785837364E+02 -0.90009430605E+01 -0.72813024238E+03  0.98387343418E+03  0.65864270000E+03 0. -1.
    8880022    1    1    2    0    0  0.62785837364E+02  0.90009430605E+01  0.28218463066E+02  0.16796134383E+03  0.15294330000E+03 0.  1.
<mgrwt>
<rscale>  0 0.46799239E+03</rscale>
<asrwt>0</asrwt>
<pdfrwt beam="1">  1        1 0.14244204E+00 0.66168972E+03</pdfrwt>
<pdfrwt beam="2">  1       -1 0.34763308E-01 0.66168972E+03</pdfrwt>
<totfact> 0.13929234E+02</totfact>
</mgrwt>
</event>
<event>
 4    5  0.1074803E-007  0.1753176E+04  0.7818608E-02  0.8748890E-01
          1   -1    0    0  501    0  0.00000000000E+00  0.00000000000E+00  0.18025147669E+04  0.18025147669E+04  0.50400000000E-02 0. -1.
         -1   -1    0    0    0  501 -0.00000000000E+00 -0.00000000000E+00 -0.18401189431E+04  0.18401189431E+04  0.50400000000E-02 0.  1.
    8880023    1    1    2    0    0  0.55322507911E+03 -0.15276638647E+04  0.65266383490E+03  0.18707204921E+04  0.65864270000E+03 0.  0.
    8880022    1    1    2    0    0 -0.55322507911E+03  0.15276638647E+04 -0.69026801111E+03  0.17719132179E+04  0.15294330000E+03 0.  0.
<mgrwt>
<rscale>  0 0.17220458E+04</rscale>
<asrwt>0</asrwt>
<pdfrwt beam="1">  1        1 0.27730996E+00 0.17531757E+04</pdfrwt>
<pdfrwt beam="2">  1       -1 0.28309522E+00 0.17531757E+04</pdfrwt>
<totfact> 0.15821015E-01</totfact>
</mgrwt>
</event>
<event>
 4    5  0.1074803E-007  0.7225110E+03  0.7818608E-02  0.9914179E-01
          1   -1    0    0  501    0  0.00000000000E+00  0.00000000000E+00  0.20880986086E+04  0.20880986086E+04  0.50400000000E-02 0. -1.
         -1   -1    0    0    0  501 -0.00000000000E+00 -0.00000000000E+00 -0.30368557686E+03  0.30368557691E+03  0.50400000000E-02 0.  1.
    8880023    1    1    2    0    0  0.21330226689E+02  0.29623812847E+03  0.19043746667E+04  0.20368272103E+04  0.65864270000E+03 0. -1.
    8880022    1    1    2    0    0 -0.21330226689E+02 -0.29623812847E+03 -0.11996163498E+03  0.35495697516E+03  0.15294330000E+03 0.  0.
<mgrwt>
<rscale>  0 0.59578995E+03</rscale>
<asrwt>0</asrwt>
<pdfrwt beam="1">  1        1 0.32124593E+00 0.72251105E+03</pdfrwt>
<pdfrwt beam="2">  1       -1 0.46720859E-01 0.72251105E+03</pdfrwt>
<totfact> 0.12445494E+01</totfact>
</mgrwt>
</event>
<event>
 4    5  0.1074803E-007  0.6718962E+03  0.7818608E-02  0.1014338E+00
         -1   -1    0    0    0  501 -0.00000000000E+00  0.00000000000E+00  0.12940697482E+04  0.12940697482E+04  0.50400000000E-02 0.  1.
          1   -1    0    0  501    0  0.00000000000E+00 -0.00000000000E+00 -0.24239910384E+03  0.24239910390E+03  0.50400000000E-02 0. -1.
    8880023    1    1    2    0    0 -0.12286593147E+03 -0.50380969294E+02  0.26189470583E+03  0.72113335964E+03  0.65864270000E+03 0. -1.
    8880022    1    1    2    0    0  0.12286593147E+03  0.50380969294E+02  0.78977593856E+03  0.81533549250E+03  0.15294330000E+03 0.  0.
<mgrwt>
<rscale>  0 0.49786195E+03</rscale>
<asrwt>0</asrwt>
<pdfrwt beam="1">  1        1 0.37292170E-01 0.67189619E+03</pdfrwt>
<pdfrwt beam="2">  1       -1 0.19908765E+00 0.67189619E+03</pdfrwt>
<totfact> 0.18312414E+01</totfact>
</mgrwt>
</event>
<event>
 4    5  0.1074803E-007  0.1944498E+04  0.7818608E-02  0.8646554E-01
         -1   -1    0    0    0  501 -0.00000000000E+00  0.00000000000E+00  0.20424631243E+04  0.20424631243E+04  0.50400000000E-02 0.  1.
          1   -1    0    0  501    0  0.00000000000E+00 -0.00000000000E+00 -0.25608730183E+04  0.25608730183E+04  0.50400000000E-02 0. -1.
    8880023    1    1    2    0    0  0.17827512985E+04  0.41116979905E+03 -0.15596343237E+04  0.24926957748E+04  0.65864270000E+03 0.  0.
    8880022    1    1    2    0    0 -0.17827512985E+04 -0.41116979905E+03  0.10412244297E+04  0.21106403677E+04  0.15294330000E+03 0.  0.
<mgrwt>
<rscale>  0 0.19167697E+04</rscale>
<asrwt>0</asrwt>
<pdfrwt beam="1">  1        1 0.39398046E+00 0.19444981E+04</pdfrwt>
<pdfrwt beam="2">  1       -1 0.31422510E+00 0.19444981E+04</pdfrwt>
<totfact> 0.29261870E-02</totfact>
</mgrwt>
</event>
<event>
 4    5  0.1074803E-007  0.9358063E+03  0.7818608E-02  0.9470837E-01
          1   -1    0    0  501    0  0.00000000000E+00  0.00000000000E+00  0.35308607658E+04  0.35308607658E+04  0.50400000000E-02 0. -1.
         -1   -1    0    0    0  501 -0.00000000000E+00 -0.00000000000E+00 -0.40476268375E+03  0.40476268378E+03  0.50400000000E-02 0.  1.
    8880023    1    1    2    0    0 -0.47957070512E+03 -0.46036412677E+03  0.31159151596E+04  0.32534075488E+04  0.65864270000E+03 0.  0.
    8880022    1    1    2    0    0  0.47957070512E+03  0.46036412677E+03  0.10182922491E+02  0.68221590084E+03  0.15294330000E+03 0.  0.
<mgrwt>
<rscale>  0 0.86468481E+03</rscale>
<asrwt>0</asrwt>
<pdfrwt beam="1">  1        1 0.54320936E+00 0.93580628E+03</pdfrwt>
<pdfrwt beam="2">  1       -1 0.62271181E-01 0.93580628E+03</pdfrwt>
<totfact> 0.65057663E-01</totfact>
</mgrwt>
</event>
<event>
 4    5  0.1074803E-007  0.7576497E+03  0.7818608E-02  0.9811231E-01
          1   -1    0    0  501    0  0.00000000000E+00  0.00000000000E+00  0.19418011278E+04  0.19418011278E+04  0.50400000000E-02 0. -1.
         -1   -1    0    0    0  501 -0.00000000000E+00 -0.00000000000E+00 -0.69954200571E+03  0.69954200573E+03  0.50400000000E-02 0.  1.
    8880023    1    1    2    0    0  0.37149837784E+03  0.47029294708E+02  0.17996598513E+04  0.19526414382E+04  0.65864270000E+03 0. -1.
    8880022    1    1    2    0    0 -0.37149837784E+03 -0.47029294708E+02 -0.55740072921E+03  0.68870169539E+03  0.15294330000E+03 0.  0.
<mgrwt>
<rscale>  0 0.64763309E+03</rscale>
<asrwt>0</asrwt>
<pdfrwt beam="1">  1        1 0.29873863E+00 0.75764966E+03</pdfrwt>
<pdfrwt beam="2">  1       -1 0.10762185E+00 0.75764966E+03</pdfrwt>
<totfact> 0.27548802E+00</totfact>
</mgrwt>
</event>
<event>
 4    5  0.1074803E-007  0.6679377E+03  0.7818608E-02  0.1017186E+00
          1   -1    0    0  501    0  0.00000000000E+00  0.00000000000E+00  0.25441077267E+04  0.25441077268E+04  0.50400000000E-02 0. -1.
         -1   -1    0    0    0  501 -0.00000000000E+00 -0.00000000000E+00 -0.82355747489E+02  0.82355747643E+02  0.50400000000E-02 0.  1.
    8880023    1    1    2    0    0  0.10647912094E+03 -0.31508479897E+02  0.22274044038E+04  0.23253969923E+04  0.65864270000E+03 0. -1.
    8880022    1    1    2    0    0 -0.10647912094E+03  0.31508479897E+02  0.23434757549E+03  0.30106648212E+03  0.15294330000E+03 0.  0.
<mgrwt>
<rscale>  0 0.48715741E+03</rscale>
<asrwt>0</asrwt>
<pdfrwt beam="1">  1        1 0.39140125E+00 0.66793772E+03</pdfrwt>
<pdfrwt beam="2">  1       -1 0.12670113E-01 0.66793772E+03</pdfrwt>
<totfact> 0.57591238E+01</totfact>
</mgrwt>
</event>
<event>
 4    5  0.1074803E-007  0.1162097E+04  0.7818608E-02  0.9194877E-01
          1   -1    0    0  501    0  0.00000000000E+00  0.00000000000E+00  0.20339859151E+04  0.20339859151E+04  0.50400000000E-02 0. -1.
         -1   -1    0    0    0  501 -0.00000000000E+00 -0.00000000000E+00 -0.60239088111E+03  0.60239088113E+03  0.50400000000E-02 0.  1.
    8880023    1    1    2    0    0  0.96088810074E+02 -0.95258963774E+03  0.11301824929E+04  0.16210437227E+04  0.65864270000E+03 0.  0.
    8880022    1    1    2    0    0 -0.96088810074E+02  0.95258963774E+03  0.30141254116E+03  0.10153330736E+04  0.15294330000E+03 0.  0.
<mgrwt>
<rscale>  0 0.11106465E+04</rscale>
<asrwt>0</asrwt>
<pdfrwt beam="1">  1        1 0.31292091E+00 0.11620974E+04</pdfrwt>
<pdfrwt beam="2">  1       -1 0.92675521E-01 0.11620974E+04</pdfrwt>
<totfact> 0.31706609E+00</totfact>
</mgrwt>
</event>
<event>
 4    5  0.1074803E-007  0.6900552E+03  0.7818608E-02  0.1004126E+00
          1   -1    0    0  501    0  0.00000000000E+00  0.00000000000E+00  0.22269860950E+04  0.22269860950E+04  0.50400000000E-02 0. -1.
         -1   -1    0    0    0  501 -0.00000000000E+00 -0.00000000000E+00 -0.15752872503E+03  0.15752872511E+03  0.50400000000E-02 0.  1.
    8880023    1    1    2    0    0 -0.11363048875E+02  0.20551614762E+03  0.20045441943E+04  0.21199937828E+04  0.65864270000E+03 0.  0.
    8880022    1    1    2    0    0  0.11363048875E+02 -0.20551614762E+03  0.64913175672E+02  0.26452103736E+03  0.15294330000E+03 0.  0.
<mgrwt>
<rscale>  0 0.53877344E+03</rscale>
<asrwt>0</asrwt>
<pdfrwt beam="1">  1        1 0.34261320E+00 0.69005522E+03</pdfrwt>
<pdfrwt beam="2">  1       -1 0.24235192E-01 0.69005522E+03</pdfrwt>
<totfact> 0.32343552E+01</totfact>
</mgrwt>
</event>
<event>
 4    5  0.1074803E-007  0.8407134E+03  0.7818608E-02  0.9628836E-01
         -1   -1    0    0    0  501 -0.00000000000E+00  0.00000000000E+00  0.90603457648E+03  0.90603457649E+03  0.50400000000E-02 0.  1.
          1   -1    0    0  501    0  0.00000000000E+00 -0.00000000000E+00 -0.88341360669E+03  0.88341360671E+03  0.50400000000E-02 0. -1.
    8880023    1    1    2    0    0  0.19021466325E+02  0.52213697901E+03 -0.54582386834E+03  0.10023585898E+04  0.65864270000E+03 0.  0.
    8880022    1    1    2    0    0 -0.19021466325E+02 -0.52213697901E+03  0.56844483812E+03  0.78708959340E+03  0.15294330000E+03 0.  0.
<mgrwt>
<rscale>  0 0.75416641E+03</rscale>
<asrwt>0</asrwt>
<pdfrwt beam="1">  1        1 0.13590979E+00 0.84071342E+03</pdfrwt>
<pdfrwt beam="2">  1       -1 0.13938993E+00 0.84071342E+03</pdfrwt>
<totfact> 0.81251537E+00</totfact>
</mgrwt>
</event>
<event>
 4    5  0.1074803E-007  0.8065244E+03  0.7818608E-02  0.9696863E-01
          1   -1    0    0  501    0  0.00000000000E+00  0.00000000000E+00  0.10506049007E+04  0.10506049007E+04  0.50400000000E-02 0. -1.
         -1   -1    0    0    0  501 -0.00000000000E+00 -0.00000000000E+00 -0.46364555612E+03  0.46364555615E+03  0.50400000000E-02 0.  1.
    8880023    1    1    2    0    0  0.11237314800E+03  0.45171191151E+03  0.62855210321E+03  0.10225259547E+04  0.65864270000E+03 0.  0.
    8880022    1    1    2    0    0 -0.11237314800E+03 -0.45171191151E+03 -0.41592758640E+02  0.49172450211E+03  0.15294330000E+03 0.  0.
<mgrwt>
<rscale>  0 0.71203901E+03</rscale>
<asrwt>0</asrwt>
<pdfrwt beam="1">  1        1 0.16163152E+00 0.80652438E+03</pdfrwt>
<pdfrwt beam="2">  1       -1 0.71330087E-01 0.80652438E+03</pdfrwt>
<totfact> 0.28026969E+01</totfact>
</mgrwt>
</event>
<event>
 4    5  0.1074803E-007  0.9575896E+03  0.7818608E-02  0.9439277E-01
          1   -1    0    0  501    0  0.00000000000E+00  0.00000000000E+00  0.20223526575E+04  0.20223526575E+04  0.50400000000E-02 0. -1.
         -1   -1    0    0    0  501 -0.00000000000E+00 -0.00000000000E+00 -0.36601046860E+03  0.36601046863E+03  0.50400000000E-02 0.  1.
    8880023    1    1    2    0    0 -0.57326594657E+03  0.39310795980E+03  0.65629656634E+03  0.11609061559E+04  0.65864270000E+03 0.  1.
    8880022    1    1    2    0    0  0.57326594657E+03 -0.39310795980E+03  0.10000456225E+04  0.12274569702E+04  0.15294330000E+03 0. -1.
<mgrwt>
<rscale>  0 0.88912613E+03</rscale>
<asrwt>0</asrwt>
<pdfrwt beam="1">  1        1 0.31113117E+00 0.95758964E+03</pdfrwt>
<pdfrwt beam="2">  1       -1 0.56309304E-01 0.95758964E+03</pdfrwt>
<totfact> 0.93370185E+00</totfact>
</mgrwt>
</event>
<event>
 4    5  0.1074803E-007  0.8231823E+03  0.7818608E-02  0.9662746E-01
         -1   -1    0    0    0  501 -0.00000000000E+00  0.00000000000E+00  0.11698125539E+04  0.11698125539E+04  0.50400000000E-02 0.  1.
          1   -1    0    0  501    0  0.00000000000E+00 -0.00000000000E+00 -0.11522380896E+04  0.11522380896E+04  0.50400000000E-02 0. -1.
    8880023    1    1    2    0    0 -0.49116094674E+03 -0.50792020882E+02 -0.93040757557E+03  0.12422911768E+04  0.65864270000E+03 0. -1.
    8880022    1    1    2    0    0  0.49116094674E+03  0.50792020882E+02  0.94798203986E+03  0.10797594667E+04  0.15294330000E+03 0.  0.
<mgrwt>
<rscale>  0 0.73278863E+03</rscale>
<asrwt>0</asrwt>
<pdfrwt beam="1">  1        1 0.17726740E+00 0.82318231E+03</pdfrwt>
<pdfrwt beam="2">  1       -1 0.17997116E+00 0.82318231E+03</pdfrwt>
<totfact> 0.24847389E+00</totfact>
</mgrwt>
</event>
<event>
 4    5  0.1074803E-007  0.7024499E+03  0.7818608E-02  0.9987186E-01
          1   -1    0    0  501    0  0.00000000000E+00  0.00000000000E+00  0.18513853811E+04  0.18513853811E+04  0.50400000000E-02 0. -1.
         -1   -1    0    0    0  501 -0.00000000000E+00 -0.00000000000E+00 -0.30041291298E+03  0.30041291302E+03  0.50400000000E-02 0.  1.
    8880023    1    1    2    0    0  0.84986131303E+02 -0.22891701188E+03  0.16912569923E+04  0.18313345028E+04  0.65864270000E+03 0. -1.
    8880022    1    1    2    0    0 -0.84986131303E+02  0.22891701188E+03 -0.14028452415E+03  0.32046379136E+03  0.15294330000E+03 0.  0.
<mgrwt>
<rscale>  0 0.56215695E+03</rscale>
<asrwt>0</asrwt>
<pdfrwt beam="1">  1        1 0.28482851E+00 0.70244989E+03</pdfrwt>
<pdfrwt beam="2">  1       -1 0.46217373E-01 0.70244989E+03</pdfrwt>
<totfact> 0.18332261E+01</totfact>
</mgrwt>
</event>
<event>
 4    5  0.1074803E-007  0.1954112E+04  0.7818608E-02  0.8641760E-01
         -1   -1    0    0    0  501 -0.00000000000E+00  0.00000000000E+00  0.26349850798E+04  0.26349850798E+04  0.50400000000E-02 0.  1.
          1   -1    0    0  501    0  0.00000000000E+00 -0.00000000000E+00 -0.17130097933E+04  0.17130097933E+04  0.50400000000E-02 0. -1.
    8880023    1    1    2    0    0  0.17830046262E+04 -0.45347473032E+03  0.14437028625E+04  0.24295746520E+04  0.65864270000E+03 0.  0.
    8880022    1    1    2    0    0 -0.17830046262E+04  0.45347473032E+03 -0.52172757598E+03  0.19184202211E+04  0.15294330000E+03 0.  0.
<mgrwt>
<rscale>  0 0.19265344E+04</rscale>
<asrwt>0</asrwt>
<pdfrwt beam="1">  1        1 0.26353997E+00 0.19541123E+04</pdfrwt>
<pdfrwt beam="2">  1       -1 0.40538232E+00 0.19541123E+04</pdfrwt>
<totfact> 0.27462078E-02</totfact>
</mgrwt>
</event>
<event>
 4    5  0.1074803E-007  0.8391580E+03  0.7818608E-02  0.9631770E-01
          1   -1    0    0  501    0  0.00000000000E+00  0.00000000000E+00  0.15556977372E+04  0.15556977372E+04  0.50400000000E-02 0. -1.
         -1   -1    0    0    0  501 -0.00000000000E+00 -0.00000000000E+00 -0.42686074022E+03  0.42686074025E+03  0.50400000000E-02 0.  1.
    8880023    1    1    2    0    0 -0.50361761330E+03 -0.12940313134E+03  0.11690678559E+04  0.14390641851E+04  0.65864270000E+03 0. -1.
    8880022    1    1    2    0    0  0.50361761330E+03  0.12940313134E+03 -0.40230858910E+02  0.54349429238E+03  0.15294330000E+03 0.  0.
<mgrwt>
<rscale>  0 0.75228649E+03</rscale>
<asrwt>0</asrwt>
<pdfrwt beam="1">  1        1 0.23933811E+00 0.83915796E+03</pdfrwt>
<pdfrwt beam="2">  1       -1 0.65670883E-01 0.83915796E+03</pdfrwt>
<totfact> 0.14421048E+01</totfact>
</mgrwt>
</event>
<event>
 4    5  0.1074803E-007  0.8594464E+03  0.7818608E-02  0.9594549E-01
         -1   -1    0    0    0  501 -0.00000000000E+00  0.00000000000E+00  0.74865655340E+03  0.74865655342E+03  0.50400000000E-02 0.  1.
          1   -1    0    0  501    0  0.00000000000E+00 -0.00000000000E+00 -0.82665651394E+03  0.82665651395E+03  0.50400000000E-02 0. -1.
    8880023    1    1    2    0    0  0.12840464112E+03 -0.53698249955E+03 -0.36594292373E+03  0.93411047868E+03  0.65864270000E+03 0.  0.
    8880022    1    1    2    0    0 -0.12840464112E+03  0.53698249955E+03  0.28794296319E+03  0.64120258869E+03  0.15294330000E+03 0.  0.
<mgrwt>
<rscale>  0 0.77658023E+03</rscale>
<asrwt>0</asrwt>
<pdfrwt beam="1">  1        1 0.12717793E+00 0.85944643E+03</pdfrwt>
<pdfrwt beam="2">  1       -1 0.11517793E+00 0.85944643E+03</pdfrwt>
<totfact> 0.14571599E+01</totfact>
</mgrwt>
</event>
<event>
 4    5  0.1074803E-007  0.7847999E+03  0.7818608E-02  0.9744680E-01
          1   -1    0    0  501    0  0.00000000000E+00  0.00000000000E+00  0.10258461117E+04  0.10258461117E+04  0.50400000000E-02 0. -1.
         -1   -1    0    0    0  501 -0.00000000000E+00 -0.00000000000E+00 -0.11633936141E+04  0.11633936141E+04  0.50400000000E-02 0.  1.
    8880023    1    1    2    0    0 -0.19052742312E+03  0.38183756021E+03  0.81678405605E+03  0.11327166556E+04  0.65864270000E+03 0. -1.
    8880022    1    1    2    0    0  0.19052742312E+03 -0.38183756021E+03 -0.95433155845E+03  0.10565230702E+04  0.15294330000E+03 0.  0.
<mgrwt>
<rscale>  0 0.68417725E+03</rscale>
<asrwt>0</asrwt>
<pdfrwt beam="1">  1        1 0.15782248E+00 0.78479986E+03</pdfrwt>
<pdfrwt beam="2">  1       -1 0.17898363E+00 0.78479986E+03</pdfrwt>
<totfact> 0.31618769E+00</totfact>
</mgrwt>
</event>
<event>
 4    5  0.1074803E-007  0.7155261E+03  0.7818608E-02  0.9938026E-01
         -1   -1    0    0    0  501 -0.00000000000E+00  0.00000000000E+00  0.95473818494E+03  0.95473818495E+03  0.50400000000E-02 0.  1.
          1   -1    0    0  501    0  0.00000000000E+00 -0.00000000000E+00 -0.17302309907E+04  0.17302309907E+04  0.50400000000E-02 0. -1.
    8880023    1    1    2    0    0  0.33950130294E+02 -0.27751526060E+03  0.80247179381E+03  0.10751458121E+04  0.65864270000E+03 0.  1.
    8880022    1    1    2    0    0 -0.33950130294E+02  0.27751526060E+03 -0.15779645996E+04  0.16098233635E+04  0.15294330000E+03 0.  0.
<mgrwt>
<rscale>  0 0.58453280E+03</rscale>
<asrwt>0</asrwt>
<pdfrwt beam="1">  1        1 0.26618938E+00 0.71552606E+03</pdfrwt>
<pdfrwt beam="2">  1       -1 0.14688280E+00 0.71552606E+03</pdfrwt>
<totfact> 0.17756032E+00</totfact>
</mgrwt>
</event>
<event>
 4    5  0.1074803E-007  0.7371663E+03  0.7818608E-02  0.9868280E-01
          1   -1    0    0  501    0  0.00000000000E+00  0.00000000000E+00  0.14709490007E+04  0.14709490007E+04  0.50400000000E-02 0. -1.
         -1   -1    0    0    0  501 -0.00000000000E+00 -0.00000000000E+00 -0.23602782131E+03  0.23602782137E+03  0.50400000000E-02 0.  1.
    8880023    1    1    2    0    0  0.85360334076E+01  0.33095469998E+03  0.51277604843E+03  0.89797180324E+03  0.65864270000E+03 0.  1.
    8880022    1    1    2    0    0 -0.85360334076E+01 -0.33095469998E+03  0.72214513092E+03  0.80900501880E+03  0.15294330000E+03 0.  0.
<mgrwt>
<rscale>  0 0.61823518E+03</rscale>
<asrwt>0</asrwt>
<pdfrwt beam="1">  1        1 0.22629985E+00 0.73716625E+03</pdfrwt>
<pdfrwt beam="2">  1       -1 0.36311972E-01 0.73716625E+03</pdfrwt>
<totfact> 0.51210476E+01</totfact>
</mgrwt>
</event>
<event>
 4    5  0.1716739E-007  0.1027360E+04  0.7818608E-02  0.9346606E-01
          1   -1    0    0  501    0  0.00000000000E+00  0.00000000000E+00  0.26067278670E+04  0.26067278670E+04  0.50400000000E-02 0. -1.
         -1   -1    0    0    0  501 -0.00000000000E+00 -0.00000000000E+00 -0.12878052827E+04  0.12878052827E+04  0.50400000000E-02 0.  1.
    8880023    1    1    2    0    0  0.64935678872E+03 -0.44720811992E+03  0.23633572140E+04  0.25769995865E+04  0.65864270000E+03 0.  0.
    8880022    1    1    2    0    0 -0.64935678872E+03  0.44720811992E+03 -0.10444346297E+04  0.13175335633E+04  0.15294330000E+03 0.  0.
<mgrwt>
<rscale>  0 0.96603174E+03</rscale>
<asrwt>0</asrwt>
<pdfrwt beam="1">  1        1 0.40103505E+00 0.10273605E+04</pdfrwt>
<pdfrwt beam="2">  1       -1 0.19812389E+00 0.10273605E+04</pdfrwt>
<totfact> 0.17993208E-01</totfact>
</mgrwt>
</event>
<event>
 4    5  0.1074803E-007  0.1299661E+04  0.7818608E-02  0.9065852E-01
         -1   -1    0    0    0  501 -0.00000000000E+00  0.00000000000E+00  0.12051260400E+04  0.12051260400E+04  0.50400000000E-02 0.  1.
          1   -1    0    0  501    0  0.00000000000E+00 -0.00000000000E+00 -0.16150878409E+04  0.16150878409E+04  0.50400000000E-02 0. -1.
    8880023    1    1    2    0    0 -0.95863722400E+03  0.57993433507E+03  0.47557694317E+03  0.13839410375E+04  0.65864270000E+03 0.  0.
    8880022    1    1    2    0    0  0.95863722400E+03 -0.57993433507E+03 -0.88553874416E+03  0.14362728434E+04  0.15294330000E+03 0.  0.
<mgrwt>
<rscale>  0 0.12552168E+04</rscale>
<asrwt>0</asrwt>
<pdfrwt beam="1">  1        1 0.24847505E+00 0.12996613E+04</pdfrwt>
<pdfrwt beam="2">  1       -1 0.18540401E+00 0.12996613E+04</pdfrwt>
<totfact> 0.10047530E+00</totfact>
</mgrwt>
</event>
<event>
 4    5  0.1074803E-007  0.8407630E+03  0.7818608E-02  0.9628743E-01
         -1   -1    0    0    0  501 -0.00000000000E+00  0.00000000000E+00  0.23099430738E+04  0.23099430738E+04  0.50400000000E-02 0.  1.
          1   -1    0    0  501    0  0.00000000000E+00 -0.00000000000E+00 -0.12996842870E+04  0.12996842870E+04  0.50400000000E-02 0. -1.
    8880023    1    1    2    0    0  0.46147416477E+03 -0.24518131841E+03 -0.11258930808E+04  0.14051753340E+04  0.65864270000E+03 0. -1.
    8880022    1    1    2    0    0 -0.46147416477E+03  0.24518131841E+03  0.21361518677E+04  0.22044520268E+04  0.15294330000E+03 0.  0.
<mgrwt>
<rscale>  0 0.75422634E+03</rscale>
<asrwt>0</asrwt>
<pdfrwt beam="1">  1        1 0.19995143E+00 0.84076304E+03</pdfrwt>
<pdfrwt beam="2">  1       -1 0.35537585E+00 0.84076304E+03</pdfrwt>
<totfact> 0.13690440E-01</totfact>
</mgrwt>
</event>
<event>
 4    5  0.1074803E-007  0.7453494E+03  0.7818608E-02  0.9844630E-01
         -1   -1    0    0    0  501 -0.00000000000E+00  0.00000000000E+00  0.12855549761E+04  0.12855549761E+04  0.50400000000E-02 0.  1.
          1   -1    0    0  501    0  0.00000000000E+00 -0.00000000000E+00 -0.28931746575E+03  0.28931746579E+03  0.50400000000E-02 0. -1.
    8880023    1    1    2    0    0  0.22809888937E+02 -0.34815981381E+03  0.34710191340E+03  0.82220769367E+03  0.65864270000E+03 0.  1.
    8880022    1    1    2    0    0 -0.22809888937E+02  0.34815981381E+03  0.64913559699E+03  0.75266474826E+03  0.15294330000E+03 0. -1.
<mgrwt>
<rscale>  0 0.63021471E+03</rscale>
<asrwt>0</asrwt>
<pdfrwt beam="1">  1        1 0.44510379E-01 0.74534942E+03</pdfrwt>
<pdfrwt beam="2">  1       -1 0.19777769E+00 0.74534942E+03</pdfrwt>
<totfact> 0.14750164E+01</totfact>
</mgrwt>
</event>
<event>
 4    5  0.1074803E-007  0.9920892E+03  0.7818608E-02  0.9391981E-01
          1   -1    0    0  501    0  0.00000000000E+00  0.00000000000E+00  0.14934645351E+04  0.14934645351E+04  0.50400000000E-02 0. -1.
         -1   -1    0    0    0  501 -0.00000000000E+00 -0.00000000000E+00 -0.88587850830E+03  0.88587850832E+03  0.50400000000E-02 0.  1.
    8880023    1    1    2    0    0 -0.74147222310E+03  0.25488598071E+02  0.10957645699E+04  0.14781545674E+04  0.65864270000E+03 0.  0.
    8880022    1    1    2    0    0  0.74147222310E+03 -0.25488598071E+02 -0.48817854312E+03  0.90118847598E+03  0.15294330000E+03 0.  0.
<mgrwt>
<rscale>  0 0.92738532E+03</rscale>
<asrwt>0</asrwt>
<pdfrwt beam="1">  1        1 0.22976377E+00 0.99208918E+03</pdfrwt>
<pdfrwt beam="2">  1       -1 0.13628900E+00 0.99208918E+03</pdfrwt>
<totfact> 0.29905376E+00</totfact>
</mgrwt>
</event>
<event>
 4    5  0.1074803E-007  0.1131446E+04  0.7818608E-02  0.9226827E-01
          1   -1    0    0  501    0  0.00000000000E+00  0.00000000000E+00  0.12760698788E+04  0.12760698788E+04  0.50400000000E-02 0. -1.
         -1   -1    0    0    0  501 -0.00000000000E+00 -0.00000000000E+00 -0.10130050850E+04  0.10130050850E+04  0.50400000000E-02 0.  1.
    8880023    1    1    2    0    0 -0.13766089495E+03  0.90961997531E+03  0.62037864880E+03  0.12903638617E+04  0.65864270000E+03 0.  0.
    8880022    1    1    2    0    0  0.13766089495E+03 -0.90961997531E+03 -0.35731385498E+03  0.99871110210E+03  0.15294330000E+03 0.  0.
<mgrwt>
<rscale>  0 0.10780766E+04</rscale>
<asrwt>0</asrwt>
<pdfrwt beam="1">  1        1 0.19631844E+00 0.11314456E+04</pdfrwt>
<pdfrwt beam="2">  1       -1 0.15584694E+00 0.11314456E+04</pdfrwt>
<totfact> 0.29236269E+00</totfact>
</mgrwt>
</event>
<event>
 4    5  0.1074803E-007  0.6901808E+03  0.7818608E-02  0.1004067E+00
          1   -1    0    0  501    0  0.00000000000E+00  0.00000000000E+00  0.19878063953E+04  0.19878063953E+04  0.50400000000E-02 0. -1.
         -1   -1    0    0    0  501 -0.00000000000E+00 -0.00000000000E+00 -0.43219604452E+03  0.43219604455E+03  0.50400000000E-02 0.  1.
    8880023    1    1    2    0    0  0.31827800479E+02  0.20378025025E+03  0.18820896873E+04  0.20046473996E+04  0.65864270000E+03 0. -1.
    8880022    1    1    2    0    0 -0.31827800479E+02 -0.20378025025E+03 -0.32647933655E+03  0.41535504027E+03  0.15294330000E+03 0.  0.
<mgrwt>
<rscale>  0 0.53902441E+03</rscale>
<asrwt>0</asrwt>
<pdfrwt beam="1">  1        1 0.30581637E+00 0.69018085E+03</pdfrwt>
<pdfrwt beam="2">  1       -1 0.66491698E-01 0.69018085E+03</pdfrwt>
<totfact> 0.73683075E+00</totfact>
</mgrwt>
</event>
<event>
 4    5  0.1074803E-007  0.8540268E+03  0.7818608E-02  0.9604278E-01
          1   -1    0    0  501    0  0.00000000000E+00  0.00000000000E+00  0.79862587212E+03  0.79862587213E+03  0.50400000000E-02 0. -1.
         -1   -1    0    0    0  501 -0.00000000000E+00 -0.00000000000E+00 -0.83445541361E+03  0.83445541362E+03  0.50400000000E-02 0.  1.
    8880023    1    1    2    0    0 -0.54357322990E+03 -0.89266445006E+01 -0.41833970386E+03  0.95098362517E+03  0.65864270000E+03 0. -1.
    8880022    1    1    2    0    0  0.54357322990E+03  0.89266445006E+01  0.38251016237E+03  0.68209766059E+03  0.15294330000E+03 0.  0.
<mgrwt>
<rscale>  0 0.77013664E+03</rscale>
<asrwt>0</asrwt>
<pdfrwt beam="1">  1        1 0.12286552E+00 0.85402678E+03</pdfrwt>
<pdfrwt beam="2">  1       -1 0.12837776E+00 0.85402678E+03</pdfrwt>
<totfact> 0.11807599E+01</totfact>
</mgrwt>
</event>
<event>
 4    5  0.1074803E-007  0.7211720E+03  0.7818608E-02  0.9918640E-01
         -1   -1    0    0    0  501 -0.00000000000E+00  0.00000000000E+00  0.36304767113E+03  0.36304767117E+03  0.50400000000E-02 0.  1.
          1   -1    0    0  501    0  0.00000000000E+00 -0.00000000000E+00 -0.11283003803E+04  0.11283003803E+04  0.50400000000E-02 0. -1.
    8880023    1    1    2    0    0 -0.12565966745E+03  0.26549665616E+03 -0.88281487038E+03  0.11399347034E+04  0.65864270000E+03 0. -1.
    8880022    1    1    2    0    0  0.12565966745E+03 -0.26549665616E+03  0.11756216118E+03  0.35141334808E+03  0.15294330000E+03 0.  0.
<mgrwt>
<rscale>  0 0.59366351E+03</rscale>
<asrwt>0</asrwt>
<pdfrwt beam="1">  1        1 0.17358467E+00 0.72117199E+03</pdfrwt>
<pdfrwt beam="2">  1       -1 0.55853488E-01 0.72117199E+03</pdfrwt>
<totfact> 0.40306546E+01</totfact>
</mgrwt>
</event>
<event>
 4    5  0.1074803E-007  0.1008649E+04  0.7818608E-02  0.9370329E-01
          1   -1    0    0  501    0  0.00000000000E+00  0.00000000000E+00  0.11399386513E+04  0.11399386513E+04  0.50400000000E-02 0. -1.
         -1   -1    0    0    0  501 -0.00000000000E+00 -0.00000000000E+00 -0.11241929280E+04  0.11241929280E+04  0.50400000000E-02 0.  1.
    8880023    1    1    2    0    0 -0.50074988680E+03  0.57689886564E+03  0.69957879115E+03  0.12275110760E+04  0.65864270000E+03 0. -1.
    8880022    1    1    2    0    0  0.50074988680E+03 -0.57689886564E+03 -0.68383306788E+03  0.10366205034E+04  0.15294330000E+03 0.  0.
<mgrwt>
<rscale>  0 0.94558283E+03</rscale>
<asrwt>0</asrwt>
<pdfrwt beam="1">  1        1 0.17537518E+00 0.10086491E+04</pdfrwt>
<pdfrwt beam="2">  1       -1 0.17295276E+00 0.10086491E+04</pdfrwt>
<totfact> 0.27774348E+00</totfact>
</mgrwt>
</event>
<event>
 4    5  0.1074803E-007  0.1524686E+04  0.7818608E-02  0.8892398E-01
         -1   -1    0    0    0  501 -0.00000000000E+00  0.00000000000E+00  0.18722995856E+04  0.18722995856E+04  0.50400000000E-02 0.  1.
          1   -1    0    0  501    0  0.00000000000E+00 -0.00000000000E+00 -0.20742713249E+04  0.20742713249E+04  0.50400000000E-02 0. -1.
    8880023    1    1    2    0    0 -0.13212180889E+04  0.38110542906E+03 -0.14346491216E+04  0.20935345459E+04  0.65864270000E+03 0. -1.
    8880022    1    1    2    0    0  0.13212180889E+04 -0.38110542906E+03  0.12326773823E+04  0.18530363646E+04  0.15294330000E+03 0.  1.
<mgrwt>
<rscale>  0 0.14881107E+04</rscale>
<asrwt>0</asrwt>
<pdfrwt beam="1">  1        1 0.31911866E+00 0.15246865E+04</pdfrwt>
<pdfrwt beam="2">  1       -1 0.28804609E+00 0.15246865E+04</pdfrwt>
<totfact> 0.98455530E-02</totfact>
</mgrwt>
</event>
<event>
 4    5  0.1074803E-007  0.6874030E+03  0.7818608E-02  0.1005412E+00
          1   -1    0    0  501    0  0.00000000000E+00  0.00000000000E+00  0.24899861561E+04  0.24899861561E+04  0.50400000000E-02 0. -1.
         -1   -1    0    0    0  501 -0.00000000000E+00 -0.00000000000E+00 -0.27510457602E+03  0.27510457606E+03  0.50400000000E-02 0.  1.
    8880023    1    1    2    0    0  0.96263780145E+02 -0.17159835166E+03  0.23725967373E+04  0.24701696690E+04  0.65864270000E+03 0. -1.
    8880022    1    1    2    0    0 -0.96263780145E+02  0.17159835166E+03 -0.15771515721E+03  0.29492106315E+03  0.15294330000E+03 0.  0.
<mgrwt>
<rscale>  0 0.53339488E+03</rscale>
<asrwt>0</asrwt>
<pdfrwt beam="1">  1        1 0.38307478E+00 0.68740302E+03</pdfrwt>
<pdfrwt beam="2">  1       -1 0.42323782E-01 0.68740302E+03</pdfrwt>
<totfact> 0.80620203E+00</totfact>
</mgrwt>
</event>
<event>
 4    5  0.1074803E-007  0.7567731E+03  0.7818608E-02  0.9813534E-01
          1   -1    0    0  501    0  0.00000000000E+00  0.00000000000E+00  0.18624895202E+04  0.18624895202E+04  0.50400000000E-02 0. -1.
         -1   -1    0    0    0  501 -0.00000000000E+00 -0.00000000000E+00 -0.89773143890E+03  0.89773143891E+03  0.50400000000E-02 0.  1.
    8880023    1    1    2    0    0 -0.94844755713E+02 -0.36041617423E+03  0.17339617931E+04  0.18919114811E+04  0.65864270000E+03 0.  0.
    8880022    1    1    2    0    0  0.94844755713E+02  0.36041617423E+03 -0.76920371177E+03  0.86830947798E+03  0.15294330000E+03 0.  0.
<mgrwt>
<rscale>  0 0.64641249E+03</rscale>
<asrwt>0</asrwt>
<pdfrwt beam="1">  1        1 0.28653684E+00 0.75677312E+03</pdfrwt>
<pdfrwt beam="2">  1       -1 0.13811253E+00 0.75677312E+03</pdfrwt>
<totfact> 0.16876092E+00</totfact>
</mgrwt>
</event>
<event>
 4    5  0.1074803E-007  0.7039040E+03  0.7818608E-02  0.9981376E-01
          1   -1    0    0  501    0  0.00000000000E+00  0.00000000000E+00  0.18922979007E+04  0.18922979007E+04  0.50400000000E-02 0. -1.
         -1   -1    0    0    0  501 -0.00000000000E+00 -0.00000000000E+00 -0.12342422361E+04  0.12342422361E+04  0.50400000000E-02 0.  1.
    8880023    1    1    2    0    0 -0.21132344173E+03 -0.13043399168E+03  0.18079972851E+04  0.19401894270E+04  0.65864270000E+03 0. -1.
    8880022    1    1    2    0    0  0.21132344173E+03  0.13043399168E+03 -0.11499416205E+04  0.11863507099E+04  0.15294330000E+03 0.  0.
<mgrwt>
<rscale>  0 0.56474474E+03</rscale>
<asrwt>0</asrwt>
<pdfrwt beam="1">  1        1 0.29112275E+00 0.70390399E+03</pdfrwt>
<pdfrwt beam="2">  1       -1 0.18988342E+00 0.70390399E+03</pdfrwt>
<totfact> 0.66913584E-01</totfact>
</mgrwt>
</event>
<event>
 4    5  0.1074803E-007  0.6815345E+03  0.7818608E-02  0.1008469E+00
          1   -1    0    0  501    0  0.00000000000E+00  0.00000000000E+00  0.36039276588E+03  0.36039276592E+03  0.50400000000E-02 0. -1.
         -1   -1    0    0    0  501 -0.00000000000E+00 -0.00000000000E+00 -0.79118890259E+03  0.79118890261E+03  0.50400000000E-02 0.  1.
    8880023    1    1    2    0    0 -0.10285138986E+03  0.14177674188E+03 -0.22730527531E+02  0.68191343738E+03  0.65864270000E+03 0. -1.
    8880022    1    1    2    0    0  0.10285138986E+03 -0.14177674188E+03 -0.40806560918E+03  0.46966823114E+03  0.15294330000E+03 0.  0.
<mgrwt>
<rscale>  0 0.52087814E+03</rscale>
<asrwt>0</asrwt>
<pdfrwt beam="1">  1        1 0.55445041E-01 0.68153449E+03</pdfrwt>
<pdfrwt beam="2">  1       -1 0.12172137E+00 0.68153449E+03</pdfrwt>
<totfact> 0.42324539E+01</totfact>
</mgrwt>
</event>
<event>
 4    5  0.1074803E-007  0.1838386E+04  0.7818608E-02  0.8701595E-01
         -1   -1    0    0    0  501 -0.00000000000E+00  0.00000000000E+00  0.16837138247E+04  0.16837138247E+04  0.50400000000E-02 0.  1.
          1   -1    0    0  501    0  0.00000000000E+00 -0.00000000000E+00 -0.23979787089E+04  0.23979787089E+04  0.50400000000E-02 0. -1.
    8880023    1    1    2    0    0 -0.17159394908E+04  0.37485185846E+02 -0.13111997182E+04  0.22580762570E+04  0.65864270000E+03 0.  0.
    8880022    1    1    2    0    0  0.17159394908E+04 -0.37485185846E+02  0.59693483390E+03  0.18236162766E+04  0.15294330000E+03 0.  0.
<mgrwt>
<rscale>  0 0.18088740E+04</rscale>
<asrwt>0</asrwt>
<pdfrwt beam="1">  1        1 0.36891980E+00 0.18383862E+04</pdfrwt>
<pdfrwt beam="2">  1       -1 0.25903290E+00 0.18383862E+04</pdfrwt>
<totfact> 0.87921386E-02</totfact>
</mgrwt>
</event>
<event>
 4    5  0.1074803E-007  0.8094082E+03  0.7818608E-02  0.9690811E-01
         -1   -1    0    0    0  501 -0.00000000000E+00  0.00000000000E+00  0.53654882276E+03  0.53654882278E+03  0.50400000000E-02 0.  1.
          1   -1    0    0  501    0  0.00000000000E+00 -0.00000000000E+00 -0.12865331775E+04  0.12865331775E+04  0.50400000000E-02 0. -1.
    8880023    1    1    2    0    0  0.45954386034E+03  0.10075153230E+03 -0.98541714371E+03  0.12752209943E+04  0.65864270000E+03 0. -1.
    8880022    1    1    2    0    0 -0.45954386034E+03 -0.10075153230E+03  0.23543278894E+03  0.54786100606E+03  0.15294330000E+03 0.  0.
<mgrwt>
<rscale>  0 0.71566548E+03</rscale>
<asrwt>0</asrwt>
<pdfrwt beam="1">  1        1 0.19792818E+00 0.80940820E+03</pdfrwt>
<pdfrwt beam="2">  1       -1 0.82545973E-01 0.80940820E+03</pdfrwt>
<totfact> 0.13841141E+01</totfact>
</mgrwt>
</event>
<event>
 4    5  0.1074803E-007  0.8193848E+03  0.7818608E-02  0.9670350E-01
          1   -1    0    0  501    0  0.00000000000E+00  0.00000000000E+00  0.17330120900E+04  0.17330120900E+04  0.50400000000E-02 0. -1.
         -1   -1    0    0    0  501 -0.00000000000E+00 -0.00000000000E+00 -0.11372610589E+04  0.11372610589E+04  0.50400000000E-02 0.  1.
    8880023    1    1    2    0    0 -0.31100782353E+03 -0.37530695877E+03  0.15695793297E+04  0.17705848350E+04  0.65864270000E+03 0. -1.
    8880022    1    1    2    0    0  0.31100782353E+03  0.37530695877E+03 -0.97382829854E+03  0.10996883139E+04  0.15294330000E+03 0.  0.
<mgrwt>
<rscale>  0 0.72809882E+03</rscale>
<asrwt>0</asrwt>
<pdfrwt beam="1">  1        1 0.26661724E+00 0.81938476E+03</pdfrwt>
<pdfrwt beam="2">  1       -1 0.17496324E+00 0.81938476E+03</pdfrwt>
<totfact> 0.10651635E+00</totfact>
</mgrwt>
</event>
<event>
 4    5  0.1074803E-007  0.6953501E+03  0.7818608E-02  0.1001707E+00
         -1   -1    0    0    0  501 -0.00000000000E+00  0.00000000000E+00  0.31942372847E+03  0.31942372850E+03  0.50400000000E-02 0.  1.
          1   -1    0    0  501    0  0.00000000000E+00 -0.00000000000E+00 -0.77409476727E+03  0.77409476728E+03  0.50400000000E-02 0. -1.
    8880023    1    1    2    0    0  0.92084029700E+02  0.20303208522E+03 -0.43978189651E+03  0.82275137126E+03  0.65864270000E+03 0. -1.
    8880022    1    1    2    0    0 -0.92084029700E+02 -0.20303208522E+03 -0.14889142297E+02  0.27076712453E+03  0.15294330000E+03 0. -1.
<mgrwt>
<rscale>  0 0.54908200E+03</rscale>
<asrwt>0</asrwt>
<pdfrwt beam="1">  1        1 0.11909150E+00 0.69535006E+03</pdfrwt>
<pdfrwt beam="2">  1       -1 0.49142112E-01 0.69535006E+03</pdfrwt>
<totfact> 0.98883774E+01</totfact>
</mgrwt>
</event>
<event>
 4    5  0.1074803E-007  0.9279271E+03  0.7818608E-02  0.9482610E-01
         -1   -1    0    0    0  501 -0.00000000000E+00  0.00000000000E+00  0.11047304748E+04  0.11047304748E+04  0.50400000000E-02 0.  1.
          1   -1    0    0  501    0  0.00000000000E+00 -0.00000000000E+00 -0.63243109491E+03  0.63243109493E+03  0.50400000000E-02 0. -1.
    8880023    1    1    2    0    0  0.32848297489E+03 -0.56509946225E+03  0.20798333842E+02  0.92816013919E+03  0.65864270000E+03 0. -1.
    8880022    1    1    2    0    0 -0.32848297489E+03  0.56509946225E+03  0.45150104601E+03  0.80900143052E+03  0.15294330000E+03 0.  0.
<mgrwt>
<rscale>  0 0.85578154E+03</rscale>
<asrwt>0</asrwt>
<pdfrwt beam="1">  1        1 0.97297092E-01 0.92792708E+03</pdfrwt>
<pdfrwt beam="2">  1       -1 0.16995853E+00 0.92792708E+03</pdfrwt>
<totfact> 0.78909331E+00</totfact>
</mgrwt>
</event>
<event>
 4    5  0.1074803E-007  0.1326371E+04  0.7818608E-02  0.9043115E-01
          1   -1    0    0  501    0  0.00000000000E+00  0.00000000000E+00  0.10258833022E+04  0.10258833022E+04  0.50400000000E-02 0. -1.
         -1   -1    0    0    0  501 -0.00000000000E+00 -0.00000000000E+00 -0.17396220389E+04  0.17396220389E+04  0.50400000000E-02 0.  1.
    8880023    1    1    2    0    0  0.10595310400E+04  0.45038180562E+03 -0.88074990655E+03  0.15921621776E+04  0.65864270000E+03 0.  1.
    8880022    1    1    2    0    0 -0.10595310400E+04 -0.45038180562E+03  0.16701116980E+03  0.11733431635E+04  0.15294330000E+03 0. -1.
<mgrwt>
<rscale>  0 0.12830509E+04</rscale>
<asrwt>0</asrwt>
<pdfrwt beam="1">  1        1 0.15782820E+00 0.13263710E+04</pdfrwt>
<pdfrwt beam="2">  1       -1 0.26763416E+00 0.13263710E+04</pdfrwt>
<totfact> 0.74883068E-01</totfact>
</mgrwt>
</event>
