<event>
 4    3  0.4009700E+000  0.2175456E+03  0.7546771E-02  0.1135726E+00
         21   -1    0    0  501  502  0.00000000000E+00  0.00000000000E+00  0.13107467564E+03  0.13107467564E+03  0.00000000000E+00 0.  1.
         21   -1    0    0  502  503 -0.00000000000E+00 -0.00000000000E+00 -0.53864049688E+03  0.53864049688E+03  0.00000000000E+00 0.  1.
          6    1    1    2  501    0  0.25391831458E+02 -0.12943085512E+03 -0.11515461027E+02  0.21785017146E+03  0.17300000000E+03 0.  1.
         -6    1    1    2    0  503 -0.25391831458E+02  0.12943085512E+03 -0.39605036021E+03  0.45186500107E+03  0.17300000000E+03 0.  1.
<mgrwt>
<rscale>  2 0.21754561E+03</rscale>
<asrwt>0</asrwt>
<pdfrwt beam="1">  1       21 0.20165335E-01 0.21754561E+03</pdfrwt>
<pdfrwt beam="2">  1       21 0.82867768E-01 0.21754561E+03</pdfrwt>
<totfact> 0.28467588E+04</totfact>
</mgrwt>
</event>
<event>
 4    3  0.4009700E+000  0.1784348E+03  0.7546771E-02  0.1169326E+00
         21   -1    0    0  501  502  0.00000000000E+00  0.00000000000E+00  0.57979983349E+02  0.57979983349E+02  0.00000000000E+00 0.  1.
         21   -1    0    0  502  503 -0.00000000000E+00 -0.00000000000E+00 -0.54914757862E+03  0.54914757862E+03  0.00000000000E+00 0.  1.
          6    1    1    2  501    0 -0.36273230031E+02 -0.24376918453E+02 -0.24428138009E+03  0.30251012219E+03  0.17300000000E+03 0.  1.
         -6    1    1    2    0  503  0.36273230031E+02  0.24376918453E+02 -0.24688621518E+03  0.30461743978E+03  0.17300000000E+03 0.  1.
<mgrwt>
<rscale>  2 0.17843481E+03</rscale>
<asrwt>0</asrwt>
<pdfrwt beam="1">  1       21 0.89199975E-02 0.17843481E+03</pdfrwt>
<pdfrwt beam="2">  1       21 0.84484242E-01 0.17843481E+03</pdfrwt>
<totfact> 0.12120479E+05</totfact>
</mgrwt>
</event>
<event>
 4    3  0.4009700E+000  0.2322122E+03  0.7546771E-02  0.1125092E+00
         21   -1    0    0  503  502  0.00000000000E+00  0.00000000000E+00  0.17251243881E+03  0.17251243881E+03  0.00000000000E+00 0. -1.
         21   -1    0    0  501  503 -0.00000000000E+00 -0.00000000000E+00 -0.43159402244E+03  0.43159402244E+03  0.00000000000E+00 0.  1.
          6    1    1    2  501    0 -0.15045161898E+03  0.36848532543E+02 -0.28816154533E+03  0.37008050505E+03  0.17300000000E+03 0.  1.
         -6    1    1    2    0  502  0.15045161898E+03 -0.36848532543E+02  0.29079961709E+02  0.23402595621E+03  0.17300000000E+03 0. -1.
<mgrwt>
<rscale>  2 0.23221220E+03</rscale>
<asrwt>0</asrwt>
<pdfrwt beam="1">  1       21 0.26540375E-01 0.23221220E+03</pdfrwt>
<pdfrwt beam="2">  1       21 0.66399080E-01 0.23221220E+03</pdfrwt>
<totfact> 0.27516932E+04</totfact>
</mgrwt>
</event>
<event>
 4    3  0.4009700E+000  0.1811785E+03  0.7546771E-02  0.1166667E+00
         21   -1    0    0  503  502  0.00000000000E+00  0.00000000000E+00  0.76395140874E+03  0.76395140874E+03  0.00000000000E+00 0. -1.
         21   -1    0    0  501  503 -0.00000000000E+00 -0.00000000000E+00 -0.93347437727E+02  0.93347437727E+02  0.00000000000E+00 0. -1.
          6    1    1    2  501    0  0.44302617619E+02  0.30560106725E+02  0.20399058691E+02  0.18232323946E+03  0.17300000000E+03 0. -1.
         -6    1    1    2    0  502 -0.44302617619E+02 -0.30560106725E+02  0.65020491232E+03  0.67497560701E+03  0.17300000000E+03 0. -1.
<mgrwt>
<rscale>  2 0.18117848E+03</rscale>
<asrwt>0</asrwt>
<pdfrwt beam="1">  1       21 0.11753098E+00 0.18117848E+03</pdfrwt>
<pdfrwt beam="2">  1       21 0.14361145E-01 0.18117848E+03</pdfrwt>
<totfact> 0.23768373E+04</totfact>
</mgrwt>
</event>
<event>
 4    3  0.4009700E+000  0.1789570E+03  0.7546771E-02  0.1168816E+00
         21   -1    0    0  501  502  0.00000000000E+00  0.00000000000E+00  0.28575200521E+03  0.28575200521E+03  0.00000000000E+00 0. -1.
         21   -1    0    0  502  503 -0.00000000000E+00 -0.00000000000E+00 -0.11516525718E+03  0.11516525718E+03  0.00000000000E+00 0. -1.
          6    1    1    2  501    0 -0.18615583188E+02  0.41833769974E+02  0.52455573988E+02  0.18648643782E+03  0.17300000000E+03 0. -1.
         -6    1    1    2    0  503  0.18615583188E+02 -0.41833769974E+02  0.11813117404E+03  0.21443082457E+03  0.17300000000E+03 0. -1.
<mgrwt>
<rscale>  2 0.17895699E+03</rscale>
<asrwt>0</asrwt>
<pdfrwt beam="1">  1       21 0.43961847E-01 0.17895699E+03</pdfrwt>
<pdfrwt beam="2">  1       21 0.17717732E-01 0.17895699E+03</pdfrwt>
<totfact> 0.14434697E+05</totfact>
</mgrwt>
</event>
<event>
 4    3  0.4009700E+000  0.1946154E+03  0.7546771E-02  0.1154363E+00
         21   -1    0    0  501  502  0.00000000000E+00  0.00000000000E+00  0.20369385743E+03  0.20369385743E+03  0.00000000000E+00 0.  1.
         21   -1    0    0  502  503 -0.00000000000E+00 -0.00000000000E+00 -0.72040256306E+03  0.72040256306E+03  0.00000000000E+00 0. -1.
          6    1    1    2  501    0 -0.18216092287E+02  0.87260047433E+02  0.13962239824E+03  0.23951942716E+03  0.17300000000E+03 0.  1.
         -6    1    1    2    0  503  0.18216092287E+02 -0.87260047433E+02 -0.65633110386E+03  0.68457699333E+03  0.17300000000E+03 0. -1.
<mgrwt>
<rscale>  2 0.19461537E+03</rscale>
<asrwt>0</asrwt>
<pdfrwt beam="1">  1       21 0.31337517E-01 0.19461537E+03</pdfrwt>
<pdfrwt beam="2">  1       21 0.11083116E+00 0.19461537E+03</pdfrwt>
<totfact> 0.62663225E+03</totfact>
</mgrwt>
</event>
<event>
 4    3  0.4009700E+000  0.2853783E+03  0.7546771E-02  0.1092787E+00
         21   -1    0    0  503  502  0.00000000000E+00  0.00000000000E+00  0.46649468514E+03  0.46649468514E+03  0.00000000000E+00 0.  1.
         21   -1    0    0  501  503 -0.00000000000E+00 -0.00000000000E+00 -0.17621859345E+03  0.17621859345E+03  0.00000000000E+00 0. -1.
          6    1    1    2  501    0  0.22657650494E+03 -0.13223613646E+02  0.11415252280E+03  0.30736228625E+03  0.17300000000E+03 0.  1.
         -6    1    1    2    0  502 -0.22657650494E+03  0.13223613646E+02  0.17612356888E+03  0.33535099234E+03  0.17300000000E+03 0. -1.
<mgrwt>
<rscale>  2 0.28537830E+03</rscale>
<asrwt>0</asrwt>
<pdfrwt beam="1">  1       21 0.71768412E-01 0.28537830E+03</pdfrwt>
<pdfrwt beam="2">  1       21 0.27110553E-01 0.28537830E+03</pdfrwt>
<totfact> 0.21701251E+04</totfact>
</mgrwt>
</event>
<event>
 4    3  0.4009700E+000  0.1940313E+03  0.7546771E-02  0.1154875E+00
         21   -1    0    0  503  502  0.00000000000E+00  0.00000000000E+00  0.14399619229E+02  0.14399619229E+02  0.00000000000E+00 0.  1.
         21   -1    0    0  501  503 -0.00000000000E+00 -0.00000000000E+00 -0.32005224473E+04  0.32005224473E+04  0.00000000000E+00 0.  1.
          6    1    1    2  501    0  0.75605476593E+02 -0.44754508090E+02 -0.90523611704E+03  0.92579726814E+03  0.17300000000E+03 0.  1.
         -6    1    1    2    0  502 -0.75605476593E+02  0.44754508090E+02 -0.22808867110E+04  0.22891247984E+04  0.17300000000E+03 0.  1.
<mgrwt>
<rscale>  2 0.19403132E+03</rscale>
<asrwt>0</asrwt>
<pdfrwt beam="1">  1       21 0.22153270E-02 0.19403132E+03</pdfrwt>
<pdfrwt beam="2">  1       21 0.49238787E+00 0.19403132E+03</pdfrwt>
<totfact> 0.22254893E+03</totfact>
</mgrwt>
</event>
<event>
 4    3  0.4009700E+000  0.1777456E+03  0.7546771E-02  0.1170003E+00
         21   -1    0    0  503  502  0.00000000000E+00  0.00000000000E+00  0.23691758340E+03  0.23691758340E+03  0.00000000000E+00 0. -1.
         21   -1    0    0  501  503 -0.00000000000E+00 -0.00000000000E+00 -0.15937345611E+03  0.15937345611E+03  0.00000000000E+00 0. -1.
          6    1    1    2  501    0  0.39005727239E+02  0.11959927629E+02  0.11883659959E+03  0.21381212320E+03  0.17300000000E+03 0. -1.
         -6    1    1    2    0  502 -0.39005727239E+02 -0.11959927629E+02 -0.41292472298E+02  0.18247891630E+03  0.17300000000E+03 0. -1.
<mgrwt>
<rscale>  2 0.17774557E+03</rscale>
<asrwt>0</asrwt>
<pdfrwt beam="1">  1       21 0.36448859E-01 0.17774557E+03</pdfrwt>
<pdfrwt beam="2">  1       21 0.24518993E-01 0.17774557E+03</pdfrwt>
<totfact> 0.11471528E+05</totfact>
</mgrwt>
</event>
<event>
 4    3  0.4009700E+000  0.1760462E+03  0.7546771E-02  0.1171685E+00
         21   -1    0    0  503  502  0.00000000000E+00  0.00000000000E+00  0.48240747018E+02  0.48240747018E+02  0.00000000000E+00 0. -1.
         21   -1    0    0  501  503 -0.00000000000E+00 -0.00000000000E+00 -0.77337753819E+03  0.77337753819E+03  0.00000000000E+00 0. -1.
          6    1    1    2  501    0  0.15509506522E+02  0.28683326132E+02 -0.53159671674E+03  0.55998870278E+03  0.17300000000E+03 0. -1.
         -6    1    1    2    0  502 -0.15509506522E+02 -0.28683326132E+02 -0.19354007443E+03  0.26162958242E+03  0.17300000000E+03 0. -1.
<mgrwt>
<rscale>  2 0.17604624E+03</rscale>
<asrwt>0</asrwt>
<pdfrwt beam="1">  1       21 0.74216537E-02 0.17604624E+03</pdfrwt>
<pdfrwt beam="2">  1       21 0.11898116E+00 0.17604624E+03</pdfrwt>
<totfact> 0.74317527E+04</totfact>
</mgrwt>
</event>
<event>
 4    3  0.4009700E+000  0.1769431E+03  0.7546771E-02  0.1170795E+00
         21   -1    0    0  503  502  0.00000000000E+00  0.00000000000E+00  0.84295157275E+02  0.84295157275E+02  0.00000000000E+00 0.  1.
         21   -1    0    0  501  503 -0.00000000000E+00 -0.00000000000E+00 -0.89185542397E+03  0.89185542397E+03  0.00000000000E+00 0.  1.
          6    1    1    2  501    0 -0.30716884802E+02 -0.20888541197E+02 -0.77662078698E+03  0.79652288413E+03  0.17300000000E+03 0.  1.
         -6    1    1    2    0  502  0.30716884802E+02  0.20888541197E+02 -0.30939479706E+02  0.17962769711E+03  0.17300000000E+03 0.  1.
<mgrwt>
<rscale>  2 0.17694309E+03</rscale>
<asrwt>0</asrwt>
<pdfrwt beam="1">  1       21 0.12968486E-01 0.17694309E+03</pdfrwt>
<pdfrwt beam="2">  1       21 0.13720853E+00 0.17694309E+03</pdfrwt>
<totfact> 0.19444625E+04</totfact>
</mgrwt>
</event>
<event>
 4    3  0.4009700E+000  0.2566010E+03  0.7546771E-02  0.1109203E+00
         21   -1    0    0  503  502  0.00000000000E+00  0.00000000000E+00  0.29069410460E+03  0.29069410460E+03  0.00000000000E+00 0. -1.
         21   -1    0    0  501  503 -0.00000000000E+00 -0.00000000000E+00 -0.23371232843E+03  0.23371232843E+03  0.00000000000E+00 0.  1.
          6    1    1    2  501    0  0.18523932495E+02 -0.18860518045E+03  0.74531889855E+02  0.26720601185E+03  0.17300000000E+03 0.  1.
         -6    1    1    2    0  502 -0.18523932495E+02  0.18860518045E+03 -0.17550113683E+02  0.25720042118E+03  0.17300000000E+03 0. -1.
<mgrwt>
<rscale>  2 0.25660096E+03</rscale>
<asrwt>0</asrwt>
<pdfrwt beam="1">  1       21 0.44722170E-01 0.25660096E+03</pdfrwt>
<pdfrwt beam="2">  1       21 0.35955743E-01 0.25660096E+03</pdfrwt>
<totfact> 0.34721932E+04</totfact>
</mgrwt>
</event>
<event>
 4    3  0.4009700E+000  0.2650820E+03  0.7546771E-02  0.1104128E+00
         21   -1    0    0  501  502  0.00000000000E+00  0.00000000000E+00  0.73724585556E+02  0.73724585556E+02  0.00000000000E+00 0.  1.
         21   -1    0    0  502  503 -0.00000000000E+00 -0.00000000000E+00 -0.98090752501E+03  0.98090752501E+03  0.00000000000E+00 0. -1.
          6    1    1    2  501    0  0.19531126147E+03 -0.46829220088E+02 -0.36484060447E+03  0.45097353734E+03  0.17300000000E+03 0. -1.
         -6    1    1    2    0  503 -0.19531126147E+03  0.46829220088E+02 -0.54234233499E+03  0.60365857323E+03  0.17300000000E+03 0.  1.
<mgrwt>
<rscale>  2 0.26508200E+03</rscale>
<asrwt>0</asrwt>
<pdfrwt beam="1">  1       21 0.11342244E-01 0.26508200E+03</pdfrwt>
<pdfrwt beam="2">  1       21 0.15090884E+00 0.26508200E+03</pdfrwt>
<totfact> 0.18276281E+04</totfact>
</mgrwt>
</event>
<event>
 4    3  0.4009700E+000  0.1992083E+03  0.7546771E-02  0.1150409E+00
         21   -1    0    0  501  502  0.00000000000E+00  0.00000000000E+00  0.88178496502E+02  0.88178496502E+02  0.00000000000E+00 0.  1.
         21   -1    0    0  502  503 -0.00000000000E+00 -0.00000000000E+00 -0.53020650288E+03  0.53020650288E+03  0.00000000000E+00 0. -1.
          6    1    1    2  501    0  0.54356785910E+02  0.82463738911E+02 -0.10078742035E+03  0.22325329227E+03  0.17300000000E+03 0.  1.
         -6    1    1    2    0  503 -0.54356785910E+02 -0.82463738911E+02 -0.34124058603E+03  0.39513170711E+03  0.17300000000E+03 0. -1.
<mgrwt>
<rscale>  2 0.19920825E+03</rscale>
<asrwt>0</asrwt>
<pdfrwt beam="1">  1       21 0.13565923E-01 0.19920825E+03</pdfrwt>
<pdfrwt beam="2">  1       21 0.81570230E-01 0.19920825E+03</pdfrwt>
<totfact> 0.61758459E+04</totfact>
</mgrwt>
</event>
<event>
 4    3  0.4009700E+000  0.1750492E+03  0.7546771E-02  0.1172682E+00
         21   -1    0    0  503  502  0.00000000000E+00  0.00000000000E+00  0.80294290337E+02  0.80294290337E+02  0.00000000000E+00 0. -1.
         21   -1    0    0  501  503 -0.00000000000E+00 -0.00000000000E+00 -0.12428308515E+04  0.12428308515E+04  0.00000000000E+00 0. -1.
          6    1    1    2  501    0 -0.48846888601E+01  0.26255852245E+02 -0.11319728073E+04  0.11454277220E+04  0.17300000000E+03 0. -1.
         -6    1    1    2    0  502  0.48846888601E+01 -0.26255852245E+02 -0.30563753903E+02  0.17769741983E+03  0.17300000000E+03 0. -1.
<mgrwt>
<rscale>  2 0.17504922E+03</rscale>
<asrwt>0</asrwt>
<pdfrwt beam="1">  1       21 0.12352969E-01 0.17504922E+03</pdfrwt>
<pdfrwt beam="2">  1       21 0.19120473E+00 0.17504922E+03</pdfrwt>
<totfact> 0.86641132E+03</totfact>
</mgrwt>
</event>
<event>
 4    3  0.4009700E+000  0.2077704E+03  0.7546771E-02  0.1143344E+00
         21   -1    0    0  503  502  0.00000000000E+00  0.00000000000E+00  0.15260756138E+03  0.15260756138E+03  0.00000000000E+00 0. -1.
         21   -1    0    0  501  503 -0.00000000000E+00 -0.00000000000E+00 -0.34709482517E+03  0.34709482517E+03  0.00000000000E+00 0. -1.
          6    1    1    2  501    0 -0.11491425277E+03  0.58524244346E+01 -0.20471658333E+03  0.29168033162E+03  0.17300000000E+03 0. -1.
         -6    1    1    2    0  502  0.11491425277E+03 -0.58524244346E+01  0.10229319539E+02  0.20802205494E+03  0.17300000000E+03 0. -1.
<mgrwt>
<rscale>  2 0.20777039E+03</rscale>
<asrwt>0</asrwt>
<pdfrwt beam="1">  1       21 0.23478087E-01 0.20777039E+03</pdfrwt>
<pdfrwt beam="2">  1       21 0.53399203E-01 0.20777039E+03</pdfrwt>
<totfact> 0.56265669E+04</totfact>
</mgrwt>
</event>
<event>
 4    3  0.4009700E+000  0.2233846E+03  0.7546771E-02  0.1131385E+00
         21   -1    0    0  503  502  0.00000000000E+00  0.00000000000E+00  0.52535987119E+03  0.52535987119E+03  0.00000000000E+00 0. -1.
         21   -1    0    0  501  503 -0.00000000000E+00 -0.00000000000E+00 -0.99702607000E+02  0.99702607000E+02  0.00000000000E+00 0. -1.
          6    1    1    2  501    0  0.13434237395E+03  0.43861135954E+02  0.14483681372E+03  0.26622992937E+03  0.17300000000E+03 0. -1.
         -6    1    1    2    0  502 -0.13434237395E+03 -0.43861135954E+02  0.28082045047E+03  0.35883254882E+03  0.17300000000E+03 0. -1.
<mgrwt>
<rscale>  2 0.22338458E+03</rscale>
<asrwt>0</asrwt>
<pdfrwt beam="1">  1       21 0.80824594E-01 0.22338458E+03</pdfrwt>
<pdfrwt beam="2">  1       21 0.15338863E-01 0.22338458E+03</pdfrwt>
<totfact> 0.49867084E+04</totfact>
</mgrwt>
</event>
<event>
 4    3  0.4009700E+000  0.2119812E+03  0.7546771E-02  0.1140007E+00
         21   -1    0    0  501  502  0.00000000000E+00  0.00000000000E+00  0.51065361430E+02  0.51065361430E+02  0.00000000000E+00 0. -1.
         21   -1    0    0  502  503 -0.00000000000E+00 -0.00000000000E+00 -0.88475862375E+03  0.88475862375E+03  0.00000000000E+00 0. -1.
          6    1    1    2  501    0 -0.11570700892E+03 -0.40235521886E+02 -0.45126867661E+03  0.49857740384E+03  0.17300000000E+03 0. -1.
         -6    1    1    2    0  503  0.11570700892E+03  0.40235521886E+02 -0.38242458571E+03  0.43724658134E+03  0.17300000000E+03 0. -1.
<mgrwt>
<rscale>  2 0.21198115E+03</rscale>
<asrwt>0</asrwt>
<pdfrwt beam="1">  1       21 0.78562104E-02 0.21198115E+03</pdfrwt>
<pdfrwt beam="2">  1       21 0.13611670E+00 0.21198115E+03</pdfrwt>
<totfact> 0.47139898E+04</totfact>
</mgrwt>
</event>
<event>
 4    3  0.4009700E+000  0.1760438E+03  0.7546771E-02  0.1171688E+00
         21   -1    0    0  501  502  0.00000000000E+00  0.00000000000E+00  0.71570412994E+03  0.71570412994E+03  0.00000000000E+00 0. -1.
         21   -1    0    0  502  503 -0.00000000000E+00 -0.00000000000E+00 -0.75867351005E+02  0.75867351005E+02  0.00000000000E+00 0. -1.
          6    1    1    2  501    0 -0.25045774485E+02  0.20859640851E+02  0.57922322135E+03  0.60538496478E+03  0.17300000000E+03 0.  1.
         -6    1    1    2    0  503  0.25045774485E+02 -0.20859640851E+02  0.60613557582E+02  0.18618651616E+03  0.17300000000E+03 0.  1.
<mgrwt>
<rscale>  2 0.17604379E+03</rscale>
<asrwt>0</asrwt>
<pdfrwt beam="1">  1       21 0.11010832E+00 0.17604379E+03</pdfrwt>
<pdfrwt beam="2">  1       21 0.11671901E-01 0.17604379E+03</pdfrwt>
<totfact> 0.40538866E+04</totfact>
</mgrwt>
</event>
<event>
 4    3  0.4009700E+000  0.2181142E+03  0.7546771E-02  0.1135297E+00
         21   -1    0    0  503  502  0.00000000000E+00  0.00000000000E+00  0.19932258008E+03  0.19932258008E+03  0.00000000000E+00 0. -1.
         21   -1    0    0  501  503 -0.00000000000E+00 -0.00000000000E+00 -0.26344686450E+03  0.26344686450E+03  0.00000000000E+00 0. -1.
          6    1    1    2  501    0 -0.18429591411E+02  0.13154909938E+03 -0.10301102859E+03  0.24121585229E+03  0.17300000000E+03 0. -1.
         -6    1    1    2    0  502  0.18429591411E+02 -0.13154909938E+03  0.38886744167E+02  0.22155359229E+03  0.17300000000E+03 0. -1.
<mgrwt>
<rscale>  2 0.21811423E+03</rscale>
<asrwt>0</asrwt>
<pdfrwt beam="1">  1       21 0.30665012E-01 0.21811423E+03</pdfrwt>
<pdfrwt beam="2">  1       21 0.40530287E-01 0.21811423E+03</pdfrwt>
<totfact> 0.59193243E+04</totfact>
</mgrwt>
</event>
<event>
 4    3  0.4009700E+000  0.1761385E+03  0.7546771E-02  0.1171593E+00
         21   -1    0    0  501  502  0.00000000000E+00  0.00000000000E+00  0.32068911637E+03  0.32068911637E+03  0.00000000000E+00 0. -1.
         21   -1    0    0  502  503 -0.00000000000E+00 -0.00000000000E+00 -0.98219307036E+02  0.98219307036E+02  0.00000000000E+00 0. -1.
          6    1    1    2  501    0  0.26452985116E+02  0.19900434466E+02  0.85565630684E+02  0.19582202345E+03  0.17300000000E+03 0.  1.
         -6    1    1    2    0  503 -0.26452985116E+02 -0.19900434466E+02  0.13690417865E+03  0.22308639995E+03  0.17300000000E+03 0.  1.
<mgrwt>
<rscale>  2 0.17613855E+03</rscale>
<asrwt>0</asrwt>
<pdfrwt beam="1">  1       21 0.49336786E-01 0.17613855E+03</pdfrwt>
<pdfrwt beam="2">  1       21 0.15110663E-01 0.17613855E+03</pdfrwt>
<totfact> 0.15246594E+05</totfact>
</mgrwt>
</event>
<event>
 4    3  0.4009700E+000  0.2290485E+03  0.7546771E-02  0.1127311E+00
         21   -1    0    0  503  502  0.00000000000E+00  0.00000000000E+00  0.41723675684E+03  0.41723675684E+03  0.00000000000E+00 0.  1.
         21   -1    0    0  501  503 -0.00000000000E+00 -0.00000000000E+00 -0.12574033413E+03  0.12574033413E+03  0.00000000000E+00 0.  1.
          6    1    1    2  501    0  0.15005778223E+03 -0.41097980227E+01  0.14635348462E+03  0.27181348551E+03  0.17300000000E+03 0.  1.
         -6    1    1    2    0  502 -0.15005778223E+03  0.41097980227E+01  0.14514293810E+03  0.27116360546E+03  0.17300000000E+03 0.  1.
<mgrwt>
<rscale>  2 0.22904853E+03</rscale>
<asrwt>0</asrwt>
<pdfrwt beam="1">  1       21 0.64190270E-01 0.22904853E+03</pdfrwt>
<pdfrwt beam="2">  1       21 0.19344667E-01 0.22904853E+03</pdfrwt>
<totfact> 0.54098925E+04</totfact>
</mgrwt>
</event>
<event>
 4    3  0.4009700E+000  0.3314715E+03  0.7546771E-02  0.1070488E+00
         21   -1    0    0  501  502  0.00000000000E+00  0.00000000000E+00  0.61210479508E+03  0.61210479508E+03  0.00000000000E+00 0. -1.
         21   -1    0    0  502  503 -0.00000000000E+00 -0.00000000000E+00 -0.18329554882E+03  0.18329554882E+03  0.00000000000E+00 0.  1.
          6    1    1    2  501    0  0.21649296102E+03 -0.18186575402E+03  0.15718219737E+03  0.36685092044E+03  0.17300000000E+03 0.  1.
         -6    1    1    2    0  503 -0.21649296102E+03  0.18186575402E+03  0.27162704889E+03  0.42854942346E+03  0.17300000000E+03 0.  1.
<mgrwt>
<rscale>  2 0.33147150E+03</rscale>
<asrwt>0</asrwt>
<pdfrwt beam="1">  1       21 0.94169968E-01 0.33147150E+03</pdfrwt>
<pdfrwt beam="2">  1       21 0.28199315E-01 0.33147150E+03</pdfrwt>
<totfact> 0.10548109E+04</totfact>
</mgrwt>
</event>
<event>
 4    3  0.4009700E+000  0.2072667E+03  0.7546771E-02  0.1143749E+00
         21   -1    0    0  501  502  0.00000000000E+00  0.00000000000E+00  0.24173657007E+03  0.24173657007E+03  0.00000000000E+00 0. -1.
         21   -1    0    0  502  503 -0.00000000000E+00 -0.00000000000E+00 -0.27978646761E+03  0.27978646761E+03  0.00000000000E+00 0.  1.
          6    1    1    2  501    0 -0.60543788065E+02 -0.96772639870E+02  0.13847799280E+03  0.24927023206E+03  0.17300000000E+03 0. -1.
         -6    1    1    2    0  503  0.60543788065E+02  0.96772639870E+02 -0.17652789034E+03  0.27225280562E+03  0.17300000000E+03 0.  1.
<mgrwt>
<rscale>  2 0.20726672E+03</rscale>
<asrwt>0</asrwt>
<pdfrwt beam="1">  1       21 0.37190242E-01 0.20726672E+03</pdfrwt>
<pdfrwt beam="2">  1       21 0.43044072E-01 0.20726672E+03</pdfrwt>
<totfact> 0.35913005E+04</totfact>
</mgrwt>
</event>
<event>
 4    3  0.4009700E+000  0.1813742E+03  0.7546771E-02  0.1166480E+00
         21   -1    0    0  503  502  0.00000000000E+00  0.00000000000E+00  0.56101169162E+02  0.56101169162E+02  0.00000000000E+00 0.  1.
         21   -1    0    0  501  503 -0.00000000000E+00 -0.00000000000E+00 -0.60095084018E+03  0.60095084018E+03  0.00000000000E+00 0.  1.
          6    1    1    2  501    0 -0.51845571660E+02 -0.16722011898E+02 -0.32358082059E+03  0.37094627163E+03  0.17300000000E+03 0.  1.
         -6    1    1    2    0  502  0.51845571660E+02  0.16722011898E+02 -0.22126885043E+03  0.28610573772E+03  0.17300000000E+03 0.  1.
<mgrwt>
<rscale>  2 0.18137417E+03</rscale>
<asrwt>0</asrwt>
<pdfrwt beam="1">  1       21 0.86309494E-02 0.18137417E+03</pdfrwt>
<pdfrwt beam="2">  1       21 0.92453973E-01 0.18137417E+03</pdfrwt>
<totfact> 0.10421488E+05</totfact>
</mgrwt>
</event>
<event>
 4    3  0.4009700E+000  0.1809216E+03  0.7546771E-02  0.1166914E+00
         21   -1    0    0  501  502  0.00000000000E+00  0.00000000000E+00  0.15562636198E+03  0.15562636198E+03  0.00000000000E+00 0. -1.
         21   -1    0    0  502  503 -0.00000000000E+00 -0.00000000000E+00 -0.43171466160E+03  0.43171466160E+03  0.00000000000E+00 0. -1.
          6    1    1    2  501    0 -0.52396032319E+02  0.76346064029E+01  0.72254920069E+02  0.19481633631E+03  0.17300000000E+03 0. -1.
         -6    1    1    2    0  503  0.52396032319E+02 -0.76346064029E+01 -0.34834321969E+03  0.39252468727E+03  0.17300000000E+03 0. -1.
<mgrwt>
<rscale>  2 0.18092162E+03</rscale>
<asrwt>0</asrwt>
<pdfrwt beam="1">  1       21 0.23942517E-01 0.18092162E+03</pdfrwt>
<pdfrwt beam="2">  1       21 0.66417642E-01 0.18092162E+03</pdfrwt>
<totfact> 0.34409469E+04</totfact>
</mgrwt>
</event>
<event>
 4    3  0.4009700E+000  0.1911401E+03  0.7546771E-02  0.1157437E+00
         21   -1    0    0  503  502  0.00000000000E+00  0.00000000000E+00  0.80600456676E+02  0.80600456676E+02  0.00000000000E+00 0.  1.
         21   -1    0    0  501  503 -0.00000000000E+00 -0.00000000000E+00 -0.52190989490E+03  0.52190989490E+03  0.00000000000E+00 0.  1.
          6    1    1    2  501    0  0.32534718679E+02  0.74478350841E+02 -0.32989808703E+03  0.38127061320E+03  0.17300000000E+03 0. -1.
         -6    1    1    2    0  502 -0.32534718679E+02 -0.74478350841E+02 -0.11141135120E+03  0.22123973838E+03  0.17300000000E+03 0. -1.
<mgrwt>
<rscale>  2 0.19114009E+03</rscale>
<asrwt>0</asrwt>
<pdfrwt beam="1">  1       21 0.12400070E-01 0.19114009E+03</pdfrwt>
<pdfrwt beam="2">  1       21 0.80293832E-01 0.19114009E+03</pdfrwt>
<totfact> 0.75527597E+04</totfact>
</mgrwt>
</event>
<event>
 4    3  0.4009700E+000  0.1762152E+03  0.7546771E-02  0.1171517E+00
         21   -1    0    0  501  502  0.00000000000E+00  0.00000000000E+00  0.62719097993E+03  0.62719097993E+03  0.00000000000E+00 0. -1.
         21   -1    0    0  502  503 -0.00000000000E+00 -0.00000000000E+00 -0.62994568933E+02  0.62994568933E+02  0.00000000000E+00 0. -1.
          6    1    1    2  501    0  0.32578964129E+02 -0.78361383614E+01  0.44176474879E+03  0.47561316975E+03  0.17300000000E+03 0.  1.
         -6    1    1    2    0  503 -0.32578964129E+02  0.78361383614E+01  0.12243166221E+03  0.21457237912E+03  0.17300000000E+03 0.  1.
<mgrwt>
<rscale>  2 0.17621519E+03</rscale>
<asrwt>0</asrwt>
<pdfrwt beam="1">  1       21 0.96490915E-01 0.17621519E+03</pdfrwt>
<pdfrwt beam="2">  1       21 0.96914726E-02 0.17621519E+03</pdfrwt>
<totfact> 0.77155110E+04</totfact>
</mgrwt>
</event>
<event>
 4    3  0.4009700E+000  0.2417328E+03  0.7546771E-02  0.1118644E+00
         21   -1    0    0  501  502  0.00000000000E+00  0.00000000000E+00  0.57096717185E+03  0.57096717185E+03  0.00000000000E+00 0.  1.
         21   -1    0    0  502  503 -0.00000000000E+00 -0.00000000000E+00 -0.10875203663E+03  0.10875203663E+03  0.00000000000E+00 0.  1.
          6    1    1    2  501    0  0.80723496853E+02 -0.14828848305E+03  0.14860612069E+03  0.28375788316E+03  0.17300000000E+03 0.  1.
         -6    1    1    2    0  503 -0.80723496853E+02  0.14828848305E+03  0.31360901453E+03  0.39596132531E+03  0.17300000000E+03 0.  1.
<mgrwt>
<rscale>  2 0.24173282E+03</rscale>
<asrwt>0</asrwt>
<pdfrwt beam="1">  1       21 0.87841102E-01 0.24173282E+03</pdfrwt>
<pdfrwt beam="2">  1       21 0.16731083E-01 0.24173282E+03</pdfrwt>
<totfact> 0.34819295E+04</totfact>
</mgrwt>
</event>
<event>
 4    3  0.4009700E+000  0.1872276E+03  0.7546771E-02  0.1160986E+00
         21   -1    0    0  503  502  0.00000000000E+00  0.00000000000E+00  0.20550083232E+02  0.20550083232E+02  0.00000000000E+00 0.  1.
         21   -1    0    0  501  503 -0.00000000000E+00 -0.00000000000E+00 -0.17106101581E+04  0.17106101581E+04  0.00000000000E+00 0.  1.
          6    1    1    2  501    0 -0.66537907024E+02 -0.26417412369E+02 -0.79909321657E+03  0.82073390421E+03  0.17300000000E+03 0.  1.
         -6    1    1    2    0  502  0.66537907024E+02  0.26417412369E+02 -0.89096685834E+03  0.91042633717E+03  0.17300000000E+03 0.  1.
<mgrwt>
<rscale>  2 0.18722760E+03</rscale>
<asrwt>0</asrwt>
<pdfrwt beam="1">  1       21 0.31615518E-02 0.18722760E+03</pdfrwt>
<pdfrwt beam="2">  1       21 0.26317075E+00 0.18722760E+03</pdfrwt>
<totfact> 0.32456046E+04</totfact>
</mgrwt>
</event>
<event>
 4    3  0.4009700E+000  0.1735644E+03  0.7546771E-02  0.1174181E+00
         21   -1    0    0  503  502  0.00000000000E+00  0.00000000000E+00  0.12760421056E+04  0.12760421056E+04  0.00000000000E+00 0.  1.
         21   -1    0    0  501  503 -0.00000000000E+00 -0.00000000000E+00 -0.74842621993E+02  0.74842621993E+02  0.00000000000E+00 0.  1.
          6    1    1    2  501    0 -0.13689054992E+02 -0.28649310432E+01  0.41748468428E+02  0.17851479679E+03  0.17300000000E+03 0.  1.
         -6    1    1    2    0  502  0.13689054992E+02  0.28649310432E+01  0.11594510152E+04  0.11723699309E+04  0.17300000000E+03 0.  1.
<mgrwt>
<rscale>  2 0.17356439E+03</rscale>
<asrwt>0</asrwt>
<pdfrwt beam="1">  1       21 0.19631415E+00 0.17356439E+03</pdfrwt>
<pdfrwt beam="2">  1       21 0.11514250E-01 0.17356439E+03</pdfrwt>
<totfact> 0.91114225E+03</totfact>
</mgrwt>
</event>
<event>
 4    3  0.4009700E+000  0.1878513E+03  0.7546771E-02  0.1160414E+00
         21   -1    0    0  501  502  0.00000000000E+00  0.00000000000E+00  0.33625263625E+03  0.33625263625E+03  0.00000000000E+00 0.  1.
         21   -1    0    0  502  503 -0.00000000000E+00 -0.00000000000E+00 -0.13992946093E+03  0.13992946093E+03  0.00000000000E+00 0.  1.
          6    1    1    2  501    0  0.68978598224E+02  0.24516436219E+02  0.21721032482E+03  0.28717316703E+03  0.17300000000E+03 0.  1.
         -6    1    1    2    0  503 -0.68978598224E+02 -0.24516436219E+02 -0.20887149497E+02  0.18900893014E+03  0.17300000000E+03 0.  1.
<mgrwt>
<rscale>  2 0.18785128E+03</rscale>
<asrwt>0</asrwt>
<pdfrwt beam="1">  1       21 0.51731175E-01 0.18785128E+03</pdfrwt>
<pdfrwt beam="2">  1       21 0.21527609E-01 0.18785128E+03</pdfrwt>
<totfact> 0.71504332E+04</totfact>
</mgrwt>
</event>
<event>
 4    3  0.4009700E+000  0.3816716E+03  0.7546771E-02  0.1050318E+00
         21   -1    0    0  503  502  0.00000000000E+00  0.00000000000E+00  0.32955031260E+03  0.32955031260E+03  0.00000000000E+00 0.  1.
         21   -1    0    0  501  503 -0.00000000000E+00 -0.00000000000E+00 -0.88549700462E+03  0.88549700462E+03  0.00000000000E+00 0. -1.
          6    1    1    2  501    0  0.16566200062E+03  0.29715369219E+03 -0.70790279781E+03  0.80423851336E+03  0.17300000000E+03 0. -1.
         -6    1    1    2    0  502 -0.16566200062E+03 -0.29715369219E+03  0.15195610579E+03  0.41080880385E+03  0.17300000000E+03 0.  1.
<mgrwt>
<rscale>  2 0.38167161E+03</rscale>
<asrwt>0</asrwt>
<pdfrwt beam="1">  1       21 0.50700050E-01 0.38167161E+03</pdfrwt>
<pdfrwt beam="2">  1       21 0.13623030E+00 0.38167161E+03</pdfrwt>
<totfact> 0.12455206E+03</totfact>
</mgrwt>
</event>
<event>
 4    3  0.4009700E+000  0.2433705E+03  0.7546771E-02  0.1117568E+00
         21   -1    0    0  503  502  0.00000000000E+00  0.00000000000E+00  0.72523609909E+03  0.72523609909E+03  0.00000000000E+00 0.  1.
         21   -1    0    0  501  503 -0.00000000000E+00 -0.00000000000E+00 -0.84418573935E+02  0.84418573935E+02  0.00000000000E+00 0.  1.
          6    1    1    2  501    0  0.10381534811E+03  0.13609770591E+03  0.24734637459E+03  0.34700063556E+03  0.17300000000E+03 0.  1.
         -6    1    1    2    0  502 -0.10381534811E+03 -0.13609770591E+03  0.39347115056E+03  0.46265403746E+03  0.17300000000E+03 0.  1.
<mgrwt>
<rscale>  2 0.24337052E+03</rscale>
<asrwt>0</asrwt>
<pdfrwt beam="1">  1       21 0.11157478E+00 0.24337052E+03</pdfrwt>
<pdfrwt beam="2">  1       21 0.12987473E-01 0.24337052E+03</pdfrwt>
<totfact> 0.31272539E+04</totfact>
</mgrwt>
</event>
<event>
 4    3  0.4009700E+000  0.2194784E+03  0.7546771E-02  0.1134273E+00
         21   -1    0    0  503  502  0.00000000000E+00  0.00000000000E+00  0.21401283664E+03  0.21401283664E+03  0.00000000000E+00 0.  1.
         21   -1    0    0  501  503 -0.00000000000E+00 -0.00000000000E+00 -0.44268258408E+03  0.44268258408E+03  0.00000000000E+00 0. -1.
          6    1    1    2  501    0 -0.11526695229E+03  0.70393965791E+02 -0.34454064173E+03  0.40850830410E+03  0.17300000000E+03 0. -1.
         -6    1    1    2    0  502  0.11526695229E+03 -0.70393965791E+02  0.11587089430E+03  0.24818711662E+03  0.17300000000E+03 0.  1.
<mgrwt>
<rscale>  2 0.21947843E+03</rscale>
<asrwt>0</asrwt>
<pdfrwt beam="1">  1       21 0.32925052E-01 0.21947843E+03</pdfrwt>
<pdfrwt beam="2">  1       21 0.68105012E-01 0.21947843E+03</pdfrwt>
<totfact> 0.17197165E+04</totfact>
</mgrwt>
</event>
<event>
 4    3  0.4009700E+000  0.1783652E+03  0.7546771E-02  0.1169395E+00
         21   -1    0    0  503  502  0.00000000000E+00  0.00000000000E+00  0.21655659498E+04  0.21655659498E+04  0.00000000000E+00 0. -1.
         21   -1    0    0  501  503 -0.00000000000E+00 -0.00000000000E+00 -0.15468232000E+02  0.15468232000E+02  0.00000000000E+00 0. -1.
          6    1    1    2  501    0  0.40216091091E+02 -0.16365017362E+02  0.83058711776E+03  0.84952287078E+03  0.17300000000E+03 0. -1.
         -6    1    1    2    0  502 -0.40216091091E+02  0.16365017362E+02  0.13195106000E+04  0.13315113110E+04  0.17300000000E+03 0. -1.
<mgrwt>
<rscale>  2 0.17836521E+03</rscale>
<asrwt>0</asrwt>
<pdfrwt beam="1">  1       21 0.33316375E+00 0.17836521E+03</pdfrwt>
<pdfrwt beam="2">  1       21 0.23797297E-02 0.17836521E+03</pdfrwt>
<totfact> 0.20665019E+04</totfact>
</mgrwt>
</event>
<event>
 4    3  0.4009700E+000  0.1893297E+03  0.7546771E-02  0.1159067E+00
         21   -1    0    0  501  502  0.00000000000E+00  0.00000000000E+00  0.55626177118E+03  0.55626177118E+03  0.00000000000E+00 0. -1.
         21   -1    0    0  502  503 -0.00000000000E+00 -0.00000000000E+00 -0.64855179705E+02  0.64855179705E+02  0.00000000000E+00 0. -1.
          6    1    1    2  501    0 -0.57117599863E+01 -0.76708017828E+02  0.22086810989E+03  0.29090972168E+03  0.17300000000E+03 0. -1.
         -6    1    1    2    0  503  0.57117599863E+01  0.76708017828E+02  0.27053848158E+03  0.33020722920E+03  0.17300000000E+03 0. -1.
<mgrwt>
<rscale>  2 0.18932972E+03</rscale>
<asrwt>0</asrwt>
<pdfrwt beam="1">  1       21 0.85578731E-01 0.18932972E+03</pdfrwt>
<pdfrwt beam="2">  1       21 0.99777203E-02 0.18932972E+03</pdfrwt>
<totfact> 0.96241625E+04</totfact>
</mgrwt>
</event>
<event>
 4    3  0.4009700E+000  0.1884454E+03  0.7546771E-02  0.1159871E+00
         21   -1    0    0  501  502  0.00000000000E+00  0.00000000000E+00  0.24806496961E+02  0.24806496961E+02  0.00000000000E+00 0.  1.
         21   -1    0    0  502  503 -0.00000000000E+00 -0.00000000000E+00 -0.17481870954E+04  0.17481870954E+04  0.00000000000E+00 0.  1.
          6    1    1    2  501    0 -0.52927576523E+02  0.52738290922E+02 -0.48440797159E+03  0.51977181400E+03  0.17300000000E+03 0.  1.
         -6    1    1    2    0  503  0.52927576523E+02 -0.52738290922E+02 -0.12389726268E+04  0.12532217783E+04  0.17300000000E+03 0.  1.
<mgrwt>
<rscale>  2 0.18844537E+03</rscale>
<asrwt>0</asrwt>
<pdfrwt beam="1">  1       21 0.38163852E-02 0.18844537E+03</pdfrwt>
<pdfrwt beam="2">  1       21 0.26895178E+00 0.18844537E+03</pdfrwt>
<totfact> 0.21938432E+04</totfact>
</mgrwt>
</event>
<event>
 4    3  0.4009700E+000  0.2676357E+03  0.7546771E-02  0.1102640E+00
         21   -1    0    0  503  502  0.00000000000E+00  0.00000000000E+00  0.43907039974E+03  0.43907039974E+03  0.00000000000E+00 0. -1.
         21   -1    0    0  501  503 -0.00000000000E+00 -0.00000000000E+00 -0.16914263947E+03  0.16914263947E+03  0.00000000000E+00 0.  1.
          6    1    1    2  501    0 -0.17338214141E+03  0.10788187131E+03  0.77663267644E+02  0.27867624272E+03  0.17300000000E+03 0.  1.
         -6    1    1    2    0  502  0.17338214141E+03 -0.10788187131E+03  0.19226449263E+03  0.32953679649E+03  0.17300000000E+03 0. -1.
<mgrwt>
<rscale>  2 0.26763569E+03</rscale>
<asrwt>0</asrwt>
<pdfrwt beam="1">  1       21 0.67549292E-01 0.26763569E+03</pdfrwt>
<pdfrwt beam="2">  1       21 0.26021945E-01 0.26763569E+03</pdfrwt>
<totfact> 0.27084682E+04</totfact>
</mgrwt>
</event>
<event>
 4    3  0.4009700E+000  0.1889743E+03  0.7546771E-02  0.1159390E+00
         21   -1    0    0  503  502  0.00000000000E+00  0.00000000000E+00  0.86787452198E+03  0.86787452198E+03  0.00000000000E+00 0.  1.
         21   -1    0    0  501  503 -0.00000000000E+00 -0.00000000000E+00 -0.79577156810E+02  0.79577156810E+02  0.00000000000E+00 0. -1.
          6    1    1    2  501    0  0.58827037771E+02  0.48183770632E+02  0.64946032040E+02  0.19982312980E+03  0.17300000000E+03 0. -1.
         -6    1    1    2    0  502 -0.58827037771E+02 -0.48183770632E+02  0.72335133313E+03  0.74762854899E+03  0.17300000000E+03 0.  1.
<mgrwt>
<rscale>  2 0.18897433E+03</rscale>
<asrwt>0</asrwt>
<pdfrwt beam="1">  1       21 0.13351915E+00 0.18897433E+03</pdfrwt>
<pdfrwt beam="2">  1       21 0.12242640E-01 0.18897433E+03</pdfrwt>
<totfact> 0.22926324E+04</totfact>
</mgrwt>
</event>
<event>
 4    3  0.4009700E+000  0.2704723E+03  0.7546771E-02  0.1101010E+00
         21   -1    0    0  501  502  0.00000000000E+00  0.00000000000E+00  0.11349391585E+03  0.11349391585E+03  0.00000000000E+00 0.  1.
         21   -1    0    0  502  503 -0.00000000000E+00 -0.00000000000E+00 -0.66287656717E+03  0.66287656717E+03  0.00000000000E+00 0.  1.
          6    1    1    2  501    0  0.18934461218E+03  0.85877168185E+02 -0.21018917272E+03  0.34254161573E+03  0.17300000000E+03 0.  1.
         -6    1    1    2    0  503 -0.18934461218E+03 -0.85877168185E+02 -0.33919347859E+03  0.43382886729E+03  0.17300000000E+03 0.  1.
<mgrwt>
<rscale>  2 0.27047231E+03</rscale>
<asrwt>0</asrwt>
<pdfrwt beam="1">  1       21 0.17460602E-01 0.27047231E+03</pdfrwt>
<pdfrwt beam="2">  1       21 0.10198101E+00 0.27047231E+03</pdfrwt>
<totfact> 0.22326453E+04</totfact>
</mgrwt>
</event>
<event>
 4    3  0.4009700E+000  0.1762551E+03  0.7546771E-02  0.1171477E+00
         21   -1    0    0  501  502  0.00000000000E+00  0.00000000000E+00  0.63240162299E+02  0.63240162299E+02  0.00000000000E+00 0.  1.
         21   -1    0    0  502  503 -0.00000000000E+00 -0.00000000000E+00 -0.65753284712E+03  0.65753284712E+03  0.00000000000E+00 0.  1.
          6    1    1    2  501    0  0.12228112256E+02  0.31422024042E+02 -0.47838517869E+03  0.50982178211E+03  0.17300000000E+03 0.  1.
         -6    1    1    2    0  503 -0.12228112256E+02 -0.31422024042E+02 -0.11590750612E+03  0.21095122730E+03  0.17300000000E+03 0.  1.
<mgrwt>
<rscale>  2 0.17625513E+03</rscale>
<asrwt>0</asrwt>
<pdfrwt beam="1">  1       21 0.97292553E-02 0.17625513E+03</pdfrwt>
<pdfrwt beam="2">  1       21 0.10115890E+00 0.17625513E+03</pdfrwt>
<totfact> 0.68551257E+04</totfact>
</mgrwt>
</event>
<event>
 4    3  0.4009700E+000  0.2106521E+03  0.7546771E-02  0.1141051E+00
         21   -1    0    0  503  502  0.00000000000E+00  0.00000000000E+00  0.22587372925E+03  0.22587372925E+03  0.00000000000E+00 0.  1.
         21   -1    0    0  501  503 -0.00000000000E+00 -0.00000000000E+00 -0.27244757897E+03  0.27244757897E+03  0.00000000000E+00 0.  1.
          6    1    1    2  501    0 -0.12002199693E+03  0.63256376745E+01 -0.15487609932E+03  0.26145917383E+03  0.17300000000E+03 0.  1.
         -6    1    1    2    0  502  0.12002199693E+03 -0.63256376745E+01  0.10830224959E+03  0.23686213439E+03  0.17300000000E+03 0.  1.
<mgrwt>
<rscale>  2 0.21065207E+03</rscale>
<asrwt>0</asrwt>
<pdfrwt beam="1">  1       21 0.34749804E-01 0.21065207E+03</pdfrwt>
<pdfrwt beam="2">  1       21 0.41915012E-01 0.21065207E+03</pdfrwt>
<totfact> 0.43341244E+04</totfact>
</mgrwt>
</event>
<event>
 4    3  0.4009700E+000  0.2472877E+03  0.7546771E-02  0.1115031E+00
         21   -1    0    0  503  502  0.00000000000E+00  0.00000000000E+00  0.10075592893E+04  0.10075592893E+04  0.00000000000E+00 0.  1.
         21   -1    0    0  501  503 -0.00000000000E+00 -0.00000000000E+00 -0.10164180760E+03  0.10164180760E+03  0.00000000000E+00 0. -1.
          6    1    1    2  501    0  0.17389918995E+03  0.31325755163E+02  0.10093844225E+03  0.26709511475E+03  0.17300000000E+03 0.  1.
         -6    1    1    2    0  502 -0.17389918995E+03 -0.31325755163E+02  0.80497903945E+03  0.84210598214E+03  0.17300000000E+03 0.  1.
<mgrwt>
<rscale>  2 0.24728775E+03</rscale>
<asrwt>0</asrwt>
<pdfrwt beam="1">  1       21 0.15500911E+00 0.24728775E+03</pdfrwt>
<pdfrwt beam="2">  1       21 0.15637202E-01 0.24728775E+03</pdfrwt>
<totfact> 0.95913611E+03</totfact>
</mgrwt>
</event>
<event>
 4    3  0.4009700E+000  0.2528007E+03  0.7546771E-02  0.1111548E+00
         21   -1    0    0  501  502  0.00000000000E+00  0.00000000000E+00  0.28744274263E+03  0.28744274263E+03  0.00000000000E+00 0. -1.
         21   -1    0    0  502  503 -0.00000000000E+00 -0.00000000000E+00 -0.24531302646E+03  0.24531302646E+03  0.00000000000E+00 0. -1.
          6    1    1    2  501    0  0.57986784086E+02 -0.17497628952E+03  0.10259304907E+03  0.27282504053E+03  0.17300000000E+03 0. -1.
         -6    1    1    2    0  503 -0.57986784086E+02  0.17497628952E+03 -0.60463332907E+02  0.25993072856E+03  0.17300000000E+03 0. -1.
<mgrwt>
<rscale>  2 0.25280065E+03</rscale>
<asrwt>0</asrwt>
<pdfrwt beam="1">  1       21 0.44221960E-01 0.25280065E+03</pdfrwt>
<pdfrwt beam="2">  1       21 0.37740466E-01 0.25280065E+03</pdfrwt>
<totfact> 0.32290542E+04</totfact>
</mgrwt>
</event>
<event>
 4    3  0.4009700E+000  0.1885008E+03  0.7546771E-02  0.1159821E+00
         21   -1    0    0  501  502  0.00000000000E+00  0.00000000000E+00  0.77602171459E+03  0.77602171459E+03  0.00000000000E+00 0.  1.
         21   -1    0    0  502  503 -0.00000000000E+00 -0.00000000000E+00 -0.84667727047E+02  0.84667727047E+02  0.00000000000E+00 0.  1.
          6    1    1    2  501    0  0.55676034863E+02 -0.50037196446E+02  0.63729793259E+03  0.66459099961E+03  0.17300000000E+03 0.  1.
         -6    1    1    2    0  503 -0.55676034863E+02  0.50037196446E+02  0.54056054953E+02  0.19609844202E+03  0.17300000000E+03 0.  1.
<mgrwt>
<rscale>  2 0.18850077E+03</rscale>
<asrwt>0</asrwt>
<pdfrwt beam="1">  1       21 0.11938795E+00 0.18850077E+03</pdfrwt>
<pdfrwt beam="2">  1       21 0.13025805E-01 0.18850077E+03</pdfrwt>
<totfact> 0.27156218E+04</totfact>
</mgrwt>
</event>
<event>
 4    3  0.4009700E+000  0.1944252E+03  0.7546771E-02  0.1154530E+00
         21   -1    0    0  501  502  0.00000000000E+00  0.00000000000E+00  0.44668726868E+03  0.44668726868E+03  0.00000000000E+00 0. -1.
         21   -1    0    0  502  503 -0.00000000000E+00 -0.00000000000E+00 -0.89723642035E+02  0.89723642035E+02  0.00000000000E+00 0. -1.
          6    1    1    2  501    0  0.65885385998E+01  0.88480295945E+02  0.11455007881E+03  0.22566101162E+03  0.17300000000E+03 0. -1.
         -6    1    1    2    0  503 -0.65885385998E+01 -0.88480295945E+02  0.24241354783E+03  0.31074989909E+03  0.17300000000E+03 0. -1.
<mgrwt>
<rscale>  2 0.19442523E+03</rscale>
<asrwt>0</asrwt>
<pdfrwt beam="1">  1       21 0.68721117E-01 0.19442523E+03</pdfrwt>
<pdfrwt beam="2">  1       21 0.13803637E-01 0.19442523E+03</pdfrwt>
<totfact> 0.87960814E+04</totfact>
</mgrwt>
</event>
<event>
 4    3  0.4009700E+000  0.1961491E+03  0.7546771E-02  0.1153029E+00
         21   -1    0    0  503  502  0.00000000000E+00  0.00000000000E+00  0.32563326197E+02  0.32563326197E+02  0.00000000000E+00 0. -1.
         21   -1    0    0  501  503 -0.00000000000E+00 -0.00000000000E+00 -0.13829292120E+04  0.13829292120E+04  0.00000000000E+00 0. -1.
          6    1    1    2  501    0  0.89943443238E+02  0.21345852752E+02 -0.40509257746E+03  0.45008273098E+03  0.17300000000E+03 0. -1.
         -6    1    1    2    0  502 -0.89943443238E+02 -0.21345852752E+02 -0.94527330835E+03  0.96540980722E+03  0.17300000000E+03 0. -1.
<mgrwt>
<rscale>  2 0.19614910E+03</rscale>
<asrwt>0</asrwt>
<pdfrwt beam="1">  1       21 0.50097437E-02 0.19614910E+03</pdfrwt>
<pdfrwt beam="2">  1       21 0.21275829E+00 0.19614910E+03</pdfrwt>
<totfact> 0.29822651E+04</totfact>
</mgrwt>
</event>
<event>
 4    3  0.4009700E+000  0.2986663E+03  0.7546771E-02  0.1085909E+00
         21   -1    0    0  501  502  0.00000000000E+00  0.00000000000E+00  0.32401568767E+03  0.32401568767E+03  0.00000000000E+00 0. -1.
         21   -1    0    0  502  503 -0.00000000000E+00 -0.00000000000E+00 -0.54254482490E+03  0.54254482490E+03  0.00000000000E+00 0.  1.
          6    1    1    2  501    0 -0.14064807770E+03 -0.19872258683E+03  0.19482790057E+03  0.35659424998E+03  0.17300000000E+03 0. -1.
         -6    1    1    2    0  503  0.14064807770E+03  0.19872258683E+03 -0.41335703780E+03  0.50996626258E+03  0.17300000000E+03 0.  1.
<mgrwt>
<rscale>  2 0.29866628E+03</rscale>
<asrwt>0</asrwt>
<pdfrwt beam="1">  1       21 0.49848567E-01 0.29866628E+03</pdfrwt>
<pdfrwt beam="2">  1       21 0.83468434E-01 0.29866628E+03</pdfrwt>
<totfact> 0.44711820E+03</totfact>
</mgrwt>
</event>
<event>
 4    3  0.4009700E+000  0.2777129E+03  0.7546771E-02  0.1096945E+00
         21   -1    0    0  501  502  0.00000000000E+00  0.00000000000E+00  0.40409184542E+03  0.40409184542E+03  0.00000000000E+00 0.  1.
         21   -1    0    0  502  503 -0.00000000000E+00 -0.00000000000E+00 -0.19596934122E+03  0.19596934122E+03  0.00000000000E+00 0. -1.
          6    1    1    2  501    0 -0.21692610227E+03  0.11768438738E+02  0.55609367453E+02  0.28322576109E+03  0.17300000000E+03 0. -1.
         -6    1    1    2    0  503  0.21692610227E+03 -0.11768438738E+02  0.15251313675E+03  0.31683542554E+03  0.17300000000E+03 0.  1.
<mgrwt>
<rscale>  2 0.27771286E+03</rscale>
<asrwt>0</asrwt>
<pdfrwt beam="1">  1       21 0.62167976E-01 0.27771286E+03</pdfrwt>
<pdfrwt beam="2">  1       21 0.30149129E-01 0.27771286E+03</pdfrwt>
<totfact> 0.24286066E+04</totfact>
</mgrwt>
</event>
<event>
 4    3  0.4009700E+000  0.2083231E+03  0.7546771E-02  0.1142901E+00
         21   -1    0    0  501  502  0.00000000000E+00  0.00000000000E+00  0.87082528995E+02  0.87082528995E+02  0.00000000000E+00 0.  1.
         21   -1    0    0  502  503 -0.00000000000E+00 -0.00000000000E+00 -0.49905629792E+03  0.49905629792E+03  0.00000000000E+00 0.  1.
          6    1    1    2  501    0 -0.98641145165E+02 -0.61150899605E+02 -0.21692852056E+03  0.30075985615E+03  0.17300000000E+03 0.  1.
         -6    1    1    2    0  503  0.98641145165E+02  0.61150899605E+02 -0.19504524836E+03  0.28537897076E+03  0.17300000000E+03 0.  1.
<mgrwt>
<rscale>  2 0.20832309E+03</rscale>
<asrwt>0</asrwt>
<pdfrwt beam="1">  1       21 0.13397312E-01 0.20832309E+03</pdfrwt>
<pdfrwt beam="2">  1       21 0.76777892E-01 0.20832309E+03</pdfrwt>
<totfact> 0.72126032E+04</totfact>
</mgrwt>
</event>
<event>
 4    3  0.4009700E+000  0.2101986E+03  0.7546771E-02  0.1141409E+00
         21   -1    0    0  503  502  0.00000000000E+00  0.00000000000E+00  0.61122458769E+03  0.61122458769E+03  0.00000000000E+00 0.  1.
         21   -1    0    0  501  503 -0.00000000000E+00 -0.00000000000E+00 -0.75319136681E+02  0.75319136681E+02  0.00000000000E+00 0.  1.
          6    1    1    2  501    0 -0.68055644303E+02  0.98096355595E+02  0.33682980069E+03  0.39703624562E+03  0.17300000000E+03 0.  1.
         -6    1    1    2    0  502  0.68055644303E+02 -0.98096355595E+02  0.19907565032E+03  0.28950747875E+03  0.17300000000E+03 0.  1.
<mgrwt>
<rscale>  2 0.21019863E+03</rscale>
<asrwt>0</asrwt>
<pdfrwt beam="1">  1       21 0.94034549E-01 0.21019863E+03</pdfrwt>
<pdfrwt beam="2">  1       21 0.11587560E-01 0.21019863E+03</pdfrwt>
<totfact> 0.58762098E+04</totfact>
</mgrwt>
</event>
<event>
 4    3  0.4009700E+000  0.2501707E+03  0.7546771E-02  0.1113197E+00
         21   -1    0    0  501  502  0.00000000000E+00  0.00000000000E+00  0.93889731544E+03  0.93889731544E+03  0.00000000000E+00 0. -1.
         21   -1    0    0  502  503 -0.00000000000E+00 -0.00000000000E+00 -0.14659939561E+03  0.14659939561E+03  0.00000000000E+00 0.  1.
          6    1    1    2  501    0 -0.12864289245E+03  0.12691478030E+03  0.79693936082E+03  0.83528300597E+03  0.17300000000E+03 0. -1.
         -6    1    1    2    0  503  0.12864289245E+03 -0.12691478030E+03 -0.46414409881E+01  0.25021370509E+03  0.17300000000E+03 0.  1.
<mgrwt>
<rscale>  2 0.25017065E+03</rscale>
<asrwt>0</asrwt>
<pdfrwt beam="1">  1       21 0.14444574E+00 0.25017065E+03</pdfrwt>
<pdfrwt beam="2">  1       21 0.22553754E-01 0.25017065E+03</pdfrwt>
<totfact> 0.58258796E+03</totfact>
</mgrwt>
</event>
<event>
 4    3  0.4009700E+000  0.3122602E+03  0.7546771E-02  0.1079268E+00
         21   -1    0    0  503  502  0.00000000000E+00  0.00000000000E+00  0.99874059449E+03  0.99874059449E+03  0.00000000000E+00 0. -1.
         21   -1    0    0  501  503 -0.00000000000E+00 -0.00000000000E+00 -0.11597310581E+03  0.11597310581E+03  0.00000000000E+00 0.  1.
          6    1    1    2  501    0 -0.24428109859E+03 -0.88905354980E+02  0.21971800888E+03  0.38181464181E+03  0.17300000000E+03 0.  1.
         -6    1    1    2    0  502  0.24428109859E+03  0.88905354980E+02  0.66304947980E+03  0.73289905849E+03  0.17300000000E+03 0. -1.
<mgrwt>
<rscale>  2 0.31226018E+03</rscale>
<asrwt>0</asrwt>
<pdfrwt beam="1">  1       21 0.15365239E+00 0.31226018E+03</pdfrwt>
<pdfrwt beam="2">  1       21 0.17842017E-01 0.31226018E+03</pdfrwt>
<totfact> 0.74197979E+03</totfact>
</mgrwt>
</event>
<event>
 4    3  0.4009700E+000  0.1808463E+03  0.7546771E-02  0.1166986E+00
         21   -1    0    0  503  502  0.00000000000E+00  0.00000000000E+00  0.80988550535E+02  0.80988550535E+02  0.00000000000E+00 0. -1.
         21   -1    0    0  501  503 -0.00000000000E+00 -0.00000000000E+00 -0.61418755678E+03  0.61418755678E+03  0.00000000000E+00 0. -1.
          6    1    1    2  501    0 -0.46631779529E+02  0.24533011887E+02 -0.47002066571E+03  0.50361177283E+03  0.17300000000E+03 0. -1.
         -6    1    1    2    0  502  0.46631779529E+02 -0.24533011887E+02 -0.63178340531E+02  0.19156433448E+03  0.17300000000E+03 0. -1.
<mgrwt>
<rscale>  2 0.18084632E+03</rscale>
<asrwt>0</asrwt>
<pdfrwt beam="1">  1       21 0.12459777E-01 0.18084632E+03</pdfrwt>
<pdfrwt beam="2">  1       21 0.94490395E-01 0.18084632E+03</pdfrwt>
<totfact> 0.51760780E+04</totfact>
</mgrwt>
</event>
<event>
 4    3  0.4009700E+000  0.1969126E+03  0.7546771E-02  0.1152370E+00
         21   -1    0    0  503  502  0.00000000000E+00  0.00000000000E+00  0.81210283642E+03  0.81210283642E+03  0.00000000000E+00 0.  1.
         21   -1    0    0  501  503 -0.00000000000E+00 -0.00000000000E+00 -0.13649263852E+03  0.13649263852E+03  0.00000000000E+00 0.  1.
          6    1    1    2  501    0 -0.59735707515E+02  0.72644452689E+02 -0.44643142178E+02  0.20190983483E+03  0.17300000000E+03 0.  1.
         -6    1    1    2    0  502  0.59735707515E+02 -0.72644452689E+02  0.72025334007E+03  0.74668564011E+03  0.17300000000E+03 0.  1.
<mgrwt>
<rscale>  2 0.19691260E+03</rscale>
<asrwt>0</asrwt>
<pdfrwt beam="1">  1       21 0.12493889E+00 0.19691260E+03</pdfrwt>
<pdfrwt beam="2">  1       21 0.20998868E-01 0.19691260E+03</pdfrwt>
<totfact> 0.10032218E+04</totfact>
</mgrwt>
</event>
<event>
 4    3  0.4009700E+000  0.1903300E+03  0.7546771E-02  0.1158164E+00
         21   -1    0    0  501  502  0.00000000000E+00  0.00000000000E+00  0.82416391335E+02  0.82416391335E+02  0.00000000000E+00 0.  1.
         21   -1    0    0  502  503 -0.00000000000E+00 -0.00000000000E+00 -0.49134992056E+03  0.49134992056E+03  0.00000000000E+00 0.  1.
          6    1    1    2  501    0  0.78736058675E+02 -0.98560694855E+01 -0.29762161442E+03  0.35327628622E+03  0.17300000000E+03 0.  1.
         -6    1    1    2    0  503 -0.78736058675E+02  0.98560694855E+01 -0.11131191481E+03  0.22049002567E+03  0.17300000000E+03 0.  1.
<mgrwt>
<rscale>  2 0.19033000E+03</rscale>
<asrwt>0</asrwt>
<pdfrwt beam="1">  1       21 0.12679445E-01 0.19033000E+03</pdfrwt>
<pdfrwt beam="2">  1       21 0.75592296E-01 0.19033000E+03</pdfrwt>
<totfact> 0.83137815E+04</totfact>
</mgrwt>
</event>
<event>
 4    3  0.4009700E+000  0.2022690E+03  0.7546771E-02  0.1147839E+00
         21   -1    0    0  501  502  0.00000000000E+00  0.00000000000E+00  0.14398745211E+03  0.14398745211E+03  0.00000000000E+00 0. -1.
         21   -1    0    0  502  503 -0.00000000000E+00 -0.00000000000E+00 -0.28718654949E+03  0.28718654949E+03  0.00000000000E+00 0.  1.
          6    1    1    2  501    0 -0.10189251454E+03 -0.24528567757E+02 -0.49398418964E+02  0.20821368579E+03  0.17300000000E+03 0. -1.
         -6    1    1    2    0  503  0.10189251454E+03  0.24528567757E+02 -0.93800678411E+02  0.22296031581E+03  0.17300000000E+03 0.  1.
<mgrwt>
<rscale>  2 0.20226897E+03</rscale>
<asrwt>0</asrwt>
<pdfrwt beam="1">  1       21 0.22151916E-01 0.20226897E+03</pdfrwt>
<pdfrwt beam="2">  1       21 0.44182545E-01 0.20226897E+03</pdfrwt>
<totfact> 0.93380109E+04</totfact>
</mgrwt>
</event>
<event>
 4    3  0.4009700E+000  0.1863414E+03  0.7546771E-02  0.1161803E+00
         21   -1    0    0  501  502  0.00000000000E+00  0.00000000000E+00  0.36665003438E+03  0.36665003438E+03  0.00000000000E+00 0. -1.
         21   -1    0    0  502  503 -0.00000000000E+00 -0.00000000000E+00 -0.11359717837E+03  0.11359717837E+03  0.00000000000E+00 0. -1.
          6    1    1    2  501    0  0.11862512818E+02 -0.68215752306E+02  0.22445451223E+03  0.29172407534E+03  0.17300000000E+03 0. -1.
         -6    1    1    2    0  503 -0.11862512818E+02  0.68215752306E+02  0.28598343789E+02  0.18852313741E+03  0.17300000000E+03 0. -1.
<mgrwt>
<rscale>  2 0.18634138E+03</rscale>
<asrwt>0</asrwt>
<pdfrwt beam="1">  1       21 0.56407697E-01 0.18634138E+03</pdfrwt>
<pdfrwt beam="2">  1       21 0.17476489E-01 0.18634138E+03</pdfrwt>
<totfact> 0.87874055E+04</totfact>
</mgrwt>
</event>
<event>
 4    3  0.4009700E+000  0.2090375E+03  0.7546771E-02  0.1142330E+00
         21   -1    0    0  503  502  0.00000000000E+00  0.00000000000E+00  0.34058962046E+02  0.34058962046E+02  0.00000000000E+00 0. -1.
         21   -1    0    0  501  503 -0.00000000000E+00 -0.00000000000E+00 -0.14626025112E+04  0.14626025112E+04  0.00000000000E+00 0.  1.
          6    1    1    2  501    0  0.98544530211E+02  0.63691921298E+02 -0.97652498418E+03  0.99864795099E+03  0.17300000000E+03 0.  1.
         -6    1    1    2    0  502 -0.98544530211E+02 -0.63691921298E+02 -0.45201856493E+03  0.49801352222E+03  0.17300000000E+03 0.  1.
<mgrwt>
<rscale>  2 0.20903752E+03</rscale>
<asrwt>0</asrwt>
<pdfrwt beam="1">  1       21 0.52398405E-02 0.20903752E+03</pdfrwt>
<pdfrwt beam="2">  1       21 0.22501576E+00 0.20903752E+03</pdfrwt>
<totfact> 0.22992067E+04</totfact>
</mgrwt>
</event>
<event>
 4    3  0.4009700E+000  0.1787857E+03  0.7546771E-02  0.1168983E+00
         21   -1    0    0  501  502  0.00000000000E+00  0.00000000000E+00  0.27802496253E+03  0.27802496253E+03  0.00000000000E+00 0.  1.
         21   -1    0    0  502  503 -0.00000000000E+00 -0.00000000000E+00 -0.12644721660E+03  0.12644721660E+03  0.00000000000E+00 0.  1.
          6    1    1    2  501    0  0.78777312690E+01  0.44421333636E+02  0.13671969503E+03  0.22507018581E+03  0.17300000000E+03 0.  1.
         -6    1    1    2    0  503 -0.78777312690E+01 -0.44421333636E+02  0.14858050907E+02  0.17940199332E+03  0.17300000000E+03 0.  1.
<mgrwt>
<rscale>  2 0.17878566E+03</rscale>
<asrwt>0</asrwt>
<pdfrwt beam="1">  1       21 0.42773071E-01 0.17878566E+03</pdfrwt>
<pdfrwt beam="2">  1       21 0.19453418E-01 0.17878566E+03</pdfrwt>
<totfact> 0.12840352E+05</totfact>
</mgrwt>
</event>
<event>
 4    3  0.4009700E+000  0.1746115E+03  0.7546771E-02  0.1173122E+00
         21   -1    0    0  503  502  0.00000000000E+00  0.00000000000E+00  0.14403401531E+03  0.14403401531E+03  0.00000000000E+00 0.  1.
         21   -1    0    0  501  503 -0.00000000000E+00 -0.00000000000E+00 -0.23164057348E+03  0.23164057348E+03  0.00000000000E+00 0.  1.
          6    1    1    2  501    0 -0.29027392100E+01  0.23489658962E+02  0.11335323813E+02  0.17497908315E+03  0.17300000000E+03 0. -1.
         -6    1    1    2    0  502  0.29027392100E+01 -0.23489658962E+02 -0.98941881991E+02  0.20069550564E+03  0.17300000000E+03 0. -1.
<mgrwt>
<rscale>  2 0.17461154E+03</rscale>
<asrwt>0</asrwt>
<pdfrwt beam="1">  1       21 0.22159080E-01 0.17461154E+03</pdfrwt>
<pdfrwt beam="2">  1       21 0.35637011E-01 0.17461154E+03</pdfrwt>
<totfact> 0.14543855E+05</totfact>
</mgrwt>
</event>
<event>
 4    3  0.4009700E+000  0.2348716E+03  0.7546771E-02  0.1123257E+00
         21   -1    0    0  503  502  0.00000000000E+00  0.00000000000E+00  0.13009131536E+03  0.13009131536E+03  0.00000000000E+00 0. -1.
         21   -1    0    0  501  503 -0.00000000000E+00 -0.00000000000E+00 -0.87774177554E+03  0.87774177554E+03  0.00000000000E+00 0. -1.
          6    1    1    2  501    0 -0.37855436112E+02  0.15428109026E+03 -0.73611631685E+03  0.77267840709E+03  0.17300000000E+03 0. -1.
         -6    1    1    2    0  502  0.37855436112E+02 -0.15428109026E+03 -0.11534143329E+02  0.23515468381E+03  0.17300000000E+03 0. -1.
<mgrwt>
<rscale>  2 0.23487164E+03</rscale>
<asrwt>0</asrwt>
<pdfrwt beam="1">  1       21 0.20014048E-01 0.23487164E+03</pdfrwt>
<pdfrwt beam="2">  1       21 0.13503720E+00 0.23487164E+03</pdfrwt>
<totfact> 0.87841373E+03</totfact>
</mgrwt>
</event>
<event>
 4    3  0.4009700E+000  0.2088607E+03  0.7546771E-02  0.1142471E+00
         21   -1    0    0  503  502  0.00000000000E+00  0.00000000000E+00  0.29468806472E+03  0.29468806472E+03  0.00000000000E+00 0.  1.
         21   -1    0    0  501  503 -0.00000000000E+00 -0.00000000000E+00 -0.14855436956E+03  0.14855436956E+03  0.00000000000E+00 0.  1.
          6    1    1    2  501    0  0.98397216274E+02 -0.63338762502E+02  0.59905660766E+02  0.21728207289E+03  0.17300000000E+03 0.  1.
         -6    1    1    2    0  502 -0.98397216274E+02  0.63338762502E+02  0.86228034395E+02  0.22596036139E+03  0.17300000000E+03 0.  1.
<mgrwt>
<rscale>  2 0.20886075E+03</rscale>
<asrwt>0</asrwt>
<pdfrwt beam="1">  1       21 0.45336625E-01 0.20886075E+03</pdfrwt>
<pdfrwt beam="2">  1       21 0.22854518E-01 0.20886075E+03</pdfrwt>
<totfact> 0.83253075E+04</totfact>
</mgrwt>
</event>
<event>
 4    3  0.4009700E+000  0.2529549E+03  0.7546771E-02  0.1111451E+00
         21   -1    0    0  503  502  0.00000000000E+00  0.00000000000E+00  0.76938323591E+03  0.76938323591E+03  0.00000000000E+00 0. -1.
         21   -1    0    0  501  503 -0.00000000000E+00 -0.00000000000E+00 -0.97869159267E+02  0.97869159267E+02  0.00000000000E+00 0.  1.
          6    1    1    2  501    0 -0.18210287703E+03 -0.29928872927E+02  0.16768159447E+03  0.30348527539E+03  0.17300000000E+03 0.  1.
         -6    1    1    2    0  502  0.18210287703E+03  0.29928872927E+02  0.50383248218E+03  0.56376711979E+03  0.17300000000E+03 0. -1.
<mgrwt>
<rscale>  2 0.25295493E+03</rscale>
<asrwt>0</asrwt>
<pdfrwt beam="1">  1       21 0.11836665E+00 0.25295493E+03</pdfrwt>
<pdfrwt beam="2">  1       21 0.15056794E-01 0.25295493E+03</pdfrwt>
<totfact> 0.20564191E+04</totfact>
</mgrwt>
</event>
<event>
 4    3  0.4009700E+000  0.2424699E+03  0.7546771E-02  0.1118158E+00
         21   -1    0    0  501  502  0.00000000000E+00  0.00000000000E+00  0.10540328972E+04  0.10540328972E+04  0.00000000000E+00 0.  1.
         21   -1    0    0  502  503 -0.00000000000E+00 -0.00000000000E+00 -0.55985153468E+02  0.55985153468E+02  0.00000000000E+00 0.  1.
          6    1    1    2  501    0  0.15960832140E+03  0.58205209469E+02  0.53279868020E+03  0.58537688398E+03  0.17300000000E+03 0.  1.
         -6    1    1    2    0  503 -0.15960832140E+03 -0.58205209469E+02  0.46524906353E+03  0.52464116669E+03  0.17300000000E+03 0.  1.
<mgrwt>
<rscale>  2 0.24246992E+03</rscale>
<asrwt>0</asrwt>
<pdfrwt beam="1">  1       21 0.16215889E+00 0.24246992E+03</pdfrwt>
<pdfrwt beam="2">  1       21 0.86131013E-02 0.24246992E+03</pdfrwt>
<totfact> 0.24834829E+04</totfact>
</mgrwt>
</event>
<event>
 4    3  0.4009700E+000  0.1927842E+03  0.7546771E-02  0.1155974E+00
         21   -1    0    0  501  502  0.00000000000E+00  0.00000000000E+00  0.59049428340E+03  0.59049428340E+03  0.00000000000E+00 0. -1.
         21   -1    0    0  502  503 -0.00000000000E+00 -0.00000000000E+00 -0.32795858186E+03  0.32795858186E+03  0.00000000000E+00 0.  1.
          6    1    1    2  501    0 -0.41897813882E+02  0.74035977512E+02  0.54408286234E+03  0.57722778334E+03  0.17300000000E+03 0. -1.
         -6    1    1    2    0  503  0.41897813882E+02 -0.74035977512E+02 -0.28154716080E+03  0.34122508192E+03  0.17300000000E+03 0.  1.
<mgrwt>
<rscale>  2 0.19278421E+03</rscale>
<asrwt>0</asrwt>
<pdfrwt beam="1">  1       21 0.90845275E-01 0.19278421E+03</pdfrwt>
<pdfrwt beam="2">  1       21 0.50455166E-01 0.19278421E+03</pdfrwt>
<totfact> 0.38438617E+03</totfact>
</mgrwt>
</event>
<event>
 4    3  0.4009700E+000  0.2312385E+03  0.7546771E-02  0.1125771E+00
         21   -1    0    0  503  502  0.00000000000E+00  0.00000000000E+00  0.30092237057E+03  0.30092237057E+03  0.00000000000E+00 0. -1.
         21   -1    0    0  501  503 -0.00000000000E+00 -0.00000000000E+00 -0.18035535319E+03  0.18035535319E+03  0.00000000000E+00 0. -1.
          6    1    1    2  501    0  0.59177344802E+02 -0.14156376654E+03  0.31036559391E+02  0.23331207888E+03  0.17300000000E+03 0. -1.
         -6    1    1    2    0  502 -0.59177344802E+02  0.14156376654E+03  0.89530457982E+02  0.24796564488E+03  0.17300000000E+03 0. -1.
<mgrwt>
<rscale>  2 0.23123853E+03</rscale>
<asrwt>0</asrwt>
<pdfrwt beam="1">  1       21 0.46295749E-01 0.23123853E+03</pdfrwt>
<pdfrwt beam="2">  1       21 0.27746978E-01 0.23123853E+03</pdfrwt>
<totfact> 0.54461179E+04</totfact>
</mgrwt>
</event>
<event>
 4    3  0.4009700E+000  0.1860558E+03  0.7546771E-02  0.1162068E+00
         21   -1    0    0  503  502  0.00000000000E+00  0.00000000000E+00  0.17124507973E+03  0.17124507973E+03  0.00000000000E+00 0. -1.
         21   -1    0    0  501  503 -0.00000000000E+00 -0.00000000000E+00 -0.21504765411E+03  0.21504765411E+03  0.00000000000E+00 0.  1.
          6    1    1    2  501    0 -0.36142004966E+02  0.58150772309E+02 -0.69207416632E+02  0.19851051196E+03  0.17300000000E+03 0.  1.
         -6    1    1    2    0  502  0.36142004966E+02 -0.58150772309E+02  0.25404842247E+02  0.18778222188E+03  0.17300000000E+03 0. -1.
<mgrwt>
<rscale>  2 0.18605579E+03</rscale>
<asrwt>0</asrwt>
<pdfrwt beam="1">  1       21 0.26345397E-01 0.18605579E+03</pdfrwt>
<pdfrwt beam="2">  1       21 0.33084254E-01 0.18605579E+03</pdfrwt>
<totfact> 0.12079196E+05</totfact>
</mgrwt>
</event>
<event>
 4    3  0.4009700E+000  0.2137968E+03  0.7546771E-02  0.1138594E+00
         21   -1    0    0  503  502  0.00000000000E+00  0.00000000000E+00  0.57859475136E+02  0.57859475136E+02  0.00000000000E+00 0. -1.
         21   -1    0    0  501  503 -0.00000000000E+00 -0.00000000000E+00 -0.82067317051E+03  0.82067317051E+03  0.00000000000E+00 0. -1.
          6    1    1    2  501    0  0.12436615177E+03 -0.17695133228E+02 -0.46632749670E+03  0.51300135636E+03  0.17300000000E+03 0. -1.
         -6    1    1    2    0  502 -0.12436615177E+03  0.17695133228E+02 -0.29648619867E+03  0.36553128929E+03  0.17300000000E+03 0. -1.
<mgrwt>
<rscale>  2 0.21379677E+03</rscale>
<asrwt>0</asrwt>
<pdfrwt beam="1">  1       21 0.89014582E-02 0.21379677E+03</pdfrwt>
<pdfrwt beam="2">  1       21 0.12625740E+00 0.21379677E+03</pdfrwt>
<totfact> 0.45804301E+04</totfact>
</mgrwt>
</event>
<event>
 4    3  0.4009700E+000  0.2264592E+03  0.7546771E-02  0.1129157E+00
         21   -1    0    0  503  502  0.00000000000E+00  0.00000000000E+00  0.20592526468E+03  0.20592526468E+03  0.00000000000E+00 0. -1.
         21   -1    0    0  501  503 -0.00000000000E+00 -0.00000000000E+00 -0.38176680185E+03  0.38176680185E+03  0.00000000000E+00 0. -1.
          6    1    1    2  501    0  0.13967441840E+03  0.42962855144E+02 -0.26118108248E+03  0.34568671933E+03  0.17300000000E+03 0. -1.
         -6    1    1    2    0  502 -0.13967441840E+03 -0.42962855144E+02  0.85339545309E+02  0.24200534720E+03  0.17300000000E+03 0. -1.
<mgrwt>
<rscale>  2 0.22645916E+03</rscale>
<asrwt>0</asrwt>
<pdfrwt beam="1">  1       21 0.31680810E-01 0.22645916E+03</pdfrwt>
<pdfrwt beam="2">  1       21 0.58733354E-01 0.22645916E+03</pdfrwt>
<totfact> 0.25505965E+04</totfact>
</mgrwt>
</event>
<event>
 4    3  0.4009700E+000  0.2543839E+03  0.7546771E-02  0.1110565E+00
         21   -1    0    0  501  502  0.00000000000E+00  0.00000000000E+00  0.41819038345E+03  0.41819038345E+03  0.00000000000E+00 0. -1.
         21   -1    0    0  502  503 -0.00000000000E+00 -0.00000000000E+00 -0.15479237415E+03  0.15479237415E+03  0.00000000000E+00 0.  1.
          6    1    1    2  501    0  0.18648941231E+03 -0.19629489692E+01  0.13692361481E+03  0.28889311235E+03  0.17300000000E+03 0.  1.
         -6    1    1    2    0  503 -0.18648941231E+03  0.19629489692E+01  0.12647439449E+03  0.28408964524E+03  0.17300000000E+03 0. -1.
<mgrwt>
<rscale>  2 0.25438387E+03</rscale>
<asrwt>0</asrwt>
<pdfrwt beam="1">  1       21 0.64336982E-01 0.25438387E+03</pdfrwt>
<pdfrwt beam="2">  1       21 0.23814212E-01 0.25438387E+03</pdfrwt>
<totfact> 0.35949354E+04</totfact>
</mgrwt>
</event>
<event>
 4    3  0.4009700E+000  0.2091076E+03  0.7546771E-02  0.1142275E+00
         21   -1    0    0  501  502  0.00000000000E+00  0.00000000000E+00  0.52529874050E+03  0.52529874050E+03  0.00000000000E+00 0. -1.
         21   -1    0    0  502  503 -0.00000000000E+00 -0.00000000000E+00 -0.13209801458E+03  0.13209801458E+03  0.00000000000E+00 0.  1.
          6    1    1    2  501    0 -0.11127068196E+03 -0.37627343058E+02 -0.33012757517E+01  0.20913364156E+03  0.17300000000E+03 0.  1.
         -6    1    1    2    0  503  0.11127068196E+03  0.37627343058E+02  0.39650200167E+03  0.44826311351E+03  0.17300000000E+03 0. -1.
<mgrwt>
<rscale>  2 0.20910758E+03</rscale>
<asrwt>0</asrwt>
<pdfrwt beam="1">  1       21 0.80815190E-01 0.20910758E+03</pdfrwt>
<pdfrwt beam="2">  1       21 0.20322772E-01 0.20910758E+03</pdfrwt>
<totfact> 0.29838249E+04</totfact>
</mgrwt>
</event>
<event>
 4    3  0.4009700E+000  0.2959502E+03  0.7546771E-02  0.1087283E+00
         21   -1    0    0  503  502  0.00000000000E+00  0.00000000000E+00  0.49257516214E+02  0.49257516214E+02  0.00000000000E+00 0. -1.
         21   -1    0    0  501  503 -0.00000000000E+00 -0.00000000000E+00 -0.20760315576E+04  0.20760315576E+04  0.00000000000E+00 0.  1.
          6    1    1    2  501    0  0.85597545628E+02  0.22434474632E+03 -0.14159222615E+04  0.14465207761E+04  0.17300000000E+03 0. -1.
         -6    1    1    2    0  502 -0.85597545628E+02 -0.22434474632E+03 -0.61085177990E+03  0.67876829775E+03  0.17300000000E+03 0.  1.
<mgrwt>
<rscale>  2 0.29595017E+03</rscale>
<asrwt>0</asrwt>
<pdfrwt beam="1">  1       21 0.75780768E-02 0.29595017E+03</pdfrwt>
<pdfrwt beam="2">  1       21 0.31938958E+00 0.29595017E+03</pdfrwt>
<totfact> 0.31364154E+03</totfact>
</mgrwt>
</event>
<event>
 4    3  0.4009700E+000  0.2469410E+03  0.7546771E-02  0.1115253E+00
         21   -1    0    0  501  502  0.00000000000E+00  0.00000000000E+00  0.24032484541E+04  0.24032484541E+04  0.00000000000E+00 0. -1.
         21   -1    0    0  502  503 -0.00000000000E+00 -0.00000000000E+00 -0.25376383359E+02  0.25376383359E+02  0.00000000000E+00 0. -1.
          6    1    1    2  501    0 -0.10652030038E+03  0.14037188420E+03  0.11769782719E+04  0.12026045454E+04  0.17300000000E+03 0. -1.
         -6    1    1    2    0  503  0.10652030038E+03 -0.14037188420E+03  0.12008937988E+04  0.12260202920E+04  0.17300000000E+03 0. -1.
<mgrwt>
<rscale>  2 0.24694097E+03</rscale>
<asrwt>0</asrwt>
<pdfrwt beam="1">  1       21 0.36973035E+00 0.24694097E+03</pdfrwt>
<pdfrwt beam="2">  1       21 0.39040609E-02 0.24694097E+03</pdfrwt>
<totfact> 0.51136923E+03</totfact>
</mgrwt>
</event>
<event>
 4    3  0.4009700E+000  0.2627875E+03  0.7546771E-02  0.1105480E+00
         21   -1    0    0  503  502  0.00000000000E+00  0.00000000000E+00  0.12482516815E+03  0.12482516815E+03  0.00000000000E+00 0. -1.
         21   -1    0    0  501  503 -0.00000000000E+00 -0.00000000000E+00 -0.76729207515E+03  0.76729207515E+03  0.00000000000E+00 0.  1.
          6    1    1    2  501    0  0.37676626223E+02  0.19418742160E+03 -0.55683567128E+03  0.61572984959E+03  0.17300000000E+03 0.  1.
         -6    1    1    2    0  502 -0.37676626223E+02 -0.19418742160E+03 -0.85631235717E+02  0.27638739371E+03  0.17300000000E+03 0. -1.
<mgrwt>
<rscale>  2 0.26278752E+03</rscale>
<asrwt>0</asrwt>
<pdfrwt beam="1">  1       21 0.19203873E-01 0.26278752E+03</pdfrwt>
<pdfrwt beam="2">  1       21 0.11804493E+00 0.26278752E+03</pdfrwt>
<totfact> 0.13125226E+04</totfact>
</mgrwt>
</event>
<event>
 4    3  0.4009700E+000  0.1782480E+03  0.7546771E-02  0.1169509E+00
         21   -1    0    0  503  502  0.00000000000E+00  0.00000000000E+00  0.71421835726E+03  0.71421835726E+03  0.00000000000E+00 0. -1.
         21   -1    0    0  501  503 -0.00000000000E+00 -0.00000000000E+00 -0.10807058660E+03  0.10807058660E+03  0.00000000000E+00 0. -1.
          6    1    1    2  501    0  0.25760827323E+02 -0.34347123793E+02 -0.12294684796E+02  0.17867149860E+03  0.17300000000E+03 0. -1.
         -6    1    1    2    0  502 -0.25760827323E+02  0.34347123793E+02  0.61844245546E+03  0.64361744526E+03  0.17300000000E+03 0. -1.
<mgrwt>
<rscale>  2 0.17824799E+03</rscale>
<asrwt>0</asrwt>
<pdfrwt beam="1">  1       21 0.10987974E+00 0.17824799E+03</pdfrwt>
<pdfrwt beam="2">  1       21 0.16626245E-01 0.17824799E+03</pdfrwt>
<totfact> 0.21472198E+04</totfact>
</mgrwt>
</event>
<event>
 4    3  0.4009700E+000  0.1792923E+03  0.7546771E-02  0.1168490E+00
         21   -1    0    0  501  502  0.00000000000E+00  0.00000000000E+00  0.21269530671E+03  0.21269530671E+03  0.00000000000E+00 0. -1.
         21   -1    0    0  502  503 -0.00000000000E+00 -0.00000000000E+00 -0.22718347260E+03  0.22718347260E+03  0.00000000000E+00 0. -1.
          6    1    1    2  501    0  0.47040426688E+02  0.19787968191E+01  0.12000648602E+03  0.21574817280E+03  0.17300000000E+03 0. -1.
         -6    1    1    2    0  503 -0.47040426688E+02 -0.19787968191E+01 -0.13449465191E+03  0.22413060650E+03  0.17300000000E+03 0. -1.
<mgrwt>
<rscale>  2 0.17929227E+03</rscale>
<asrwt>0</asrwt>
<pdfrwt beam="1">  1       21 0.32722355E-01 0.17929227E+03</pdfrwt>
<pdfrwt beam="2">  1       21 0.34951303E-01 0.17929227E+03</pdfrwt>
<totfact> 0.71334155E+04</totfact>
</mgrwt>
</event>
<event>
 4    3  0.4009700E+000  0.1880693E+03  0.7546771E-02  0.1160214E+00
         21   -1    0    0  501  502  0.00000000000E+00  0.00000000000E+00  0.88039805727E+03  0.88039805727E+03  0.00000000000E+00 0.  1.
         21   -1    0    0  502  503 -0.00000000000E+00 -0.00000000000E+00 -0.34554544557E+03  0.34554544557E+03  0.00000000000E+00 0.  1.
          6    1    1    2  501    0 -0.64948354208E+02  0.34968006883E+02  0.84366355485E+03  0.86437158908E+03  0.17300000000E+03 0.  1.
         -6    1    1    2    0  503  0.64948354208E+02 -0.34968006883E+02 -0.30881094314E+03  0.36157191376E+03  0.17300000000E+03 0.  1.
<mgrwt>
<rscale>  2 0.18806927E+03</rscale>
<asrwt>0</asrwt>
<pdfrwt beam="1">  1       21 0.13544585E+00 0.18806927E+03</pdfrwt>
<pdfrwt beam="2">  1       21 0.53160838E-01 0.18806927E+03</pdfrwt>
<totfact> 0.13115557E+03</totfact>
</mgrwt>
</event>
<event>
 4    3  0.4009700E+000  0.1922021E+03  0.7546771E-02  0.1156490E+00
         21   -1    0    0  503  502  0.00000000000E+00  0.00000000000E+00  0.36255125245E+03  0.36255125245E+03  0.00000000000E+00 0.  1.
         21   -1    0    0  501  503 -0.00000000000E+00 -0.00000000000E+00 -0.14642275050E+03  0.14642275050E+03  0.00000000000E+00 0. -1.
          6    1    1    2  501    0 -0.44204683339E+02 -0.71123757277E+02 -0.32276454700E+02  0.19489333597E+03  0.17300000000E+03 0. -1.
         -6    1    1    2    0  502  0.44204683339E+02  0.71123757277E+02  0.24840495665E+03  0.31408066697E+03  0.17300000000E+03 0.  1.
<mgrwt>
<rscale>  2 0.19220209E+03</rscale>
<asrwt>0</asrwt>
<pdfrwt beam="1">  1       21 0.55777116E-01 0.19220209E+03</pdfrwt>
<pdfrwt beam="2">  1       21 0.22526577E-01 0.19220209E+03</pdfrwt>
<totfact> 0.55910263E+04</totfact>
</mgrwt>
</event>
<event>
 4    3  0.4009700E+000  0.1912128E+03  0.7546771E-02  0.1157372E+00
         21   -1    0    0  503  502  0.00000000000E+00  0.00000000000E+00  0.79285091535E+02  0.79285091535E+02  0.00000000000E+00 0. -1.
         21   -1    0    0  501  503 -0.00000000000E+00 -0.00000000000E+00 -0.47498385433E+03  0.47498385433E+03  0.00000000000E+00 0. -1.
          6    1    1    2  501    0  0.69150556891E+02 -0.43029314491E+02 -0.15055359650E+03  0.24336948626E+03  0.17300000000E+03 0.  1.
         -6    1    1    2    0  502 -0.69150556891E+02  0.43029314491E+02 -0.24514516629E+03  0.31089945960E+03  0.17300000000E+03 0.  1.
<mgrwt>
<rscale>  2 0.19121276E+03</rscale>
<asrwt>0</asrwt>
<pdfrwt beam="1">  1       21 0.12197706E-01 0.19121276E+03</pdfrwt>
<pdfrwt beam="2">  1       21 0.73074441E-01 0.19121276E+03</pdfrwt>
<totfact> 0.96072557E+04</totfact>
</mgrwt>
</event>
<event>
 4    3  0.4009700E+000  0.1940175E+03  0.7546771E-02  0.1154887E+00
         21   -1    0    0  503  502  0.00000000000E+00  0.00000000000E+00  0.17996903015E+03  0.17996903015E+03  0.00000000000E+00 0. -1.
         21   -1    0    0  501  503 -0.00000000000E+00 -0.00000000000E+00 -0.44659688575E+03  0.44659688575E+03  0.00000000000E+00 0.  1.
          6    1    1    2  501    0  0.12976699016E+02 -0.86864129149E+02  0.95114807854E+02  0.21607775990E+03  0.17300000000E+03 0. -1.
         -6    1    1    2    0  502 -0.12976699016E+02  0.86864129149E+02 -0.36174266346E+03  0.41048815600E+03  0.17300000000E+03 0.  1.
<mgrwt>
<rscale>  2 0.19401745E+03</rscale>
<asrwt>0</asrwt>
<pdfrwt beam="1">  1       21 0.27687543E-01 0.19401745E+03</pdfrwt>
<pdfrwt beam="2">  1       21 0.68707213E-01 0.19401745E+03</pdfrwt>
<totfact> 0.24018508E+04</totfact>
</mgrwt>
</event>
<event>
 4    3  0.4009700E+000  0.1831219E+03  0.7546771E-02  0.1164815E+00
         21   -1    0    0  501  502  0.00000000000E+00  0.00000000000E+00  0.65814980684E+03  0.65814980684E+03  0.00000000000E+00 0. -1.
         21   -1    0    0  502  503 -0.00000000000E+00 -0.00000000000E+00 -0.66573149747E+02  0.66573149747E+02  0.00000000000E+00 0. -1.
          6    1    1    2  501    0 -0.55377809112E+02 -0.23193304242E+02  0.47132093168E+03  0.50564518365E+03  0.17300000000E+03 0. -1.
         -6    1    1    2    0  503  0.55377809112E+02  0.23193304242E+02  0.12025572542E+03  0.21907777295E+03  0.17300000000E+03 0. -1.
<mgrwt>
<rscale>  2 0.18312190E+03</rscale>
<asrwt>0</asrwt>
<pdfrwt beam="1">  1       21 0.10125381E+00 0.18312190E+03</pdfrwt>
<pdfrwt beam="2">  1       21 0.10242024E-01 0.18312190E+03</pdfrwt>
<totfact> 0.62271362E+04</totfact>
</mgrwt>
</event>
<event>
 4    3  0.4009700E+000  0.2296388E+03  0.7546771E-02  0.1126894E+00
         21   -1    0    0  503  502  0.00000000000E+00  0.00000000000E+00  0.30801574584E+03  0.30801574584E+03  0.00000000000E+00 0.  1.
         21   -1    0    0  501  503 -0.00000000000E+00 -0.00000000000E+00 -0.19407856777E+03  0.19407856777E+03  0.00000000000E+00 0. -1.
          6    1    1    2  501    0  0.13908490353E+03  0.58824996502E+02 -0.29215818546E+02  0.23148985865E+03  0.17300000000E+03 0. -1.
         -6    1    1    2    0  502 -0.13908490353E+03 -0.58824996502E+02  0.14315299661E+03  0.27060445496E+03  0.17300000000E+03 0.  1.
<mgrwt>
<rscale>  2 0.22963883E+03</rscale>
<asrwt>0</asrwt>
<pdfrwt beam="1">  1       21 0.47387038E-01 0.22963883E+03</pdfrwt>
<pdfrwt beam="2">  1       21 0.29858241E-01 0.22963883E+03</pdfrwt>
<totfact> 0.45013560E+04</totfact>
</mgrwt>
</event>
<event>
 4    3  0.4009700E+000  0.1896630E+03  0.7546771E-02  0.1158766E+00
         21   -1    0    0  503  502  0.00000000000E+00  0.00000000000E+00  0.30217659888E+03  0.30217659888E+03  0.00000000000E+00 0.  1.
         21   -1    0    0  501  503 -0.00000000000E+00 -0.00000000000E+00 -0.18289770281E+03  0.18289770281E+03  0.00000000000E+00 0.  1.
          6    1    1    2  501    0  0.72871596257E+02 -0.27069751945E+02 -0.83668483729E+02  0.20729798885E+03  0.17300000000E+03 0.  1.
         -6    1    1    2    0  502 -0.72871596257E+02  0.27069751945E+02  0.20294737980E+03  0.27777631285E+03  0.17300000000E+03 0.  1.
<mgrwt>
<rscale>  2 0.18966297E+03</rscale>
<asrwt>0</asrwt>
<pdfrwt beam="1">  1       21 0.46488707E-01 0.18966297E+03</pdfrwt>
<pdfrwt beam="2">  1       21 0.28138108E-01 0.18966297E+03</pdfrwt>
<totfact> 0.53555528E+04</totfact>
</mgrwt>
</event>
<event>
 4    3  0.4009700E+000  0.2107755E+03  0.7546771E-02  0.1140953E+00
         21   -1    0    0  501  502  0.00000000000E+00  0.00000000000E+00  0.15435709814E+03  0.15435709814E+03  0.00000000000E+00 0. -1.
         21   -1    0    0  502  503 -0.00000000000E+00 -0.00000000000E+00 -0.28853550063E+03  0.28853550063E+03  0.00000000000E+00 0.  1.
          6    1    1    2  501    0  0.10978052750E+03  0.49452618180E+02 -0.56025184480E+02  0.21809435334E+03  0.17300000000E+03 0. -1.
         -6    1    1    2    0  503 -0.10978052750E+03 -0.49452618180E+02 -0.78153218014E+02  0.22479824543E+03  0.17300000000E+03 0. -1.
<mgrwt>
<rscale>  2 0.21077553E+03</rscale>
<asrwt>0</asrwt>
<pdfrwt beam="1">  1       21 0.23747246E-01 0.21077553E+03</pdfrwt>
<pdfrwt beam="2">  1       21 0.44390076E-01 0.21077553E+03</pdfrwt>
<totfact> 0.80779058E+04</totfact>
</mgrwt>
</event>
<event>
 4    3  0.4009700E+000  0.1791237E+03  0.7546771E-02  0.1168654E+00
         21   -1    0    0  501  502  0.00000000000E+00  0.00000000000E+00  0.39309906199E+03  0.39309906199E+03  0.00000000000E+00 0. -1.
         21   -1    0    0  502  503 -0.00000000000E+00 -0.00000000000E+00 -0.21584694062E+03  0.21584694062E+03  0.00000000000E+00 0. -1.
          6    1    1    2  501    0  0.41651793772E+02 -0.20528615473E+02  0.32872675706E+03  0.37436155890E+03  0.17300000000E+03 0. -1.
         -6    1    1    2    0  503 -0.41651793772E+02  0.20528615473E+02 -0.15147463568E+03  0.23458444371E+03  0.17300000000E+03 0. -1.
<mgrwt>
<rscale>  2 0.17912369E+03</rscale>
<asrwt>0</asrwt>
<pdfrwt beam="1">  1       21 0.60476779E-01 0.17912369E+03</pdfrwt>
<pdfrwt beam="2">  1       21 0.33207222E-01 0.17912369E+03</pdfrwt>
<totfact> 0.22421526E+04</totfact>
</mgrwt>
</event>
<event>
 4    3  0.4009700E+000  0.2209103E+03  0.7546771E-02  0.1133206E+00
         21   -1    0    0  503  502  0.00000000000E+00  0.00000000000E+00  0.20264325929E+03  0.20264325929E+03  0.00000000000E+00 0.  1.
         21   -1    0    0  501  503 -0.00000000000E+00 -0.00000000000E+00 -0.32127953486E+03  0.32127953486E+03  0.00000000000E+00 0.  1.
          6    1    1    2  501    0  0.13501289648E+03 -0.25374389339E+02  0.71773193924E+02  0.23227727658E+03  0.17300000000E+03 0.  1.
         -6    1    1    2    0  502 -0.13501289648E+03  0.25374389339E+02 -0.19040946949E+03  0.29164551757E+03  0.17300000000E+03 0.  1.
<mgrwt>
<rscale>  2 0.22091026E+03</rscale>
<asrwt>0</asrwt>
<pdfrwt beam="1">  1       21 0.31175886E-01 0.22091026E+03</pdfrwt>
<pdfrwt beam="2">  1       21 0.49427621E-01 0.22091026E+03</pdfrwt>
<totfact> 0.38034337E+04</totfact>
</mgrwt>
</event>
<event>
 4    3  0.4009700E+000  0.3048921E+03  0.7546771E-02  0.1082820E+00
         21   -1    0    0  501  502  0.00000000000E+00  0.00000000000E+00  0.87383716784E+03  0.87383716784E+03  0.00000000000E+00 0.  1.
         21   -1    0    0  502  503 -0.00000000000E+00 -0.00000000000E+00 -0.24269497907E+03  0.24269497907E+03  0.00000000000E+00 0. -1.
          6    1    1    2  501    0 -0.23030422883E+03  0.99950778778E+02  0.73396168134E+03  0.79476974381E+03  0.17300000000E+03 0.  1.
         -6    1    1    2    0  503  0.23030422883E+03 -0.99950778778E+02 -0.10281949257E+03  0.32176240310E+03  0.17300000000E+03 0. -1.
<mgrwt>
<rscale>  2 0.30489211E+03</rscale>
<asrwt>0</asrwt>
<pdfrwt beam="1">  1       21 0.13443649E+00 0.30489211E+03</pdfrwt>
<pdfrwt beam="2">  1       21 0.37337690E-01 0.30489211E+03</pdfrwt>
<totfact> 0.25316871E+03</totfact>
</mgrwt>
</event>
<event>
 4    3  0.4009700E+000  0.1978578E+03  0.7546771E-02  0.1151559E+00
         21   -1    0    0  503  502  0.00000000000E+00  0.00000000000E+00  0.26369095162E+03  0.26369095162E+03  0.00000000000E+00 0. -1.
         21   -1    0    0  501  503 -0.00000000000E+00 -0.00000000000E+00 -0.19315424683E+03  0.19315424683E+03  0.00000000000E+00 0. -1.
          6    1    1    2  501    0 -0.12505817930E+02 -0.95196156993E+02 -0.74609478224E+02  0.21145750880E+03  0.17300000000E+03 0. -1.
         -6    1    1    2    0  502  0.12505817930E+02  0.95196156993E+02  0.14514618301E+03  0.24538768965E+03  0.17300000000E+03 0. -1.
<mgrwt>
<rscale>  2 0.19785779E+03</rscale>
<asrwt>0</asrwt>
<pdfrwt beam="1">  1       21 0.40567839E-01 0.19785779E+03</pdfrwt>
<pdfrwt beam="2">  1       21 0.29716038E-01 0.19785779E+03</pdfrwt>
<totfact> 0.63399551E+04</totfact>
</mgrwt>
</event>
<event>
 4    3  0.4009700E+000  0.1915112E+03  0.7546771E-02  0.1157105E+00
         21   -1    0    0  501  502  0.00000000000E+00  0.00000000000E+00  0.18220648008E+03  0.18220648008E+03  0.00000000000E+00 0.  1.
         21   -1    0    0  502  503 -0.00000000000E+00 -0.00000000000E+00 -0.59189140889E+03  0.59189140889E+03  0.00000000000E+00 0.  1.
          6    1    1    2  501    0 -0.60146167489E+02 -0.55946376763E+02  0.10957822271E+03  0.22064438680E+03  0.17300000000E+03 0.  1.
         -6    1    1    2    0  503  0.60146167489E+02  0.55946376763E+02 -0.51926315152E+03  0.55345350217E+03  0.17300000000E+03 0.  1.
<mgrwt>
<rscale>  2 0.19151125E+03</rscale>
<asrwt>0</asrwt>
<pdfrwt beam="1">  1       21 0.28031766E-01 0.19151125E+03</pdfrwt>
<pdfrwt beam="2">  1       21 0.91060219E-01 0.19151125E+03</pdfrwt>
<totfact> 0.12439839E+04</totfact>
</mgrwt>
</event>
<event>
 4    3  0.4009700E+000  0.1948538E+03  0.7546771E-02  0.1154155E+00
         21   -1    0    0  503  502  0.00000000000E+00  0.00000000000E+00  0.17938856673E+04  0.17938856673E+04  0.00000000000E+00 0. -1.
         21   -1    0    0  501  503 -0.00000000000E+00 -0.00000000000E+00 -0.43566410601E+02  0.43566410601E+02  0.00000000000E+00 0. -1.
          6    1    1    2  501    0 -0.40359597680E+02 -0.80063138740E+02  0.21637177057E+03  0.29117820387E+03  0.17300000000E+03 0. -1.
         -6    1    1    2    0  502  0.40359597680E+02  0.80063138740E+02  0.15339474861E+04  0.15462738740E+04  0.17300000000E+03 0. -1.
<mgrwt>
<rscale>  2 0.19485380E+03</rscale>
<asrwt>0</asrwt>
<pdfrwt beam="1">  1       21 0.27598235E+00 0.19485380E+03</pdfrwt>
<pdfrwt beam="2">  1       21 0.67025261E-02 0.19485380E+03</pdfrwt>
<totfact> 0.76352607E+03</totfact>
</mgrwt>
</event>
<event>
 4    3  0.4009700E+000  0.1801153E+03  0.7546771E-02  0.1167691E+00
         21   -1    0    0  503  502  0.00000000000E+00  0.00000000000E+00  0.89018827401E+02  0.89018827401E+02  0.00000000000E+00 0.  1.
         21   -1    0    0  501  503 -0.00000000000E+00 -0.00000000000E+00 -0.16236866951E+04  0.16236866951E+04  0.00000000000E+00 0.  1.
          6    1    1    2  501    0  0.45351314262E+02  0.21349236163E+02 -0.15214842982E+04  0.15321083517E+04  0.17300000000E+03 0.  1.
         -6    1    1    2    0  502 -0.45351314262E+02 -0.21349236163E+02 -0.13183569448E+02  0.18059717078E+03  0.17300000000E+03 0.  1.
<mgrwt>
<rscale>  2 0.18011533E+03</rscale>
<asrwt>0</asrwt>
<pdfrwt beam="1">  1       21 0.13695204E-01 0.18011533E+03</pdfrwt>
<pdfrwt beam="2">  1       21 0.24979795E+00 0.18011533E+03</pdfrwt>
<totfact> 0.31290770E+03</totfact>
</mgrwt>
</event>
<event>
 4    3  0.4009700E+000  0.2296176E+03  0.7546771E-02  0.1126909E+00
         21   -1    0    0  503  502  0.00000000000E+00  0.00000000000E+00  0.56406700112E+03  0.56406700112E+03  0.00000000000E+00 0.  1.
         21   -1    0    0  501  503 -0.00000000000E+00 -0.00000000000E+00 -0.97594324292E+02  0.97594324292E+02  0.00000000000E+00 0. -1.
          6    1    1    2  501    0 -0.12213000191E+03  0.88766703142E+02  0.30123240125E+03  0.37876803524E+03  0.17300000000E+03 0.  1.
         -6    1    1    2    0  502  0.12213000191E+03 -0.88766703142E+02  0.16524027558E+03  0.28289329018E+03  0.17300000000E+03 0. -1.
<mgrwt>
<rscale>  2 0.22961765E+03</rscale>
<asrwt>0</asrwt>
<pdfrwt beam="1">  1       21 0.86779537E-01 0.22961765E+03</pdfrwt>
<pdfrwt beam="2">  1       21 0.15014512E-01 0.22961765E+03</pdfrwt>
<totfact> 0.43936277E+04</totfact>
</mgrwt>
</event>
<event>
 4    3  0.4009700E+000  0.1809888E+03  0.7546771E-02  0.1166849E+00
         21   -1    0    0  501  502  0.00000000000E+00  0.00000000000E+00  0.38485519174E+03  0.38485519174E+03  0.00000000000E+00 0.  1.
         21   -1    0    0  502  503 -0.00000000000E+00 -0.00000000000E+00 -0.40844855855E+03  0.40844855855E+03  0.00000000000E+00 0.  1.
          6    1    1    2  501    0  0.46455932125E+02  0.25880520379E+02  0.34111514087E+03  0.38615604915E+03  0.17300000000E+03 0.  1.
         -6    1    1    2    0  503 -0.46455932125E+02 -0.25880520379E+02 -0.36470850768E+03  0.40714770114E+03  0.17300000000E+03 0.  1.
<mgrwt>
<rscale>  2 0.18098883E+03</rscale>
<asrwt>0</asrwt>
<pdfrwt beam="1">  1       21 0.59208491E-01 0.18098883E+03</pdfrwt>
<pdfrwt beam="2">  1       21 0.62838240E-01 0.18098883E+03</pdfrwt>
<totfact> 0.63087273E+03</totfact>
</mgrwt>
</event>
<event>
 4    3  0.4009700E+000  0.1854903E+03  0.7546771E-02  0.1162593E+00
         21   -1    0    0  501  502  0.00000000000E+00  0.00000000000E+00  0.41435492793E+02  0.41435492793E+02  0.00000000000E+00 0.  1.
         21   -1    0    0  502  503 -0.00000000000E+00 -0.00000000000E+00 -0.83086866757E+03  0.83086866757E+03  0.00000000000E+00 0.  1.
          6    1    1    2  501    0  0.10939636840E+02 -0.66014888903E+02 -0.40544009689E+03  0.44585683058E+03  0.17300000000E+03 0.  1.
         -6    1    1    2    0  503 -0.10939636840E+02  0.66014888903E+02 -0.38399307789E+03  0.42644732978E+03  0.17300000000E+03 0.  1.
<mgrwt>
<rscale>  2 0.18549027E+03</rscale>
<asrwt>0</asrwt>
<pdfrwt beam="1">  1       21 0.63746912E-02 0.18549027E+03</pdfrwt>
<pdfrwt beam="2">  1       21 0.12782595E+00 0.18549027E+03</pdfrwt>
<totfact> 0.80423718E+04</totfact>
</mgrwt>
</event>
<event>
 4    3  0.4009700E+000  0.1762081E+03  0.7546771E-02  0.1171524E+00
         21   -1    0    0  501  502  0.00000000000E+00  0.00000000000E+00  0.14613440810E+03  0.14613440810E+03  0.00000000000E+00 0.  1.
         21   -1    0    0  502  503 -0.00000000000E+00 -0.00000000000E+00 -0.28494120971E+03  0.28494120971E+03  0.00000000000E+00 0.  1.
          6    1    1    2  501    0  0.20031955636E+02 -0.26814537179E+02  0.39295738904E+02  0.18053657177E+03  0.17300000000E+03 0. -1.
         -6    1    1    2    0  503 -0.20031955636E+02  0.26814537179E+02 -0.17810254052E+03  0.25053904604E+03  0.17300000000E+03 0. -1.
<mgrwt>
<rscale>  2 0.17620811E+03</rscale>
<asrwt>0</asrwt>
<pdfrwt beam="1">  1       21 0.22482217E-01 0.17620811E+03</pdfrwt>
<pdfrwt beam="2">  1       21 0.43837109E-01 0.17620811E+03</pdfrwt>
<totfact> 0.93240166E+04</totfact>
</mgrwt>
</event>
<event>
 4    3  0.4009700E+000  0.1752335E+03  0.7546771E-02  0.1172497E+00
         21   -1    0    0  501  502  0.00000000000E+00  0.00000000000E+00  0.82213758502E+03  0.82213758502E+03  0.00000000000E+00 0. -1.
         21   -1    0    0  502  503 -0.00000000000E+00 -0.00000000000E+00 -0.42110734889E+02  0.42110734889E+02  0.00000000000E+00 0. -1.
          6    1    1    2  501    0 -0.25527052821E+02 -0.11231089386E+02  0.53530923030E+03  0.56326080979E+03  0.17300000000E+03 0. -1.
         -6    1    1    2    0  503  0.25527052821E+02  0.11231089386E+02  0.24471761983E+03  0.30098751012E+03  0.17300000000E+03 0. -1.
<mgrwt>
<rscale>  2 0.17523347E+03</rscale>
<asrwt>0</asrwt>
<pdfrwt beam="1">  1       21 0.12648269E+00 0.17523347E+03</pdfrwt>
<pdfrwt beam="2">  1       21 0.64785752E-02 0.17523347E+03</pdfrwt>
<totfact> 0.80716047E+04</totfact>
</mgrwt>
</event>
<event>
 4    3  0.4009700E+000  0.2793540E+03  0.7546771E-02  0.1096042E+00
         21   -1    0    0  501  502  0.00000000000E+00  0.00000000000E+00  0.15306475066E+03  0.15306475066E+03  0.00000000000E+00 0.  1.
         21   -1    0    0  502  503 -0.00000000000E+00 -0.00000000000E+00 -0.14394772158E+04  0.14394772158E+04  0.00000000000E+00 0. -1.
          6    1    1    2  501    0  0.10732312816E+03 -0.19128879700E+03 -0.33018980900E+01  0.27937351383E+03  0.17300000000E+03 0.  1.
         -6    1    1    2    0  503 -0.10732312816E+03  0.19128879700E+03 -0.12831105670E+04  0.13131684526E+04  0.17300000000E+03 0. -1.
<mgrwt>
<rscale>  2 0.27935400E+03</rscale>
<asrwt>0</asrwt>
<pdfrwt beam="1">  1       21 0.23548425E-01 0.27935400E+03</pdfrwt>
<pdfrwt beam="2">  1       21 0.22145802E+00 0.27935400E+03</pdfrwt>
<totfact> 0.15429215E+03</totfact>
</mgrwt>
</event>
<event>
 4    3  0.4009700E+000  0.2177299E+03  0.7546771E-02  0.1135587E+00
         21   -1    0    0  501  502  0.00000000000E+00  0.00000000000E+00  0.33672083811E+03  0.33672083811E+03  0.00000000000E+00 0.  1.
         21   -1    0    0  502  503 -0.00000000000E+00 -0.00000000000E+00 -0.19259762933E+03  0.19259762933E+03  0.00000000000E+00 0.  1.
          6    1    1    2  501    0  0.68016144260E+02  0.11336280007E+03  0.20932855667E+03  0.30203437711E+03  0.17300000000E+03 0.  1.
         -6    1    1    2    0  503 -0.68016144260E+02 -0.11336280007E+03 -0.65205347893E+02  0.22728409032E+03  0.17300000000E+03 0.  1.
<mgrwt>
<rscale>  2 0.21772993E+03</rscale>
<asrwt>0</asrwt>
<pdfrwt beam="1">  1       21 0.51803206E-01 0.21772993E+03</pdfrwt>
<pdfrwt beam="2">  1       21 0.29630405E-01 0.21772993E+03</pdfrwt>
<totfact> 0.38137456E+04</totfact>
</mgrwt>
</event>
<event>
 4    3  0.4009700E+000  0.2301919E+03  0.7546771E-02  0.1126505E+00
         21   -1    0    0  501  502  0.00000000000E+00  0.00000000000E+00  0.77427054137E+03  0.77427054137E+03  0.00000000000E+00 0.  1.
         21   -1    0    0  502  503 -0.00000000000E+00 -0.00000000000E+00 -0.78935191397E+02  0.78935191397E+02  0.00000000000E+00 0. -1.
          6    1    1    2  501    0 -0.81326220802E+01 -0.15163506000E+03  0.50324881679E+03  0.55339651478E+03  0.17300000000E+03 0. -1.
         -6    1    1    2    0  503  0.81326220802E+01  0.15163506000E+03  0.19208653318E+03  0.29980921799E+03  0.17300000000E+03 0.  1.
<mgrwt>
<rscale>  2 0.23019194E+03</rscale>
<asrwt>0</asrwt>
<pdfrwt beam="1">  1       21 0.11911854E+00 0.23019194E+03</pdfrwt>
<pdfrwt beam="2">  1       21 0.12143876E-01 0.23019194E+03</pdfrwt>
<totfact> 0.30253013E+04</totfact>
</mgrwt>
</event>
<event>
 4    3  0.4009700E+000  0.2393713E+03  0.7546771E-02  0.1120212E+00
         21   -1    0    0  503  502  0.00000000000E+00  0.00000000000E+00  0.12145853978E+03  0.12145853978E+03  0.00000000000E+00 0. -1.
         21   -1    0    0  501  503 -0.00000000000E+00 -0.00000000000E+00 -0.47670425673E+03  0.47670425673E+03  0.00000000000E+00 0.  1.
          6    1    1    2  501    0  0.96943203061E+02 -0.13405840964E+03 -0.20809803990E+03  0.31718044710E+03  0.17300000000E+03 0.  1.
         -6    1    1    2    0  502 -0.96943203061E+02  0.13405840964E+03 -0.14714767706E+03  0.28098234940E+03  0.17300000000E+03 0.  1.
<mgrwt>
<rscale>  2 0.23937135E+03</rscale>
<asrwt>0</asrwt>
<pdfrwt beam="1">  1       21 0.18685929E-01 0.23937135E+03</pdfrwt>
<pdfrwt beam="2">  1       21 0.73339115E-01 0.23937135E+03</pdfrwt>
<totfact> 0.42812159E+04</totfact>
</mgrwt>
</event>
<event>
 4    3  0.4009700E+000  0.2392190E+03  0.7546771E-02  0.1120314E+00
         21   -1    0    0  503  502  0.00000000000E+00  0.00000000000E+00  0.45775503309E+02  0.45775503309E+02  0.00000000000E+00 0.  1.
         21   -1    0    0  501  503 -0.00000000000E+00 -0.00000000000E+00 -0.12510949279E+04  0.12510949279E+04  0.00000000000E+00 0.  1.
          6    1    1    2  501    0  0.10490610540E+03  0.12763792970E+03 -0.62058569960E+03  0.66509573942E+03  0.17300000000E+03 0.  1.
         -6    1    1    2    0  502 -0.10490610540E+03 -0.12763792970E+03 -0.58473372504E+03  0.63177469184E+03  0.17300000000E+03 0.  1.
<mgrwt>
<rscale>  2 0.23921900E+03</rscale>
<asrwt>0</asrwt>
<pdfrwt beam="1">  1       21 0.70423849E-02 0.23921900E+03</pdfrwt>
<pdfrwt beam="2">  1       21 0.19247615E+00 0.23921900E+03</pdfrwt>
<totfact> 0.21787334E+04</totfact>
</mgrwt>
</event>
<event>
 4    3  0.4009700E+000  0.1798397E+03  0.7546771E-02  0.1167958E+00
         21   -1    0    0  503  502  0.00000000000E+00  0.00000000000E+00  0.80890054044E+02  0.80890054044E+02  0.00000000000E+00 0. -1.
         21   -1    0    0  501  503 -0.00000000000E+00 -0.00000000000E+00 -0.12861961211E+04  0.12861961211E+04  0.00000000000E+00 0. -1.
          6    1    1    2  501    0 -0.30982153574E+02 -0.38123807360E+02 -0.11700914384E+04  0.11838311927E+04  0.17300000000E+03 0. -1.
         -6    1    1    2    0  502  0.30982153574E+02  0.38123807360E+02 -0.35214628651E+02  0.18325498247E+03  0.17300000000E+03 0. -1.
<mgrwt>
<rscale>  2 0.17983970E+03</rscale>
<asrwt>0</asrwt>
<pdfrwt beam="1">  1       21 0.12444624E-01 0.17983970E+03</pdfrwt>
<pdfrwt beam="2">  1       21 0.19787632E+00 0.17983970E+03</pdfrwt>
<totfact> 0.77054055E+03</totfact>
</mgrwt>
</event>
<event>
 4    3  0.4009700E+000  0.2665695E+03  0.7546771E-02  0.1103259E+00
         21   -1    0    0  501  502  0.00000000000E+00  0.00000000000E+00  0.50092002934E+02  0.50092002934E+02  0.00000000000E+00 0.  1.
         21   -1    0    0  502  503 -0.00000000000E+00 -0.00000000000E+00 -0.14224940743E+04  0.14224940743E+04  0.00000000000E+00 0. -1.
          6    1    1    2  501    0  0.18139275073E+01 -0.20279796577E+03 -0.72484400926E+03  0.77230702639E+03  0.17300000000E+03 0.  1.
         -6    1    1    2    0  503 -0.18139275073E+01  0.20279796577E+03 -0.64755806213E+03  0.70027905087E+03  0.17300000000E+03 0. -1.
<mgrwt>
<rscale>  2 0.26656951E+03</rscale>
<asrwt>0</asrwt>
<pdfrwt beam="1">  1       21 0.77064632E-02 0.26656951E+03</pdfrwt>
<pdfrwt beam="2">  1       21 0.21884521E+00 0.26656951E+03</pdfrwt>
<totfact> 0.12396200E+04</totfact>
</mgrwt>
</event>
<event>
 4    3  0.4009700E+000  0.2076473E+03  0.7546771E-02  0.1143443E+00
         21   -1    0    0  501  502  0.00000000000E+00  0.00000000000E+00  0.28685238542E+03  0.28685238542E+03  0.00000000000E+00 0.  1.
         21   -1    0    0  502  503 -0.00000000000E+00 -0.00000000000E+00 -0.36774273143E+03  0.36774273143E+03  0.00000000000E+00 0. -1.
          6    1    1    2  501    0 -0.47975271808E+02 -0.10433964166E+03  0.21122460708E+03  0.29619794423E+03  0.17300000000E+03 0.  1.
         -6    1    1    2    0  503  0.47975271808E+02  0.10433964166E+03 -0.29211495309E+03  0.35839717262E+03  0.17300000000E+03 0. -1.
<mgrwt>
<rscale>  2 0.20764727E+03</rscale>
<asrwt>0</asrwt>
<pdfrwt beam="1">  1       21 0.44131137E-01 0.20764727E+03</pdfrwt>
<pdfrwt beam="2">  1       21 0.56575804E-01 0.20764727E+03</pdfrwt>
<totfact> 0.14351303E+04</totfact>
</mgrwt>
</event>
<event>
 4    3  0.4009700E+000  0.1822648E+03  0.7546771E-02  0.1165629E+00
         21   -1    0    0  503  502  0.00000000000E+00  0.00000000000E+00  0.33381547828E+02  0.33381547828E+02  0.00000000000E+00 0. -1.
         21   -1    0    0  501  503 -0.00000000000E+00 -0.00000000000E+00 -0.10430286352E+04  0.10430286352E+04  0.00000000000E+00 0. -1.
          6    1    1    2  501    0  0.38813013751E+02 -0.42249253705E+02 -0.62010555788E+03  0.64633687222E+03  0.17300000000E+03 0. -1.
         -6    1    1    2    0  502 -0.38813013751E+02  0.42249253705E+02 -0.38954152953E+03  0.43007331085E+03  0.17300000000E+03 0. -1.
<mgrwt>
<rscale>  2 0.18226478E+03</rscale>
<asrwt>0</asrwt>
<pdfrwt beam="1">  1       21 0.51356222E-02 0.18226478E+03</pdfrwt>
<pdfrwt beam="2">  1       21 0.16046596E+00 0.18226478E+03</pdfrwt>
<totfact> 0.64557798E+04</totfact>
</mgrwt>
</event>
<event>
 4    3  0.4009700E+000  0.2458221E+03  0.7546771E-02  0.1115974E+00
         21   -1    0    0  501  502  0.00000000000E+00  0.00000000000E+00  0.17013540979E+03  0.17013540979E+03  0.00000000000E+00 0. -1.
         21   -1    0    0  502  503 -0.00000000000E+00 -0.00000000000E+00 -0.56811460069E+03  0.56811460069E+03  0.00000000000E+00 0.  1.
          6    1    1    2  501    0 -0.10810917012E+03 -0.13715650996E+03  0.26995487159E+02  0.24729993371E+03  0.17300000000E+03 0. -1.
         -6    1    1    2    0  503  0.10810917012E+03  0.13715650996E+03 -0.42497467806E+03  0.49095007677E+03  0.17300000000E+03 0.  1.
<mgrwt>
<rscale>  2 0.24582209E+03</rscale>
<asrwt>0</asrwt>
<pdfrwt beam="1">  1       21 0.26174679E-01 0.24582209E+03</pdfrwt>
<pdfrwt beam="2">  1       21 0.87402245E-01 0.24582209E+03</pdfrwt>
<totfact> 0.15110439E+04</totfact>
</mgrwt>
</event>
<event>
 4    3  0.4009700E+000  0.2922792E+03  0.7546771E-02  0.1089165E+00
         21   -1    0    0  501  502  0.00000000000E+00  0.00000000000E+00  0.56691063685E+03  0.56691063685E+03  0.00000000000E+00 0.  1.
         21   -1    0    0  502  503 -0.00000000000E+00 -0.00000000000E+00 -0.15878543772E+03  0.15878543772E+03  0.00000000000E+00 0.  1.
          6    1    1    2  501    0 -0.20582808931E+03 -0.11459893409E+03  0.12212746604E+03  0.31676842646E+03  0.17300000000E+03 0.  1.
         -6    1    1    2    0  503  0.20582808931E+03  0.11459893409E+03  0.28599773310E+03  0.40892764810E+03  0.17300000000E+03 0.  1.
<mgrwt>
<rscale>  2 0.29227918E+03</rscale>
<asrwt>0</asrwt>
<pdfrwt beam="1">  1       21 0.87217020E-01 0.29227918E+03</pdfrwt>
<pdfrwt beam="2">  1       21 0.24428529E-01 0.29227918E+03</pdfrwt>
<totfact> 0.16966524E+04</totfact>
</mgrwt>
</event>
<event>
 4    3  0.4009700E+000  0.1754451E+03  0.7546771E-02  0.1172286E+00
         21   -1    0    0  503  502  0.00000000000E+00  0.00000000000E+00  0.59884397700E+02  0.59884397700E+02  0.00000000000E+00 0.  1.
         21   -1    0    0  501  503 -0.00000000000E+00 -0.00000000000E+00 -0.55749911815E+03  0.55749911815E+03  0.00000000000E+00 0.  1.
          6    1    1    2  501    0  0.78228261181E+01 -0.28121049169E+02 -0.33502755925E+03  0.37818574203E+03  0.17300000000E+03 0.  1.
         -6    1    1    2    0  502 -0.78228261181E+01  0.28121049169E+02 -0.16258716120E+03  0.23919777382E+03  0.17300000000E+03 0.  1.
<mgrwt>
<rscale>  2 0.17544512E+03</rscale>
<asrwt>0</asrwt>
<pdfrwt beam="1">  1       21 0.92129844E-02 0.17544512E+03</pdfrwt>
<pdfrwt beam="2">  1       21 0.85769094E-01 0.17544512E+03</pdfrwt>
<totfact> 0.11078464E+05</totfact>
</mgrwt>
</event>
<event>
 4    3  0.4009700E+000  0.3212668E+03  0.7546771E-02  0.1075068E+00
         21   -1    0    0  503  502  0.00000000000E+00  0.00000000000E+00  0.32970116054E+03  0.32970116054E+03  0.00000000000E+00 0. -1.
         21   -1    0    0  501  503 -0.00000000000E+00 -0.00000000000E+00 -0.32422911223E+03  0.32422911223E+03  0.00000000000E+00 0. -1.
          6    1    1    2  501    0 -0.17212103797E+03  0.20894431885E+03 -0.57981293279E+02  0.32645705761E+03  0.17300000000E+03 0. -1.
         -6    1    1    2    0  502  0.17212103797E+03 -0.20894431885E+03  0.63453341593E+02  0.32747321517E+03  0.17300000000E+03 0. -1.
<mgrwt>
<rscale>  2 0.32126684E+03</rscale>
<asrwt>0</asrwt>
<pdfrwt beam="1">  1       21 0.50723255E-01 0.32126684E+03</pdfrwt>
<pdfrwt beam="2">  1       21 0.49881402E-01 0.32126684E+03</pdfrwt>
<totfact> 0.13256333E+04</totfact>
</mgrwt>
</event>
<event>
 4    3  0.4009700E+000  0.2290895E+03  0.7546771E-02  0.1127282E+00
         21   -1    0    0  503  502  0.00000000000E+00  0.00000000000E+00  0.42725209515E+02  0.42725209515E+02  0.00000000000E+00 0.  1.
         21   -1    0    0  501  503 -0.00000000000E+00 -0.00000000000E+00 -0.19984150193E+04  0.19984150193E+04  0.00000000000E+00 0.  1.
          6    1    1    2  501    0 -0.56820562855E+02 -0.13901223773E+03 -0.16113653229E+04  0.16275687950E+04  0.17300000000E+03 0. -1.
         -6    1    1    2    0  502  0.56820562855E+02  0.13901223773E+03 -0.34432448688E+03  0.41357143381E+03  0.17300000000E+03 0. -1.
<mgrwt>
<rscale>  2 0.22908946E+03</rscale>
<asrwt>0</asrwt>
<pdfrwt beam="1">  1       21 0.65731114E-02 0.22908946E+03</pdfrwt>
<pdfrwt beam="2">  1       21 0.30744836E+00 0.22908946E+03</pdfrwt>
<totfact> 0.50102386E+03</totfact>
</mgrwt>
</event>
<event>
 4    3  0.4009700E+000  0.2328215E+03  0.7546771E-02  0.1124669E+00
         21   -1    0    0  501  502  0.00000000000E+00  0.00000000000E+00  0.41565610354E+03  0.41565610354E+03  0.00000000000E+00 0. -1.
         21   -1    0    0  502  503 -0.00000000000E+00 -0.00000000000E+00 -0.23710220403E+03  0.23710220403E+03  0.00000000000E+00 0.  1.
          6    1    1    2  501    0  0.44210219729E+02  0.14940658856E+03  0.30821446132E+03  0.38626678139E+03  0.17300000000E+03 0. -1.
         -6    1    1    2    0  503 -0.44210219729E+02 -0.14940658856E+03 -0.12966056181E+03  0.26649152618E+03  0.17300000000E+03 0.  1.
<mgrwt>
<rscale>  2 0.23282155E+03</rscale>
<asrwt>0</asrwt>
<pdfrwt beam="1">  1       21 0.63947093E-01 0.23282155E+03</pdfrwt>
<pdfrwt beam="2">  1       21 0.36477262E-01 0.23282155E+03</pdfrwt>
<totfact> 0.15981078E+04</totfact>
</mgrwt>
</event>
<event>
 4    3  0.4009700E+000  0.2502507E+03  0.7546771E-02  0.1113147E+00
         21   -1    0    0  503  502  0.00000000000E+00  0.00000000000E+00  0.16506795988E+03  0.16506795988E+03  0.00000000000E+00 0.  1.
         21   -1    0    0  501  503 -0.00000000000E+00 -0.00000000000E+00 -0.54325247595E+03  0.54325247595E+03  0.00000000000E+00 0.  1.
          6    1    1    2  501    0 -0.66690542177E+02  0.16807367347E+03 -0.38359988238E+03  0.45801119844E+03  0.17300000000E+03 0.  1.
         -6    1    1    2    0  502  0.66690542177E+02 -0.16807367347E+03  0.54153663115E+01  0.25030923739E+03  0.17300000000E+03 0.  1.
<mgrwt>
<rscale>  2 0.25025065E+03</rscale>
<asrwt>0</asrwt>
<pdfrwt beam="1">  1       21 0.25395071E-01 0.25025065E+03</pdfrwt>
<pdfrwt beam="2">  1       21 0.83577304E-01 0.25025065E+03</pdfrwt>
<totfact> 0.17718228E+04</totfact>
</mgrwt>
</event>
<event>
 4    3  0.4009700E+000  0.1768477E+03  0.7546771E-02  0.1170889E+00
         21   -1    0    0  501  502  0.00000000000E+00  0.00000000000E+00  0.27178946589E+03  0.27178946589E+03  0.00000000000E+00 0.  1.
         21   -1    0    0  502  503 -0.00000000000E+00 -0.00000000000E+00 -0.13481591756E+03  0.13481591756E+03  0.00000000000E+00 0.  1.
          6    1    1    2  501    0  0.32961427696E+02  0.16113275193E+02  0.14629041004E+03  0.22951247771E+03  0.17300000000E+03 0.  1.
         -6    1    1    2    0  503 -0.32961427696E+02 -0.16113275193E+02 -0.93168617089E+01  0.17709290575E+03  0.17300000000E+03 0.  1.
<mgrwt>
<rscale>  2 0.17684766E+03</rscale>
<asrwt>0</asrwt>
<pdfrwt beam="1">  1       21 0.41813764E-01 0.17684766E+03</pdfrwt>
<pdfrwt beam="2">  1       21 0.20740910E-01 0.17684766E+03</pdfrwt>
<totfact> 0.11939575E+05</totfact>
</mgrwt>
</event>
<event>
 4    3  0.4009700E+000  0.2242791E+03  0.7546771E-02  0.1130732E+00
         21   -1    0    0  503  502  0.00000000000E+00  0.00000000000E+00  0.37960848799E+03  0.37960848799E+03  0.00000000000E+00 0. -1.
         21   -1    0    0  501  503 -0.00000000000E+00 -0.00000000000E+00 -0.13864773961E+03  0.13864773961E+03  0.00000000000E+00 0. -1.
          6    1    1    2  501    0 -0.31048290687E+02  0.13931304270E+03  0.17501055800E+03  0.28448166133E+03  0.17300000000E+03 0. -1.
         -6    1    1    2    0  502  0.31048290687E+02 -0.13931304270E+03  0.65950190380E+02  0.23377456627E+03  0.17300000000E+03 0. -1.
<mgrwt>
<rscale>  2 0.22427911E+03</rscale>
<asrwt>0</asrwt>
<pdfrwt beam="1">  1       21 0.58401305E-01 0.22427911E+03</pdfrwt>
<pdfrwt beam="2">  1       21 0.21330422E-01 0.22427911E+03</pdfrwt>
<totfact> 0.55359697E+04</totfact>
</mgrwt>
</event>
<event>
 4    3  0.4009700E+000  0.2181534E+03  0.7546771E-02  0.1135267E+00
         21   -1    0    0  503  502  0.00000000000E+00  0.00000000000E+00  0.33695213616E+03  0.33695213616E+03  0.00000000000E+00 0. -1.
         21   -1    0    0  501  503 -0.00000000000E+00 -0.00000000000E+00 -0.14420900755E+03  0.14420900755E+03  0.00000000000E+00 0.  1.
          6    1    1    2  501    0  0.35133638799E+02  0.12816995317E+03  0.13089512958E+03  0.25440999277E+03  0.17300000000E+03 0.  1.
         -6    1    1    2    0  502 -0.35133638799E+02 -0.12816995317E+03  0.61847999027E+02  0.22675115094E+03  0.17300000000E+03 0. -1.
<mgrwt>
<rscale>  2 0.21815341E+03</rscale>
<asrwt>0</asrwt>
<pdfrwt beam="1">  1       21 0.51838790E-01 0.21815341E+03</pdfrwt>
<pdfrwt beam="2">  1       21 0.22186001E-01 0.21815341E+03</pdfrwt>
<totfact> 0.66374054E+04</totfact>
</mgrwt>
</event>
<event>
 4    3  0.4009700E+000  0.1908040E+03  0.7546771E-02  0.1157738E+00
         21   -1    0    0  503  502  0.00000000000E+00  0.00000000000E+00  0.37456253405E+02  0.37456253405E+02  0.00000000000E+00 0.  1.
         21   -1    0    0  501  503 -0.00000000000E+00 -0.00000000000E+00 -0.10333801375E+04  0.10333801375E+04  0.00000000000E+00 0.  1.
          6    1    1    2  501    0 -0.79400912550E+02  0.13139733692E+02 -0.36743453437E+03  0.41402209430E+03  0.17300000000E+03 0.  1.
         -6    1    1    2    0  502  0.79400912550E+02 -0.13139733692E+02 -0.62848934969E+03  0.65681429658E+03  0.17300000000E+03 0.  1.
<mgrwt>
<rscale>  2 0.19080398E+03</rscale>
<asrwt>0</asrwt>
<pdfrwt beam="1">  1       21 0.57625003E-02 0.19080398E+03</pdfrwt>
<pdfrwt beam="2">  1       21 0.15898157E+00 0.19080398E+03</pdfrwt>
<totfact> 0.54157135E+04</totfact>
</mgrwt>
</event>
<event>
 4    3  0.4009700E+000  0.2091053E+03  0.7546771E-02  0.1142276E+00
         21   -1    0    0  503  502  0.00000000000E+00  0.00000000000E+00  0.20868644523E+04  0.20868644523E+04  0.00000000000E+00 0.  1.
         21   -1    0    0  501  503 -0.00000000000E+00 -0.00000000000E+00 -0.40680302916E+02  0.40680302916E+02  0.00000000000E+00 0. -1.
          6    1    1    2  501    0  0.77704987102E+02 -0.88079287632E+02  0.28230057860E+03  0.35130989540E+03  0.17300000000E+03 0. -1.
         -6    1    1    2    0  502 -0.77704987102E+02  0.88079287632E+02  0.17638835707E+04  0.17762348598E+04  0.17300000000E+03 0.  1.
<mgrwt>
<rscale>  2 0.20910530E+03</rscale>
<asrwt>0</asrwt>
<pdfrwt beam="1">  1       21 0.32105599E+00 0.20910530E+03</pdfrwt>
<pdfrwt beam="2">  1       21 0.62585098E-02 0.20910530E+03</pdfrwt>
<totfact> 0.46433016E+03</totfact>
</mgrwt>
</event>
<event>
 4    3  0.4009700E+000  0.1991779E+03  0.7546771E-02  0.1150434E+00
         21   -1    0    0  501  502  0.00000000000E+00  0.00000000000E+00  0.18925822276E+02  0.18925822276E+02  0.00000000000E+00 0. -1.
         21   -1    0    0  502  503 -0.00000000000E+00 -0.00000000000E+00 -0.21112304212E+04  0.21112304212E+04  0.00000000000E+00 0. -1.
          6    1    1    2  501    0 -0.74630051642E+02 -0.64600148557E+02 -0.95620895667E+03  0.97673302013E+03  0.17300000000E+03 0. -1.
         -6    1    1    2    0  503  0.74630051642E+02  0.64600148557E+02 -0.11360956423E+04  0.11534232234E+04  0.17300000000E+03 0. -1.
<mgrwt>
<rscale>  2 0.19917787E+03</rscale>
<asrwt>0</asrwt>
<pdfrwt beam="1">  1       21 0.29116634E-02 0.19917787E+03</pdfrwt>
<pdfrwt beam="2">  1       21 0.32480486E+00 0.19917787E+03</pdfrwt>
<totfact> 0.16206377E+04</totfact>
</mgrwt>
</event>
<event>
 4    3  0.4009700E+000  0.1755549E+03  0.7546771E-02  0.1172176E+00
         21   -1    0    0  501  502  0.00000000000E+00  0.00000000000E+00  0.98093433305E+03  0.98093433305E+03  0.00000000000E+00 0.  1.
         21   -1    0    0  502  503 -0.00000000000E+00 -0.00000000000E+00 -0.66544270956E+02  0.66544270956E+02  0.00000000000E+00 0.  1.
          6    1    1    2  501    0 -0.21127028062E+02  0.21075173404E+02  0.83771073051E+03  0.85590816229E+03  0.17300000000E+03 0.  1.
         -6    1    1    2    0  503  0.21127028062E+02 -0.21075173404E+02  0.76679331577E+02  0.19157044172E+03  0.17300000000E+03 0.  1.
<mgrwt>
<rscale>  2 0.17555488E+03</rscale>
<asrwt>0</asrwt>
<pdfrwt beam="1">  1       21 0.15091296E+00 0.17555488E+03</pdfrwt>
<pdfrwt beam="2">  1       21 0.10237581E-01 0.17555488E+03</pdfrwt>
<totfact> 0.23161777E+04</totfact>
</mgrwt>
</event>
<event>
 4    3  0.4009700E+000  0.2223542E+03  0.7546771E-02  0.1132140E+00
         21   -1    0    0  503  502  0.00000000000E+00  0.00000000000E+00  0.24403884930E+03  0.24403884930E+03  0.00000000000E+00 0. -1.
         21   -1    0    0  501  503 -0.00000000000E+00 -0.00000000000E+00 -0.44567310695E+03  0.44567310695E+03  0.00000000000E+00 0. -1.
          6    1    1    2  501    0  0.11892521227E+03  0.73274749686E+02 -0.35550086180E+03  0.41931164758E+03  0.17300000000E+03 0. -1.
         -6    1    1    2    0  502 -0.11892521227E+03 -0.73274749686E+02  0.15386660415E+03  0.27040030867E+03  0.17300000000E+03 0. -1.
<mgrwt>
<rscale>  2 0.22235421E+03</rscale>
<asrwt>0</asrwt>
<pdfrwt beam="1">  1       21 0.37544439E-01 0.22235421E+03</pdfrwt>
<pdfrwt beam="2">  1       21 0.68565093E-01 0.22235421E+03</pdfrwt>
<totfact> 0.13021541E+04</totfact>
</mgrwt>
</event>
<event>
 4    3  0.4009700E+000  0.2050702E+03  0.7546771E-02  0.1145530E+00
         21   -1    0    0  501  502  0.00000000000E+00  0.00000000000E+00  0.36234542803E+03  0.36234542803E+03  0.00000000000E+00 0.  1.
         21   -1    0    0  502  503 -0.00000000000E+00 -0.00000000000E+00 -0.16760330492E+03  0.16760330492E+03  0.00000000000E+00 0.  1.
          6    1    1    2  501    0 -0.45289940000E+02  0.10036739133E+03  0.24431406726E+03  0.31897202913E+03  0.17300000000E+03 0.  1.
         -6    1    1    2    0  503  0.45289940000E+02 -0.10036739133E+03 -0.49571944153E+02  0.21097670382E+03  0.17300000000E+03 0.  1.
<mgrwt>
<rscale>  2 0.20507021E+03</rscale>
<asrwt>0</asrwt>
<pdfrwt beam="1">  1       21 0.55745450E-01 0.20507021E+03</pdfrwt>
<pdfrwt beam="2">  1       21 0.25785124E-01 0.20507021E+03</pdfrwt>
<totfact> 0.43009410E+04</totfact>
</mgrwt>
</event>
<event>
 4    3  0.4009700E+000  0.2327205E+03  0.7546771E-02  0.1124739E+00
         21   -1    0    0  503  502  0.00000000000E+00  0.00000000000E+00  0.21564585954E+03  0.21564585954E+03  0.00000000000E+00 0.  1.
         21   -1    0    0  501  503 -0.00000000000E+00 -0.00000000000E+00 -0.27099847459E+03  0.27099847459E+03  0.00000000000E+00 0.  1.
          6    1    1    2  501    0  0.62384314325E+02  0.14261140573E+03 -0.93532161155E+02  0.25081284036E+03  0.17300000000E+03 0.  1.
         -6    1    1    2    0  502 -0.62384314325E+02 -0.14261140573E+03  0.38179546107E+02  0.23583149378E+03  0.17300000000E+03 0.  1.
<mgrwt>
<rscale>  2 0.23272047E+03</rscale>
<asrwt>0</asrwt>
<pdfrwt beam="1">  1       21 0.33176286E-01 0.23272047E+03</pdfrwt>
<pdfrwt beam="2">  1       21 0.41692073E-01 0.23272047E+03</pdfrwt>
<totfact> 0.47554684E+04</totfact>
</mgrwt>
</event>
<event>
 4    3  0.4009700E+000  0.1877784E+03  0.7546771E-02  0.1160481E+00
         21   -1    0    0  501  502  0.00000000000E+00  0.00000000000E+00  0.11027846220E+03  0.11027846220E+03  0.00000000000E+00 0.  1.
         21   -1    0    0  502  503 -0.00000000000E+00 -0.00000000000E+00 -0.23145233824E+04  0.23145233824E+04  0.00000000000E+00 0.  1.
          6    1    1    2  501    0  0.33764882034E+02  0.64742894952E+02  0.23423081266E+02  0.18923358698E+03  0.17300000000E+03 0.  1.
         -6    1    1    2    0  503 -0.33764882034E+02 -0.64742894952E+02 -0.22276680015E+04  0.22355682576E+04  0.17300000000E+03 0.  1.
<mgrwt>
<rscale>  2 0.18777835E+03</rscale>
<asrwt>0</asrwt>
<pdfrwt beam="1">  1       21 0.16965917E-01 0.18777835E+03</pdfrwt>
<pdfrwt beam="2">  1       21 0.35608054E+00 0.18777835E+03</pdfrwt>
<totfact> 0.50795116E+02</totfact>
</mgrwt>
</event>
<event>
 4    3  0.4009700E+000  0.1900545E+03  0.7546771E-02  0.1158412E+00
         21   -1    0    0  501  502  0.00000000000E+00  0.00000000000E+00  0.29645205406E+03  0.29645205406E+03  0.00000000000E+00 0.  1.
         21   -1    0    0  502  503 -0.00000000000E+00 -0.00000000000E+00 -0.15198862390E+03  0.15198862390E+03  0.00000000000E+00 0.  1.
          6    1    1    2  501    0 -0.28265448269E+02 -0.73435419372E+02  0.17208892902E+03  0.25638895428E+03  0.17300000000E+03 0.  1.
         -6    1    1    2    0  503  0.28265448269E+02  0.73435419372E+02 -0.27625498861E+02  0.19205172369E+03  0.17300000000E+03 0.  1.
<mgrwt>
<rscale>  2 0.19005446E+03</rscale>
<asrwt>0</asrwt>
<pdfrwt beam="1">  1       21 0.45608008E-01 0.19005446E+03</pdfrwt>
<pdfrwt beam="2">  1       21 0.23382865E-01 0.19005446E+03</pdfrwt>
<totfact> 0.79381749E+04</totfact>
</mgrwt>
</event>
<event>
 4    3  0.4009700E+000  0.1875917E+03  0.7546771E-02  0.1160652E+00
         21   -1    0    0  503  502  0.00000000000E+00  0.00000000000E+00  0.71740252012E+03  0.71740252012E+03  0.00000000000E+00 0.  1.
         21   -1    0    0  501  503 -0.00000000000E+00 -0.00000000000E+00 -0.64062302622E+02  0.64062302622E+02  0.00000000000E+00 0.  1.
          6    1    1    2  501    0  0.66258171395E+02  0.29521398481E+02  0.13754021075E+03  0.23261119452E+03  0.17300000000E+03 0.  1.
         -6    1    1    2    0  502 -0.66258171395E+02 -0.29521398481E+02  0.51580000675E+03  0.54885362822E+03  0.17300000000E+03 0.  1.
<mgrwt>
<rscale>  2 0.18759173E+03</rscale>
<asrwt>0</asrwt>
<pdfrwt beam="1">  1       21 0.11036961E+00 0.18759173E+03</pdfrwt>
<pdfrwt beam="2">  1       21 0.98557394E-02 0.18759173E+03</pdfrwt>
<totfact> 0.54069626E+04</totfact>
</mgrwt>
</event>
<event>
 4    3  0.4009700E+000  0.2484806E+03  0.7546771E-02  0.1114269E+00
         21   -1    0    0  503  502  0.00000000000E+00  0.00000000000E+00  0.56550793852E+03  0.56550793852E+03  0.00000000000E+00 0.  1.
         21   -1    0    0  501  503 -0.00000000000E+00 -0.00000000000E+00 -0.13125608606E+03  0.13125608606E+03  0.00000000000E+00 0. -1.
          6    1    1    2  501    0 -0.85979995726E+01 -0.17815638074E+03  0.74253325028E+02  0.25933796072E+03  0.17300000000E+03 0. -1.
         -6    1    1    2    0  502  0.85979995726E+01  0.17815638074E+03  0.35999852743E+03  0.43742606386E+03  0.17300000000E+03 0.  1.
<mgrwt>
<rscale>  2 0.24848063E+03</rscale>
<asrwt>0</asrwt>
<pdfrwt beam="1">  1       21 0.87001220E-01 0.24848063E+03</pdfrwt>
<pdfrwt beam="2">  1       21 0.20193244E-01 0.24848063E+03</pdfrwt>
<totfact> 0.24998790E+04</totfact>
</mgrwt>
</event>
<event>
 4    3  0.4009700E+000  0.1929558E+03  0.7546771E-02  0.1155822E+00
         21   -1    0    0  501  502  0.00000000000E+00  0.00000000000E+00  0.43757234480E+03  0.43757234480E+03  0.00000000000E+00 0. -1.
         21   -1    0    0  502  503 -0.00000000000E+00 -0.00000000000E+00 -0.13562257574E+03  0.13562257574E+03  0.00000000000E+00 0. -1.
          6    1    1    2  501    0 -0.74905484936E+02  0.41135268866E+02  0.32592037550E+03  0.37875590184E+03  0.17300000000E+03 0.  1.
         -6    1    1    2    0  503  0.74905484936E+02 -0.41135268866E+02 -0.23970606430E+02  0.19443901869E+03  0.17300000000E+03 0.  1.
<mgrwt>
<rscale>  2 0.19295580E+03</rscale>
<asrwt>0</asrwt>
<pdfrwt beam="1">  1       21 0.67318822E-01 0.19295580E+03</pdfrwt>
<pdfrwt beam="2">  1       21 0.20865012E-01 0.19295580E+03</pdfrwt>
<totfact> 0.43049201E+04</totfact>
</mgrwt>
</event>
<event>
 4    3  0.4009700E+000  0.1996907E+03  0.7546771E-02  0.1150000E+00
         21   -1    0    0  503  502  0.00000000000E+00  0.00000000000E+00  0.37790862945E+04  0.37790862945E+04  0.00000000000E+00 0. -1.
         21   -1    0    0  501  503 -0.00000000000E+00 -0.00000000000E+00 -0.14784068939E+02  0.14784068939E+02  0.00000000000E+00 0. -1.
          6    1    1    2  501    0  0.97994220851E+02 -0.18560741577E+02  0.86721352255E+03  0.88990767057E+03  0.17300000000E+03 0. -1.
         -6    1    1    2    0  502 -0.97994220851E+02  0.18560741577E+02  0.28970887030E+04  0.29039626929E+04  0.17300000000E+03 0. -1.
<mgrwt>
<rscale>  2 0.19969068E+03</rscale>
<asrwt>0</asrwt>
<pdfrwt beam="1">  1       21 0.58139712E+00 0.19969068E+03</pdfrwt>
<pdfrwt beam="2">  1       21 0.22744752E-02 0.19969068E+03</pdfrwt>
<totfact> 0.46910882E+02</totfact>
</mgrwt>
</event>
<event>
 4    3  0.4009700E+000  0.1846515E+03  0.7546771E-02  0.1163376E+00
         21   -1    0    0  501  502  0.00000000000E+00  0.00000000000E+00  0.70043846844E+03  0.70043846844E+03  0.00000000000E+00 0.  1.
         21   -1    0    0  502  503 -0.00000000000E+00 -0.00000000000E+00 -0.49968141166E+02  0.49968141166E+02  0.00000000000E+00 0. -1.
          6    1    1    2  501    0 -0.62485042643E+02 -0.16210658685E+02  0.38551683207E+03  0.42745689118E+03  0.17300000000E+03 0.  1.
         -6    1    1    2    0  503  0.62485042643E+02  0.16210658685E+02  0.26495349520E+03  0.32294971842E+03  0.17300000000E+03 0. -1.
<mgrwt>
<rscale>  2 0.18465147E+03</rscale>
<asrwt>0</asrwt>
<pdfrwt beam="1">  1       21 0.10775976E+00 0.18465147E+03</pdfrwt>
<pdfrwt beam="2">  1       21 0.76874068E-02 0.18465147E+03</pdfrwt>
<totfact> 0.88584963E+04</totfact>
</mgrwt>
</event>
<event>
 4    3  0.4009700E+000  0.2350277E+03  0.7546771E-02  0.1123150E+00
         21   -1    0    0  503  502  0.00000000000E+00  0.00000000000E+00  0.11183465537E+04  0.11183465537E+04  0.00000000000E+00 0. -1.
         21   -1    0    0  501  503 -0.00000000000E+00 -0.00000000000E+00 -0.55839887001E+02  0.55839887001E+02  0.00000000000E+00 0. -1.
          6    1    1    2  501    0  0.15795231169E+03 -0.18975683656E+02  0.33176185671E+03  0.40657587103E+03  0.17300000000E+03 0. -1.
         -6    1    1    2    0  502 -0.15795231169E+03  0.18975683656E+02  0.73074480999E+03  0.76761056967E+03  0.17300000000E+03 0. -1.
<mgrwt>
<rscale>  2 0.23502768E+03</rscale>
<asrwt>0</asrwt>
<pdfrwt beam="1">  1       21 0.17205330E+00 0.23502768E+03</pdfrwt>
<pdfrwt beam="2">  1       21 0.85907527E-02 0.23502768E+03</pdfrwt>
<totfact> 0.21275361E+04</totfact>
</mgrwt>
</event>
<event>
 4    3  0.4009700E+000  0.1753955E+03  0.7546771E-02  0.1172335E+00
         21   -1    0    0  501  502  0.00000000000E+00  0.00000000000E+00  0.36539090453E+03  0.36539090453E+03  0.00000000000E+00 0. -1.
         21   -1    0    0  502  503 -0.00000000000E+00 -0.00000000000E+00 -0.10558936029E+03  0.10558936029E+03  0.00000000000E+00 0. -1.
          6    1    1    2  501    0  0.28601280049E+02  0.40688138956E+01  0.23590572091E+03  0.29396444959E+03  0.17300000000E+03 0. -1.
         -6    1    1    2    0  503 -0.28601280049E+02 -0.40688138956E+01  0.23895823334E+02  0.17701581522E+03  0.17300000000E+03 0. -1.
<mgrwt>
<rscale>  2 0.17539552E+03</rscale>
<asrwt>0</asrwt>
<pdfrwt beam="1">  1       21 0.56213985E-01 0.17539552E+03</pdfrwt>
<pdfrwt beam="2">  1       21 0.16244517E-01 0.17539552E+03</pdfrwt>
<totfact> 0.10166630E+05</totfact>
</mgrwt>
</event>
<event>
 4    3  0.4009700E+000  0.1964897E+03  0.7546771E-02  0.1152735E+00
         21   -1    0    0  501  502  0.00000000000E+00  0.00000000000E+00  0.14404952194E+04  0.14404952194E+04  0.00000000000E+00 0. -1.
         21   -1    0    0  502  503 -0.00000000000E+00 -0.00000000000E+00 -0.40714007005E+02  0.40714007005E+02  0.00000000000E+00 0. -1.
          6    1    1    2  501    0 -0.15759223958E+02  0.91819675448E+02  0.11328117610E+04  0.11497263552E+04  0.17300000000E+03 0. -1.
         -6    1    1    2    0  503  0.15759223958E+02 -0.91819675448E+02  0.26696945142E+03  0.33148287125E+03  0.17300000000E+03 0. -1.
<mgrwt>
<rscale>  2 0.19648971E+03</rscale>
<asrwt>0</asrwt>
<pdfrwt beam="1">  1       21 0.22161461E+00 0.19648971E+03</pdfrwt>
<pdfrwt beam="2">  1       21 0.62636945E-02 0.19648971E+03</pdfrwt>
<totfact> 0.17954514E+04</totfact>
</mgrwt>
</event>
<event>
 4    3  0.4009700E+000  0.1941548E+03  0.7546771E-02  0.1154766E+00
         21   -1    0    0  503  502  0.00000000000E+00  0.00000000000E+00  0.26942211608E+02  0.26942211608E+02  0.00000000000E+00 0. -1.
         21   -1    0    0  501  503 -0.00000000000E+00 -0.00000000000E+00 -0.14544954958E+04  0.14544954958E+04  0.00000000000E+00 0. -1.
          6    1    1    2  501    0  0.65943889698E+01  0.87884122928E+02 -0.85827120503E+03  0.87995770718E+03  0.17300000000E+03 0. -1.
         -6    1    1    2    0  502 -0.65943889698E+01 -0.87884122928E+02 -0.56928207916E+03  0.60148000024E+03  0.17300000000E+03 0. -1.
<mgrwt>
<rscale>  2 0.19415485E+03</rscale>
<asrwt>0</asrwt>
<pdfrwt beam="1">  1       21 0.41449538E-02 0.19415485E+03</pdfrwt>
<pdfrwt beam="2">  1       21 0.22376864E+00 0.19415485E+03</pdfrwt>
<totfact> 0.35175846E+04</totfact>
</mgrwt>
</event>
<event>
 4    3  0.4009700E+000  0.1984935E+03  0.7546771E-02  0.1151016E+00
         21   -1    0    0  501  502  0.00000000000E+00  0.00000000000E+00  0.27572081985E+03  0.27572081985E+03  0.00000000000E+00 0. -1.
         21   -1    0    0  502  503 -0.00000000000E+00 -0.00000000000E+00 -0.16107630829E+03  0.16107630829E+03  0.00000000000E+00 0. -1.
          6    1    1    2  501    0  0.53401738102E+02 -0.81356815688E+02 -0.16048444019E+02  0.19914123040E+03  0.17300000000E+03 0. -1.
         -6    1    1    2    0  503 -0.53401738102E+02  0.81356815688E+02  0.13069295558E+03  0.23765589774E+03  0.17300000000E+03 0. -1.
<mgrwt>
<rscale>  2 0.19849352E+03</rscale>
<asrwt>0</asrwt>
<pdfrwt beam="1">  1       21 0.42418588E-01 0.19849352E+03</pdfrwt>
<pdfrwt beam="2">  1       21 0.24780971E-01 0.19849352E+03</pdfrwt>
<totfact> 0.82159812E+04</totfact>
</mgrwt>
</event>
<event>
 4    3  0.4009700E+000  0.1996013E+03  0.7546771E-02  0.1150076E+00
         21   -1    0    0  501  502  0.00000000000E+00  0.00000000000E+00  0.96085413446E+03  0.96085413446E+03  0.00000000000E+00 0.  1.
         21   -1    0    0  502  503 -0.00000000000E+00 -0.00000000000E+00 -0.12792021456E+03  0.12792021456E+03  0.00000000000E+00 0.  1.
          6    1    1    2  501    0 -0.95114100638E+02  0.29410869963E+02  0.86401208742E+03  0.88676805232E+03  0.17300000000E+03 0.  1.
         -6    1    1    2    0  503  0.95114100638E+02 -0.29410869963E+02 -0.31078167515E+02  0.20200629670E+03  0.17300000000E+03 0.  1.
<mgrwt>
<rscale>  2 0.19960133E+03</rscale>
<asrwt>0</asrwt>
<pdfrwt beam="1">  1       21 0.14782371E+00 0.19960133E+03</pdfrwt>
<pdfrwt beam="2">  1       21 0.19680034E-01 0.19960133E+03</pdfrwt>
<totfact> 0.73481497E+03</totfact>
</mgrwt>
</event>
<event>
 4    3  0.4009700E+000  0.1933417E+03  0.7546771E-02  0.1155481E+00
         21   -1    0    0  501  502  0.00000000000E+00  0.00000000000E+00  0.54122834499E+03  0.54122834499E+03  0.00000000000E+00 0. -1.
         21   -1    0    0  502  503 -0.00000000000E+00 -0.00000000000E+00 -0.14170008488E+03  0.14170008488E+03  0.00000000000E+00 0.  1.
          6    1    1    2  501    0  0.86024780786E+02 -0.71931502774E+01  0.44423519408E+03  0.48448520306E+03  0.17300000000E+03 0. -1.
         -6    1    1    2    0  503 -0.86024780786E+02  0.71931502774E+01 -0.44706933972E+02  0.19844322681E+03  0.17300000000E+03 0.  1.
<mgrwt>
<rscale>  2 0.19334168E+03</rscale>
<asrwt>0</asrwt>
<pdfrwt beam="1">  1       21 0.83265898E-01 0.19334168E+03</pdfrwt>
<pdfrwt beam="2">  1       21 0.21800013E-01 0.19334168E+03</pdfrwt>
<totfact> 0.24656981E+04</totfact>
</mgrwt>
</event>
<event>
 4    3  0.4009700E+000  0.2267030E+03  0.7546771E-02  0.1128982E+00
         21   -1    0    0  503  502  0.00000000000E+00  0.00000000000E+00  0.27171378960E+03  0.27171378960E+03  0.00000000000E+00 0.  1.
         21   -1    0    0  501  503 -0.00000000000E+00 -0.00000000000E+00 -0.64862262262E+03  0.64862262262E+03  0.00000000000E+00 0. -1.
          6    1    1    2  501    0 -0.29266571049E+02 -0.14355732097E+03 -0.57575765201E+03  0.61878195710E+03  0.17300000000E+03 0. -1.
         -6    1    1    2    0  502  0.29266571049E+02  0.14355732097E+03  0.19884881900E+03  0.30155445512E+03  0.17300000000E+03 0.  1.
<mgrwt>
<rscale>  2 0.22670297E+03</rscale>
<asrwt>0</asrwt>
<pdfrwt beam="1">  1       21 0.41802122E-01 0.22670297E+03</pdfrwt>
<pdfrwt beam="2">  1       21 0.99788095E-01 0.22670297E+03</pdfrwt>
<totfact> 0.44281870E+03</totfact>
</mgrwt>
</event>
<event>
 4    3  0.4009700E+000  0.2024364E+03  0.7546771E-02  0.1147700E+00
         21   -1    0    0  503  502  0.00000000000E+00  0.00000000000E+00  0.52847802212E+03  0.52847802212E+03  0.00000000000E+00 0.  1.
         21   -1    0    0  501  503 -0.00000000000E+00 -0.00000000000E+00 -0.77740763868E+02  0.77740763868E+02  0.00000000000E+00 0.  1.
          6    1    1    2  501    0  0.78735252296E+02 -0.69658279320E+02  0.24060199810E+03  0.31443574434E+03  0.17300000000E+03 0.  1.
         -6    1    1    2    0  502 -0.78735252296E+02  0.69658279320E+02  0.21013526016E+03  0.29178304165E+03  0.17300000000E+03 0.  1.
<mgrwt>
<rscale>  2 0.20243645E+03</rscale>
<asrwt>0</asrwt>
<pdfrwt beam="1">  1       21 0.81304309E-01 0.20243645E+03</pdfrwt>
<pdfrwt beam="2">  1       21 0.11960118E-01 0.20243645E+03</pdfrwt>
<totfact> 0.77929261E+04</totfact>
</mgrwt>
</event>
<event>
 4    3  0.4009700E+000  0.1828747E+03  0.7546771E-02  0.1165050E+00
         21   -1    0    0  501  502  0.00000000000E+00  0.00000000000E+00  0.56312423867E+02  0.56312423867E+02  0.00000000000E+00 0.  1.
         21   -1    0    0  502  503 -0.00000000000E+00 -0.00000000000E+00 -0.86323870815E+03  0.86323870815E+03  0.00000000000E+00 0.  1.
          6    1    1    2  501    0 -0.56901560471E+02 -0.16624505860E+02 -0.14663590212E+03  0.23440403062E+03  0.17300000000E+03 0.  1.
         -6    1    1    2    0  503  0.56901560471E+02  0.16624505860E+02 -0.66029038216E+03  0.68514710140E+03  0.17300000000E+03 0.  1.
<mgrwt>
<rscale>  2 0.18287472E+03</rscale>
<asrwt>0</asrwt>
<pdfrwt beam="1">  1       21 0.86634505E-02 0.18287472E+03</pdfrwt>
<pdfrwt beam="2">  1       21 0.13280594E+00 0.18287472E+03</pdfrwt>
<totfact> 0.42997209E+04</totfact>
</mgrwt>
</event>
<event>
 4    3  0.4009700E+000  0.2049347E+03  0.7546771E-02  0.1145641E+00
         21   -1    0    0  501  502  0.00000000000E+00  0.00000000000E+00  0.11202671219E+04  0.11202671219E+04  0.00000000000E+00 0.  1.
         21   -1    0    0  502  503 -0.00000000000E+00 -0.00000000000E+00 -0.14536573703E+03  0.14536573703E+03  0.00000000000E+00 0. -1.
          6    1    1    2  501    0 -0.10601771608E+03  0.28800618254E+02  0.10325927055E+04  0.10527326001E+04  0.17300000000E+03 0.  1.
         -6    1    1    2    0  503  0.10601771608E+03 -0.28800618254E+02 -0.57691320683E+02  0.21290025885E+03  0.17300000000E+03 0. -1.
<mgrwt>
<rscale>  2 0.20493470E+03</rscale>
<asrwt>0</asrwt>
<pdfrwt beam="1">  1       21 0.17234878E+00 0.20493470E+03</pdfrwt>
<pdfrwt beam="2">  1       21 0.22363960E-01 0.20493470E+03</pdfrwt>
<totfact> 0.38027977E+03</totfact>
</mgrwt>
</event>
<event>
 4    3  0.4009700E+000  0.2665806E+03  0.7546771E-02  0.1103253E+00
         21   -1    0    0  503  502  0.00000000000E+00  0.00000000000E+00  0.10848107919E+04  0.10848107919E+04  0.00000000000E+00 0.  1.
         21   -1    0    0  501  503 -0.00000000000E+00 -0.00000000000E+00 -0.12111390278E+03  0.12111390278E+03  0.00000000000E+00 0.  1.
          6    1    1    2  501    0 -0.20266928309E+03  0.78351739774E+01  0.73295403772E+02  0.27647322560E+03  0.17300000000E+03 0.  1.
         -6    1    1    2    0  502  0.20266928309E+03 -0.78351739774E+01  0.89040148534E+03  0.92945146907E+03  0.17300000000E+03 0.  1.
<mgrwt>
<rscale>  2 0.26658062E+03</rscale>
<asrwt>0</asrwt>
<pdfrwt beam="1">  1       21 0.16689396E+00 0.26658062E+03</pdfrwt>
<pdfrwt beam="2">  1       21 0.18632909E-01 0.26658062E+03</pdfrwt>
<totfact> 0.55964314E+03</totfact>
</mgrwt>
</event>
<event>
 4    3  0.4009700E+000  0.1772087E+03  0.7546771E-02  0.1170532E+00
         21   -1    0    0  501  502  0.00000000000E+00  0.00000000000E+00  0.15928787929E+03  0.15928787929E+03  0.00000000000E+00 0. -1.
         21   -1    0    0  502  503 -0.00000000000E+00 -0.00000000000E+00 -0.30659270372E+03  0.30659270372E+03  0.00000000000E+00 0. -1.
          6    1    1    2  501    0  0.18435059525E+00 -0.38391443432E+02  0.65523937062E+02  0.18893470629E+03  0.17300000000E+03 0. -1.
         -6    1    1    2    0  503 -0.18435059525E+00  0.38391443432E+02 -0.21282876149E+03  0.27694587672E+03  0.17300000000E+03 0. -1.
<mgrwt>
<rscale>  2 0.17720874E+03</rscale>
<asrwt>0</asrwt>
<pdfrwt beam="1">  1       21 0.24505828E-01 0.17720874E+03</pdfrwt>
<pdfrwt beam="2">  1       21 0.47168108E-01 0.17720874E+03</pdfrwt>
<totfact> 0.68123490E+04</totfact>
</mgrwt>
</event>
<event>
 4    3  0.4009700E+000  0.1886495E+03  0.7546771E-02  0.1159685E+00
         21   -1    0    0  503  502  0.00000000000E+00  0.00000000000E+00  0.84345172506E+02  0.84345172506E+02  0.00000000000E+00 0. -1.
         21   -1    0    0  501  503 -0.00000000000E+00 -0.00000000000E+00 -0.62044376360E+03  0.62044376360E+03  0.00000000000E+00 0. -1.
          6    1    1    2  501    0 -0.63271096087E+02 -0.40699129073E+02 -0.46737422197E+03  0.50401122415E+03  0.17300000000E+03 0. -1.
         -6    1    1    2    0  502  0.63271096087E+02  0.40699129073E+02 -0.68724369126E+02  0.20077771196E+03  0.17300000000E+03 0. -1.
<mgrwt>
<rscale>  2 0.18864954E+03</rscale>
<asrwt>0</asrwt>
<pdfrwt beam="1">  1       21 0.12976180E-01 0.18864954E+03</pdfrwt>
<pdfrwt beam="2">  1       21 0.95452887E-01 0.18864954E+03</pdfrwt>
<totfact> 0.46813687E+04</totfact>
</mgrwt>
</event>
<event>
 4    3  0.4009700E+000  0.1751554E+03  0.7546771E-02  0.1172576E+00
         21   -1    0    0  503  502  0.00000000000E+00  0.00000000000E+00  0.48562660790E+03  0.48562660790E+03  0.00000000000E+00 0.  1.
         21   -1    0    0  501  503 -0.00000000000E+00 -0.00000000000E+00 -0.23742327204E+03  0.23742327204E+03  0.00000000000E+00 0.  1.
          6    1    1    2  501    0  0.14068327700E+02 -0.23505074262E+02 -0.18561244805E+03  0.25520851716E+03  0.17300000000E+03 0.  1.
         -6    1    1    2    0  502 -0.14068327700E+02  0.23505074262E+02  0.43381578391E+03  0.46784136278E+03  0.17300000000E+03 0.  1.
<mgrwt>
<rscale>  2 0.17515538E+03</rscale>
<asrwt>0</asrwt>
<pdfrwt beam="1">  1       21 0.74711786E-01 0.17515538E+03</pdfrwt>
<pdfrwt beam="2">  1       21 0.36526657E-01 0.17515538E+03</pdfrwt>
<totfact> 0.11731074E+04</totfact>
</mgrwt>
</event>
<event>
 4    3  0.4009700E+000  0.2244205E+03  0.7546771E-02  0.1130630E+00
         21   -1    0    0  503  502  0.00000000000E+00  0.00000000000E+00  0.17473357890E+04  0.17473357890E+04  0.00000000000E+00 0.  1.
         21   -1    0    0  501  503 -0.00000000000E+00 -0.00000000000E+00 -0.43201509323E+02  0.43201509323E+02  0.00000000000E+00 0.  1.
          6    1    1    2  501    0  0.11507408761E+03 -0.84814639773E+02  0.33558981385E+03  0.40371412152E+03  0.17300000000E+03 0.  1.
         -6    1    1    2    0  502 -0.11507408761E+03  0.84814639773E+02  0.13685444658E+04  0.13868231768E+04  0.17300000000E+03 0.  1.
<mgrwt>
<rscale>  2 0.22442052E+03</rscale>
<asrwt>0</asrwt>
<pdfrwt beam="1">  1       21 0.26882084E+00 0.22442052E+03</pdfrwt>
<pdfrwt beam="2">  1       21 0.66463874E-02 0.22442052E+03</pdfrwt>
<totfact> 0.82840686E+03</totfact>
</mgrwt>
</event>
<event>
 4    3  0.4009700E+000  0.1772258E+03  0.7546771E-02  0.1170515E+00
         21   -1    0    0  503  502  0.00000000000E+00  0.00000000000E+00  0.11028175759E+04  0.11028175759E+04  0.00000000000E+00 0.  1.
         21   -1    0    0  501  503 -0.00000000000E+00 -0.00000000000E+00 -0.32668736388E+02  0.32668736388E+02  0.00000000000E+00 0.  1.
          6    1    1    2  501    0  0.11855151101E+02  0.36598370278E+02  0.33179545962E+03  0.37616115208E+03  0.17300000000E+03 0.  1.
         -6    1    1    2    0  502 -0.11855151101E+02 -0.36598370278E+02  0.73835337986E+03  0.75932516017E+03  0.17300000000E+03 0.  1.
<mgrwt>
<rscale>  2 0.17722580E+03</rscale>
<asrwt>0</asrwt>
<pdfrwt beam="1">  1       21 0.16966421E+00 0.17722580E+03</pdfrwt>
<pdfrwt beam="2">  1       21 0.50259603E-02 0.17722580E+03</pdfrwt>
<totfact> 0.57721868E+04</totfact>
</mgrwt>
</event>
<event>
 4    3  0.4009700E+000  0.1917412E+03  0.7546771E-02  0.1156900E+00
         21   -1    0    0  503  502  0.00000000000E+00  0.00000000000E+00  0.10949533514E+04  0.10949533514E+04  0.00000000000E+00 0.  1.
         21   -1    0    0  501  503 -0.00000000000E+00 -0.00000000000E+00 -0.35103306417E+02  0.35103306417E+02  0.00000000000E+00 0.  1.
          6    1    1    2  501    0 -0.77859527463E+02 -0.27813390231E+02  0.41208588271E+03  0.45451013787E+03  0.17300000000E+03 0.  1.
         -6    1    1    2    0  502  0.77859527463E+02  0.27813390231E+02  0.64776416223E+03  0.67554651991E+03  0.17300000000E+03 0.  1.
<mgrwt>
<rscale>  2 0.19174121E+03</rscale>
<asrwt>0</asrwt>
<pdfrwt beam="1">  1       21 0.16845434E+00 0.19174121E+03</pdfrwt>
<pdfrwt beam="2">  1       21 0.54005095E-02 0.19174121E+03</pdfrwt>
<totfact> 0.51663391E+04</totfact>
</mgrwt>
</event>
<event>
 4    3  0.4009700E+000  0.3329270E+03  0.7546771E-02  0.1069849E+00
         21   -1    0    0  501  502  0.00000000000E+00  0.00000000000E+00  0.83691200833E+02  0.83691200833E+02  0.00000000000E+00 0.  1.
         21   -1    0    0  502  503 -0.00000000000E+00 -0.00000000000E+00 -0.14581818697E+04  0.14581818697E+04  0.00000000000E+00 0. -1.
          6    1    1    2  501    0  0.10501587501E+03 -0.26435398480E+03 -0.45372940375E+03  0.56277058835E+03  0.17300000000E+03 0.  1.
         -6    1    1    2    0  503 -0.10501587501E+03  0.26435398480E+03 -0.92076126512E+03  0.97910248219E+03  0.17300000000E+03 0.  1.
<mgrwt>
<rscale>  2 0.33292696E+03</rscale>
<asrwt>0</asrwt>
<pdfrwt beam="1">  1       21 0.12875570E-01 0.33292696E+03</pdfrwt>
<pdfrwt beam="2">  1       21 0.22433566E+00 0.33292696E+03</pdfrwt>
<totfact> 0.44056504E+03</totfact>
</mgrwt>
</event>
<event>
 4    3  0.4009700E+000  0.1899155E+03  0.7546771E-02  0.1158538E+00
         21   -1    0    0  503  502  0.00000000000E+00  0.00000000000E+00  0.18923824748E+04  0.18923824748E+04  0.00000000000E+00 0. -1.
         21   -1    0    0  501  503 -0.00000000000E+00 -0.00000000000E+00 -0.12354671350E+03  0.12354671350E+03  0.00000000000E+00 0. -1.
          6    1    1    2  501    0  0.47509907957E+02  0.62303381628E+02 -0.42542579852E+02  0.19462213085E+03  0.17300000000E+03 0. -1.
         -6    1    1    2    0  502 -0.47509907957E+02 -0.62303381628E+02  0.18113783412E+04  0.18213070575E+04  0.17300000000E+03 0. -1.
<mgrwt>
<rscale>  2 0.18991551E+03</rscale>
<asrwt>0</asrwt>
<pdfrwt beam="1">  1       21 0.29113574E+00 0.18991551E+03</pdfrwt>
<pdfrwt beam="2">  1       21 0.19007188E-01 0.18991551E+03</pdfrwt>
<totfact> 0.97797608E+02</totfact>
</mgrwt>
</event>
<event>
 4    3  0.4009700E+000  0.2193274E+03  0.7546771E-02  0.1134385E+00
         21   -1    0    0  501  502  0.00000000000E+00  0.00000000000E+00  0.27005759371E+02  0.27005759371E+02  0.00000000000E+00 0. -1.
         21   -1    0    0  502  503 -0.00000000000E+00 -0.00000000000E+00 -0.19151999950E+04  0.19151999950E+04  0.00000000000E+00 0. -1.
          6    1    1    2  501    0  0.24377053033E+02 -0.13259444079E+03 -0.68729508633E+03  0.72144234845E+03  0.17300000000E+03 0. -1.
         -6    1    1    2    0  503 -0.24377053033E+02  0.13259444079E+03 -0.12008991493E+04  0.12207634059E+04  0.17300000000E+03 0. -1.
<mgrwt>
<rscale>  2 0.21932744E+03</rscale>
<asrwt>0</asrwt>
<pdfrwt beam="1">  1       21 0.41547320E-02 0.21932744E+03</pdfrwt>
<pdfrwt beam="2">  1       21 0.29464617E+00 0.21932744E+03</pdfrwt>
<totfact> 0.13125275E+04</totfact>
</mgrwt>
</event>
<event>
 4    3  0.4009700E+000  0.2551818E+03  0.7546771E-02  0.1110073E+00
         21   -1    0    0  501  502  0.00000000000E+00  0.00000000000E+00  0.21304943838E+03  0.21304943838E+03  0.00000000000E+00 0.  1.
         21   -1    0    0  502  503 -0.00000000000E+00 -0.00000000000E+00 -0.30728995881E+03  0.30728995881E+03  0.00000000000E+00 0. -1.
          6    1    1    2  501    0  0.16543985298E+03 -0.88421638064E+02 -0.28091341351E+02  0.25672330337E+03  0.17300000000E+03 0.  1.
         -6    1    1    2    0  503 -0.16543985298E+03  0.88421638064E+02 -0.66149179073E+02  0.26361609383E+03  0.17300000000E+03 0. -1.
<mgrwt>
<rscale>  2 0.25518176E+03</rscale>
<asrwt>0</asrwt>
<pdfrwt beam="1">  1       21 0.32776837E-01 0.25518176E+03</pdfrwt>
<pdfrwt beam="2">  1       21 0.47275378E-01 0.25518176E+03</pdfrwt>
<totfact> 0.37238711E+04</totfact>
</mgrwt>
</event>
<event>
 4    3  0.4009700E+000  0.1794287E+03  0.7546771E-02  0.1168357E+00
         21   -1    0    0  503  502  0.00000000000E+00  0.00000000000E+00  0.18973538707E+03  0.18973538707E+03  0.00000000000E+00 0.  1.
         21   -1    0    0  501  503 -0.00000000000E+00 -0.00000000000E+00 -0.25187452085E+03  0.25187452085E+03  0.00000000000E+00 0.  1.
          6    1    1    2  501    0 -0.35441853839E+02  0.31773072105E+02 -0.15720387178E+03  0.23855337016E+03  0.17300000000E+03 0.  1.
         -6    1    1    2    0  502  0.35441853839E+02 -0.31773072105E+02  0.95064737999E+02  0.20305653776E+03  0.17300000000E+03 0.  1.
<mgrwt>
<rscale>  2 0.17942869E+03</rscale>
<asrwt>0</asrwt>
<pdfrwt beam="1">  1       21 0.29190060E-01 0.17942869E+03</pdfrwt>
<pdfrwt beam="2">  1       21 0.38749926E-01 0.17942869E+03</pdfrwt>
<totfact> 0.72574476E+04</totfact>
</mgrwt>
</event>
<event>
 4    3  0.4009700E+000  0.1894101E+03  0.7546771E-02  0.1158994E+00
         21   -1    0    0  503  502  0.00000000000E+00  0.00000000000E+00  0.34272462880E+03  0.34272462880E+03  0.00000000000E+00 0.  1.
         21   -1    0    0  501  503 -0.00000000000E+00 -0.00000000000E+00 -0.10701802990E+03  0.10701802990E+03  0.00000000000E+00 0.  1.
          6    1    1    2  501    0  0.38578508899E+02  0.66774839461E+02  0.15109581944E+03  0.24229347326E+03  0.17300000000E+03 0.  1.
         -6    1    1    2    0  502 -0.38578508899E+02 -0.66774839461E+02  0.84610779457E+02  0.20744918543E+03  0.17300000000E+03 0.  1.
<mgrwt>
<rscale>  2 0.18941009E+03</rscale>
<asrwt>0</asrwt>
<pdfrwt beam="1">  1       21 0.52726866E-01 0.18941009E+03</pdfrwt>
<pdfrwt beam="2">  1       21 0.16464312E-01 0.18941009E+03</pdfrwt>
<totfact> 0.11294720E+05</totfact>
</mgrwt>
</event>
<event>
 4    3  0.4009700E+000  0.2297660E+03  0.7546771E-02  0.1126805E+00
         21   -1    0    0  503  502  0.00000000000E+00  0.00000000000E+00  0.19488747268E+03  0.19488747268E+03  0.00000000000E+00 0.  1.
         21   -1    0    0  501  503 -0.00000000000E+00 -0.00000000000E+00 -0.35011420371E+03  0.35011420371E+03  0.00000000000E+00 0. -1.
          6    1    1    2  501    0 -0.14692547809E+03  0.35725464705E+02 -0.20724208670E+03  0.30942153681E+03  0.17300000000E+03 0. -1.
         -6    1    1    2    0  502  0.14692547809E+03 -0.35725464705E+02  0.52015355674E+02  0.23558013958E+03  0.17300000000E+03 0.  1.
<mgrwt>
<rscale>  2 0.22976598E+03</rscale>
<asrwt>0</asrwt>
<pdfrwt beam="1">  1       21 0.29982688E-01 0.22976598E+03</pdfrwt>
<pdfrwt beam="2">  1       21 0.53863723E-01 0.22976598E+03</pdfrwt>
<totfact> 0.34125066E+04</totfact>
</mgrwt>
</event>
<event>
 4    3  0.4009700E+000  0.2018964E+03  0.7546771E-02  0.1148149E+00
         21   -1    0    0  503  502  0.00000000000E+00  0.00000000000E+00  0.17340019272E+03  0.17340019272E+03  0.00000000000E+00 0. -1.
         21   -1    0    0  501  503 -0.00000000000E+00 -0.00000000000E+00 -0.23540524109E+03  0.23540524109E+03  0.00000000000E+00 0. -1.
          6    1    1    2  501    0  0.19984073577E+02 -0.10214584871E+03 -0.38652549033E+02  0.20556302477E+03  0.17300000000E+03 0. -1.
         -6    1    1    2    0  502 -0.19984073577E+02  0.10214584871E+03 -0.23352499337E+02  0.20324240903E+03  0.17300000000E+03 0. -1.
<mgrwt>
<rscale>  2 0.20189635E+03</rscale>
<asrwt>0</asrwt>
<pdfrwt beam="1">  1       21 0.26676953E-01 0.20189635E+03</pdfrwt>
<pdfrwt beam="2">  1       21 0.36216191E-01 0.20189635E+03</pdfrwt>
<totfact> 0.97974513E+04</totfact>
</mgrwt>
</event>
<event>
 4    3  0.4009700E+000  0.1911458E+03  0.7546771E-02  0.1157432E+00
         21   -1    0    0  503  502  0.00000000000E+00  0.00000000000E+00  0.40317886997E+02  0.40317886997E+02  0.00000000000E+00 0. -1.
         21   -1    0    0  501  503 -0.00000000000E+00 -0.00000000000E+00 -0.90866913500E+03  0.90866913500E+03  0.00000000000E+00 0. -1.
          6    1    1    2  501    0  0.81140761876E+02 -0.48899342942E+01 -0.40952412721E+03  0.45193666089E+03  0.17300000000E+03 0. -1.
         -6    1    1    2    0  502 -0.81140761876E+02  0.48899342942E+01 -0.45882712080E+03  0.49705036110E+03  0.17300000000E+03 0. -1.
<mgrwt>
<rscale>  2 0.19114585E+03</rscale>
<asrwt>0</asrwt>
<pdfrwt beam="1">  1       21 0.62027519E-02 0.19114585E+03</pdfrwt>
<pdfrwt beam="2">  1       21 0.13979525E+00 0.19114585E+03</pdfrwt>
<totfact> 0.66956446E+04</totfact>
</mgrwt>
</event>
<event>
 4    3  0.4009700E+000  0.1872853E+03  0.7546771E-02  0.1160933E+00
         21   -1    0    0  503  502  0.00000000000E+00  0.00000000000E+00  0.62807674825E+03  0.62807674825E+03  0.00000000000E+00 0.  1.
         21   -1    0    0  501  503 -0.00000000000E+00 -0.00000000000E+00 -0.59443184353E+02  0.59443184353E+02  0.00000000000E+00 0.  1.
          6    1    1    2  501    0 -0.45813735480E+02 -0.55207781339E+02  0.19975694429E+03  0.27382226767E+03  0.17300000000E+03 0.  1.
         -6    1    1    2    0  502  0.45813735480E+02  0.55207781339E+02  0.36887661960E+03  0.41369766493E+03  0.17300000000E+03 0.  1.
<mgrwt>
<rscale>  2 0.18728534E+03</rscale>
<asrwt>0</asrwt>
<pdfrwt beam="1">  1       21 0.96627188E-01 0.18728534E+03</pdfrwt>
<pdfrwt beam="2">  1       21 0.91451057E-02 0.18728534E+03</pdfrwt>
<totfact> 0.84741183E+04</totfact>
</mgrwt>
</event>
<event>
 4    3  0.4009700E+000  0.2133262E+03  0.7546771E-02  0.1138959E+00
         21   -1    0    0  501  502  0.00000000000E+00  0.00000000000E+00  0.11205637484E+03  0.11205637484E+03  0.00000000000E+00 0. -1.
         21   -1    0    0  502  503 -0.00000000000E+00 -0.00000000000E+00 -0.80923933179E+03  0.80923933179E+03  0.00000000000E+00 0. -1.
          6    1    1    2  501    0  0.28743357427E+02  0.12146148616E+03 -0.23467776644E+02  0.21461316306E+03  0.17300000000E+03 0. -1.
         -6    1    1    2    0  503 -0.28743357427E+02 -0.12146148616E+03 -0.67371518030E+03  0.70668254357E+03  0.17300000000E+03 0. -1.
<mgrwt>
<rscale>  2 0.21332621E+03</rscale>
<asrwt>0</asrwt>
<pdfrwt beam="1">  1       21 0.17239441E-01 0.21332621E+03</pdfrwt>
<pdfrwt beam="2">  1       21 0.12449836E+00 0.21332621E+03</pdfrwt>
<totfact> 0.14448887E+04</totfact>
</mgrwt>
</event>
<event>
 4    3  0.4009700E+000  0.2231574E+03  0.7546771E-02  0.1131551E+00
         21   -1    0    0  503  502  0.00000000000E+00  0.00000000000E+00  0.54315000102E+02  0.54315000102E+02  0.00000000000E+00 0.  1.
         21   -1    0    0  501  503 -0.00000000000E+00 -0.00000000000E+00 -0.95940063021E+03  0.95940063021E+03  0.00000000000E+00 0.  1.
          6    1    1    2  501    0  0.12313087016E+03 -0.68622128487E+02 -0.55927420749E+03  0.60215184702E+03  0.17300000000E+03 0. -1.
         -6    1    1    2    0  502 -0.12313087016E+03  0.68622128487E+02 -0.34581142262E+03  0.41156378329E+03  0.17300000000E+03 0. -1.
<mgrwt>
<rscale>  2 0.22315736E+03</rscale>
<asrwt>0</asrwt>
<pdfrwt beam="1">  1       21 0.83561547E-02 0.22315736E+03</pdfrwt>
<pdfrwt beam="2">  1       21 0.14760008E+00 0.22315736E+03</pdfrwt>
<totfact> 0.34069205E+04</totfact>
</mgrwt>
</event>
<event>
 4    3  0.4009700E+000  0.2298099E+03  0.7546771E-02  0.1126774E+00
         21   -1    0    0  501  502  0.00000000000E+00  0.00000000000E+00  0.20453008989E+03  0.20453008989E+03  0.00000000000E+00 0. -1.
         21   -1    0    0  502  503 -0.00000000000E+00 -0.00000000000E+00 -0.46478666050E+03  0.46478666050E+03  0.00000000000E+00 0. -1.
          6    1    1    2  501    0 -0.15099070347E+03 -0.92399880383E+01  0.92977637885E+02  0.24790605289E+03  0.17300000000E+03 0. -1.
         -6    1    1    2    0  503  0.15099070347E+03  0.92399880383E+01 -0.35323420850E+03  0.42141069750E+03  0.17300000000E+03 0. -1.
<mgrwt>
<rscale>  2 0.22980986E+03</rscale>
<asrwt>0</asrwt>
<pdfrwt beam="1">  1       21 0.31466168E-01 0.22980986E+03</pdfrwt>
<pdfrwt beam="2">  1       21 0.71505639E-01 0.22980986E+03</pdfrwt>
<totfact> 0.16785586E+04</totfact>
</mgrwt>
</event>
<event>
 4    3  0.4009700E+000  0.1862153E+03  0.7546771E-02  0.1161920E+00
         21   -1    0    0  501  502  0.00000000000E+00  0.00000000000E+00  0.15235411840E+03  0.15235411840E+03  0.00000000000E+00 0.  1.
         21   -1    0    0  502  503 -0.00000000000E+00 -0.00000000000E+00 -0.23269892060E+03  0.23269892060E+03  0.00000000000E+00 0. -1.
          6    1    1    2  501    0  0.97791039183E+01 -0.68201990085E+02 -0.68665261372E+02  0.19847181272E+03  0.17300000000E+03 0. -1.
         -6    1    1    2    0  503 -0.97791039183E+01  0.68201990085E+02 -0.11679540825E+02  0.18658122628E+03  0.17300000000E+03 0. -1.
<mgrwt>
<rscale>  2 0.18621531E+03</rscale>
<asrwt>0</asrwt>
<pdfrwt beam="1">  1       21 0.23439095E-01 0.18621531E+03</pdfrwt>
<pdfrwt beam="2">  1       21 0.35799834E-01 0.18621531E+03</pdfrwt>
<totfact> 0.12911786E+05</totfact>
</mgrwt>
</event>
<event>
 4    3  0.4009700E+000  0.1786585E+03  0.7546771E-02  0.1169108E+00
         21   -1    0    0  501  502  0.00000000000E+00  0.00000000000E+00  0.20472341060E+03  0.20472341060E+03  0.00000000000E+00 0.  1.
         21   -1    0    0  502  503 -0.00000000000E+00 -0.00000000000E+00 -0.22492046729E+03  0.22492046729E+03  0.00000000000E+00 0.  1.
          6    1    1    2  501    0 -0.10629579285E+01  0.44595263214E+02  0.10889267543E+03  0.20922830149E+03  0.17300000000E+03 0.  1.
         -6    1    1    2    0  503  0.10629579285E+01 -0.44595263214E+02 -0.12908973212E+03  0.22041557640E+03  0.17300000000E+03 0.  1.
<mgrwt>
<rscale>  2 0.17865852E+03</rscale>
<asrwt>0</asrwt>
<pdfrwt beam="1">  1       21 0.31495909E-01 0.17865852E+03</pdfrwt>
<pdfrwt beam="2">  1       21 0.34603149E-01 0.17865852E+03</pdfrwt>
<totfact> 0.78442359E+04</totfact>
</mgrwt>
</event>
<event>
 4    3  0.4009700E+000  0.2454913E+03  0.7546771E-02  0.1116188E+00
         21   -1    0    0  503  502  0.00000000000E+00  0.00000000000E+00  0.15706476550E+04  0.15706476550E+04  0.00000000000E+00 0.  1.
         21   -1    0    0  501  503 -0.00000000000E+00 -0.00000000000E+00 -0.40714192188E+02  0.40714192188E+02  0.00000000000E+00 0. -1.
          6    1    1    2  501    0 -0.99175206574E+02  0.14318262028E+03  0.57164842311E+03  0.62213174167E+03  0.17300000000E+03 0. -1.
         -6    1    1    2    0  502  0.99175206574E+02 -0.14318262028E+03  0.95828503973E+03  0.98923010555E+03  0.17300000000E+03 0.  1.
<mgrwt>
<rscale>  2 0.24549131E+03</rscale>
<asrwt>0</asrwt>
<pdfrwt beam="1">  1       21 0.24163805E+00 0.24549131E+03</pdfrwt>
<pdfrwt beam="2">  1       21 0.62637231E-02 0.24549131E+03</pdfrwt>
<totfact> 0.13069975E+04</totfact>
</mgrwt>
</event>
<event>
 4    3  0.4009700E+000  0.1903670E+03  0.7546771E-02  0.1158131E+00
         21   -1    0    0  501  502  0.00000000000E+00  0.00000000000E+00  0.48436629262E+02  0.48436629262E+02  0.00000000000E+00 0.  1.
         21   -1    0    0  502  503 -0.00000000000E+00 -0.00000000000E+00 -0.22182016426E+04  0.22182016426E+04  0.00000000000E+00 0. -1.
          6    1    1    2  501    0 -0.44445878581E+02 -0.65841893221E+02 -0.16228401536E+03  0.25015133952E+03  0.17300000000E+03 0.  1.
         -6    1    1    2    0  503  0.44445878581E+02  0.65841893221E+02 -0.20074809980E+04  0.20164869324E+04  0.17300000000E+03 0. -1.
<mgrwt>
<rscale>  2 0.19036699E+03</rscale>
<asrwt>0</asrwt>
<pdfrwt beam="1">  1       21 0.74517926E-02 0.19036699E+03</pdfrwt>
<pdfrwt beam="2">  1       21 0.34126163E+00 0.19036699E+03</pdfrwt>
<totfact> 0.26802088E+03</totfact>
</mgrwt>
</event>
<event>
 4    3  0.4009700E+000  0.1736273E+03  0.7546771E-02  0.1174117E+00
         21   -1    0    0  501  502  0.00000000000E+00  0.00000000000E+00  0.26054325174E+03  0.26054325174E+03  0.00000000000E+00 0. -1.
         21   -1    0    0  502  503 -0.00000000000E+00 -0.00000000000E+00 -0.47967461864E+03  0.47967461864E+03  0.00000000000E+00 0. -1.
          6    1    1    2  501    0  0.76541447818E+01 -0.12603431238E+02  0.21282919689E+03  0.27466834448E+03  0.17300000000E+03 0. -1.
         -6    1    1    2    0  503 -0.76541447818E+01  0.12603431238E+02 -0.43196056378E+03  0.46554952591E+03  0.17300000000E+03 0. -1.
<mgrwt>
<rscale>  2 0.17362728E+03</rscale>
<asrwt>0</asrwt>
<pdfrwt beam="1">  1       21 0.40083578E-01 0.17362728E+03</pdfrwt>
<pdfrwt beam="2">  1       21 0.73796094E-01 0.17362728E+03</pdfrwt>
<totfact> 0.10020854E+04</totfact>
</mgrwt>
</event>
<event>
 4    3  0.4009700E+000  0.5581698E+03  0.7546771E-02  0.9996204E-01
         21   -1    0    0  501  502  0.00000000000E+00  0.00000000000E+00  0.65428064421E+03  0.65428064421E+03  0.00000000000E+00 0. -1.
         21   -1    0    0  502  503 -0.00000000000E+00 -0.00000000000E+00 -0.66841765362E+03  0.66841765362E+03  0.00000000000E+00 0.  1.
          6    1    1    2  501    0  0.44542822930E+03  0.28847560300E+03  0.34760546091E+03  0.65755839089E+03  0.17300000000E+03 0. -1.
         -6    1    1    2    0  503 -0.44542822930E+03 -0.28847560300E+03 -0.36174247031E+03  0.66513990694E+03  0.17300000000E+03 0.  1.
<mgrwt>
<rscale>  2 0.55816976E+03</rscale>
<asrwt>0</asrwt>
<pdfrwt beam="1">  1       21 0.10065856E+00 0.55816976E+03</pdfrwt>
<pdfrwt beam="2">  1       21 0.10283349E+00 0.55816976E+03</pdfrwt>
<totfact> 0.49788204E+02</totfact>
</mgrwt>
</event>
<event>
 4    3  0.4009700E+000  0.2406683E+03  0.7546771E-02  0.1119348E+00
         21   -1    0    0  503  502  0.00000000000E+00  0.00000000000E+00  0.49588796983E+03  0.49588796983E+03  0.00000000000E+00 0. -1.
         21   -1    0    0  501  503 -0.00000000000E+00 -0.00000000000E+00 -0.28139005574E+03  0.28139005574E+03  0.00000000000E+00 0. -1.
          6    1    1    2  501    0 -0.11874159628E+03  0.11786715817E+03 -0.18997908243E+03  0.30661585971E+03  0.17300000000E+03 0. -1.
         -6    1    1    2    0  502  0.11874159628E+03 -0.11786715817E+03  0.40447699651E+03  0.47066216586E+03  0.17300000000E+03 0. -1.
<mgrwt>
<rscale>  2 0.24066831E+03</rscale>
<asrwt>0</asrwt>
<pdfrwt beam="1">  1       21 0.76290457E-01 0.24066831E+03</pdfrwt>
<pdfrwt beam="2">  1       21 0.43290778E-01 0.24066831E+03</pdfrwt>
<totfact> 0.76017582E+03</totfact>
</mgrwt>
</event>
<event>
 4    3  0.4009700E+000  0.2873962E+03  0.7546771E-02  0.1091717E+00
         21   -1    0    0  501  502  0.00000000000E+00  0.00000000000E+00  0.47904806267E+03  0.47904806267E+03  0.00000000000E+00 0. -1.
         21   -1    0    0  502  503 -0.00000000000E+00 -0.00000000000E+00 -0.17752621487E+03  0.17752621487E+03  0.00000000000E+00 0. -1.
          6    1    1    2  501    0 -0.14786249282E+03  0.17551137983E+03  0.95074086512E+02  0.30271379744E+03  0.17300000000E+03 0. -1.
         -6    1    1    2    0  503  0.14786249282E+03 -0.17551137983E+03  0.20644776130E+03  0.35386048010E+03  0.17300000000E+03 0. -1.
<mgrwt>
<rscale>  2 0.28739617E+03</rscale>
<asrwt>0</asrwt>
<pdfrwt beam="1">  1       21 0.73699701E-01 0.28739617E+03</pdfrwt>
<pdfrwt beam="2">  1       21 0.27311726E-01 0.28739617E+03</pdfrwt>
<totfact> 0.20137517E+04</totfact>
</mgrwt>
</event>
<event>
 4    3  0.4009700E+000  0.1758455E+03  0.7546771E-02  0.1171885E+00
         21   -1    0    0  501  502  0.00000000000E+00  0.00000000000E+00  0.10324261846E+04  0.10324261846E+04  0.00000000000E+00 0.  1.
         21   -1    0    0  502  503 -0.00000000000E+00 -0.00000000000E+00 -0.33512213855E+02  0.33512213855E+02  0.00000000000E+00 0.  1.
          6    1    1    2  501    0  0.24921711301E+02 -0.19275224125E+02  0.67321037367E+03  0.69579726442E+03  0.17300000000E+03 0.  1.
         -6    1    1    2    0  503 -0.24921711301E+02  0.19275224125E+02  0.32570359711E+03  0.37014113407E+03  0.17300000000E+03 0.  1.
<mgrwt>
<rscale>  2 0.17584546E+03</rscale>
<asrwt>0</asrwt>
<pdfrwt beam="1">  1       21 0.15883477E+00 0.17584546E+03</pdfrwt>
<pdfrwt beam="2">  1       21 0.51557260E-02 0.17584546E+03</pdfrwt>
<totfact> 0.66153905E+04</totfact>
</mgrwt>
</event>
<event>
 4    3  0.4009700E+000  0.1741259E+03  0.7546771E-02  0.1173612E+00
         21   -1    0    0  503  502  0.00000000000E+00  0.00000000000E+00  0.97449482244E+03  0.97449482244E+03  0.00000000000E+00 0.  1.
         21   -1    0    0  501  503 -0.00000000000E+00 -0.00000000000E+00 -0.16079247986E+03  0.16079247986E+03  0.00000000000E+00 0.  1.
          6    1    1    2  501    0 -0.18612259334E+02 -0.66647731676E+01 -0.10292308372E+03  0.20226961354E+03  0.17300000000E+03 0.  1.
         -6    1    1    2    0  502  0.18612259334E+02  0.66647731676E+01  0.91662542630E+03  0.93301768876E+03  0.17300000000E+03 0.  1.
<mgrwt>
<rscale>  2 0.17412592E+03</rscale>
<asrwt>0</asrwt>
<pdfrwt beam="1">  1       21 0.14992228E+00 0.17412592E+03</pdfrwt>
<pdfrwt beam="2">  1       21 0.24737305E-01 0.17412592E+03</pdfrwt>
<totfact> 0.47019140E+03</totfact>
</mgrwt>
</event>
<event>
 4    3  0.4009700E+000  0.1827145E+03  0.7546771E-02  0.1165201E+00
         21   -1    0    0  503  502  0.00000000000E+00  0.00000000000E+00  0.58132376363E+02  0.58132376363E+02  0.00000000000E+00 0. -1.
         21   -1    0    0  501  503 -0.00000000000E+00 -0.00000000000E+00 -0.63393216759E+03  0.63393216759E+03  0.00000000000E+00 0. -1.
          6    1    1    2  501    0 -0.27597051610E+02 -0.51903807726E+02 -0.39404181667E+03  0.43434267094E+03  0.17300000000E+03 0. -1.
         -6    1    1    2    0  502  0.27597051610E+02  0.51903807726E+02 -0.18175797455E+03  0.25772187301E+03  0.17300000000E+03 0. -1.
<mgrwt>
<rscale>  2 0.18271454E+03</rscale>
<asrwt>0</asrwt>
<pdfrwt beam="1">  1       21 0.89434418E-02 0.18271454E+03</pdfrwt>
<pdfrwt beam="2">  1       21 0.97528034E-01 0.18271454E+03</pdfrwt>
<totfact> 0.86387600E+04</totfact>
</mgrwt>
</event>
<event>
 4    3  0.4009700E+000  0.3483873E+03  0.7546771E-02  0.1063279E+00
         21   -1    0    0  501  502  0.00000000000E+00  0.00000000000E+00  0.47956596976E+03  0.47956596976E+03  0.00000000000E+00 0. -1.
         21   -1    0    0  502  503 -0.00000000000E+00 -0.00000000000E+00 -0.12454956216E+04  0.12454956216E+04  0.00000000000E+00 0.  1.
          6    1    1    2  501    0  0.30170968253E+03  0.20395997354E+02  0.38695932516E+03  0.52068344372E+03  0.17300000000E+03 0. -1.
         -6    1    1    2    0  503 -0.30170968253E+03 -0.20395997354E+02 -0.11528889770E+04  0.12043781476E+04  0.17300000000E+03 0.  1.
<mgrwt>
<rscale>  2 0.34838733E+03</rscale>
<asrwt>0</asrwt>
<pdfrwt beam="1">  1       21 0.73779382E-01 0.34838733E+03</pdfrwt>
<pdfrwt beam="2">  1       21 0.19161471E+00 0.34838733E+03</pdfrwt>
<totfact> 0.21635744E+02</totfact>
</mgrwt>
</event>
<event>
 4    3  0.4009700E+000  0.1944680E+03  0.7546771E-02  0.1154492E+00
         21   -1    0    0  501  502  0.00000000000E+00  0.00000000000E+00  0.51982975339E+03  0.51982975339E+03  0.00000000000E+00 0. -1.
         21   -1    0    0  502  503 -0.00000000000E+00 -0.00000000000E+00 -0.17450482453E+03  0.17450482453E+03  0.00000000000E+00 0.  1.
          6    1    1    2  501    0  0.84621319509E+02 -0.26981906059E+02  0.43776376569E+03  0.47901451493E+03  0.17300000000E+03 0. -1.
         -6    1    1    2    0  503 -0.84621319509E+02  0.26981906059E+02 -0.92438836826E+02  0.21532006298E+03  0.17300000000E+03 0.  1.
<mgrwt>
<rscale>  2 0.19446797E+03</rscale>
<asrwt>0</asrwt>
<pdfrwt beam="1">  1       21 0.79973807E-01 0.19446797E+03</pdfrwt>
<pdfrwt beam="2">  1       21 0.26846896E-01 0.19446797E+03</pdfrwt>
<totfact> 0.18166438E+04</totfact>
</mgrwt>
</event>
<event>
 4    3  0.4009700E+000  0.4026058E+03  0.7546771E-02  0.1042881E+00
         21   -1    0    0  501  502  0.00000000000E+00  0.00000000000E+00  0.67144936881E+03  0.67144936881E+03  0.00000000000E+00 0.  1.
         21   -1    0    0  502  503 -0.00000000000E+00 -0.00000000000E+00 -0.26638824786E+03  0.26638824786E+03  0.00000000000E+00 0.  1.
          6    1    1    2  501    0  0.16045750496E+03 -0.32621434180E+03  0.58927950505E+02  0.40689545469E+03  0.17300000000E+03 0.  1.
         -6    1    1    2    0  503 -0.16045750496E+03  0.32621434180E+03  0.34613317044E+03  0.53094216199E+03  0.17300000000E+03 0.  1.
<mgrwt>
<rscale>  2 0.40260577E+03</rscale>
<asrwt>0</asrwt>
<pdfrwt beam="1">  1       21 0.10329990E+00 0.40260577E+03</pdfrwt>
<pdfrwt beam="2">  1       21 0.40982808E-01 0.40260577E+03</pdfrwt>
<totfact> 0.38714999E+03</totfact>
</mgrwt>
</event>
<event>
 4    3  0.4009700E+000  0.1735822E+03  0.7546771E-02  0.1174163E+00
         21   -1    0    0  501  502  0.00000000000E+00  0.00000000000E+00  0.32018750042E+03  0.32018750042E+03  0.00000000000E+00 0. -1.
         21   -1    0    0  502  503 -0.00000000000E+00 -0.00000000000E+00 -0.24190779037E+03  0.24190779037E+03  0.00000000000E+00 0. -1.
          6    1    1    2  501    0 -0.14199235835E+02 -0.39743358380E+00  0.25882388662E+03  0.31164175031E+03  0.17300000000E+03 0. -1.
         -6    1    1    2    0  503  0.14199235835E+02  0.39743358380E+00 -0.18054417657E+03  0.25045354049E+03  0.17300000000E+03 0. -1.
<mgrwt>
<rscale>  2 0.17358219E+03</rscale>
<asrwt>0</asrwt>
<pdfrwt beam="1">  1       21 0.49259616E-01 0.17358219E+03</pdfrwt>
<pdfrwt beam="2">  1       21 0.37216583E-01 0.17358219E+03</pdfrwt>
<totfact> 0.27663534E+04</totfact>
</mgrwt>
</event>
<event>
 4    3  0.4009700E+000  0.1746479E+03  0.7546771E-02  0.1173086E+00
         21   -1    0    0  501  502  0.00000000000E+00  0.00000000000E+00  0.10832410307E+03  0.10832410307E+03  0.00000000000E+00 0. -1.
         21   -1    0    0  502  503 -0.00000000000E+00 -0.00000000000E+00 -0.35630488658E+03  0.35630488658E+03  0.00000000000E+00 0. -1.
          6    1    1    2  501    0 -0.15153807039E+02  0.18527132016E+02 -0.17601011905E+02  0.17553258418E+03  0.17300000000E+03 0. -1.
         -6    1    1    2    0  503  0.15153807039E+02 -0.18527132016E+02 -0.23037977161E+03  0.28909640547E+03  0.17300000000E+03 0. -1.
<mgrwt>
<rscale>  2 0.17464791E+03</rscale>
<asrwt>0</asrwt>
<pdfrwt beam="1">  1       21 0.16665247E-01 0.17464791E+03</pdfrwt>
<pdfrwt beam="2">  1       21 0.54816135E-01 0.17464791E+03</pdfrwt>
<totfact> 0.10235058E+05</totfact>
</mgrwt>
</event>
<event>
 4    3  0.4009700E+000  0.1795090E+03  0.7546771E-02  0.1168279E+00
         21   -1    0    0  503  502  0.00000000000E+00  0.00000000000E+00  0.31578062465E+02  0.31578062465E+02  0.00000000000E+00 0. -1.
         21   -1    0    0  501  503 -0.00000000000E+00 -0.00000000000E+00 -0.10766015953E+04  0.10766015953E+04  0.00000000000E+00 0. -1.
          6    1    1    2  501    0 -0.47900075068E+02 -0.23770968247E+00 -0.64906633235E+03  0.67343193976E+03  0.17300000000E+03 0. -1.
         -6    1    1    2    0  502  0.47900075068E+02  0.23770968247E+00 -0.39595720052E+03  0.43474771804E+03  0.17300000000E+03 0. -1.
<mgrwt>
<rscale>  2 0.17950898E+03</rscale>
<asrwt>0</asrwt>
<pdfrwt beam="1">  1       21 0.48581634E-02 0.17950898E+03</pdfrwt>
<pdfrwt beam="2">  1       21 0.16563102E+00 0.17950898E+03</pdfrwt>
<totfact> 0.65196045E+04</totfact>
</mgrwt>
</event>
<event>
 4    3  0.4009700E+000  0.1969175E+03  0.7546771E-02  0.1152366E+00
         21   -1    0    0  503  502  0.00000000000E+00  0.00000000000E+00  0.96745962152E+02  0.96745962152E+02  0.00000000000E+00 0.  1.
         21   -1    0    0  501  503 -0.00000000000E+00 -0.00000000000E+00 -0.71262121507E+03  0.71262121507E+03  0.00000000000E+00 0.  1.
          6    1    1    2  501    0 -0.31261698441E+02  0.88714302840E+02 -0.57562859820E+03  0.60837883295E+03  0.17300000000E+03 0.  1.
         -6    1    1    2    0  502  0.31261698441E+02 -0.88714302840E+02 -0.40246654722E+02  0.20098834427E+03  0.17300000000E+03 0.  1.
<mgrwt>
<rscale>  2 0.19691755E+03</rscale>
<asrwt>0</asrwt>
<pdfrwt beam="1">  1       21 0.14883995E-01 0.19691755E+03</pdfrwt>
<pdfrwt beam="2">  1       21 0.10963403E+00 0.19691755E+03</pdfrwt>
<totfact> 0.26128713E+04</totfact>
</mgrwt>
</event>
<event>
 4    3  0.4009700E+000  0.1782888E+03  0.7546771E-02  0.1169470E+00
         21   -1    0    0  501  502  0.00000000000E+00  0.00000000000E+00  0.68407111105E+03  0.68407111105E+03  0.00000000000E+00 0.  1.
         21   -1    0    0  502  503 -0.00000000000E+00 -0.00000000000E+00 -0.62904240755E+02  0.62904240755E+02  0.00000000000E+00 0.  1.
          6    1    1    2  501    0 -0.43012876745E+02 -0.27895766761E+01  0.50150181481E+03  0.53225084271E+03  0.17300000000E+03 0.  1.
         -6    1    1    2    0  503  0.43012876745E+02  0.27895766761E+01  0.11966505549E+03  0.21472450910E+03  0.17300000000E+03 0.  1.
<mgrwt>
<rscale>  2 0.17828878E+03</rscale>
<asrwt>0</asrwt>
<pdfrwt beam="1">  1       21 0.10524170E+00 0.17828878E+03</pdfrwt>
<pdfrwt beam="2">  1       21 0.96775760E-02 0.17828878E+03</pdfrwt>
<totfact> 0.62898785E+04</totfact>
</mgrwt>
</event>
<event>
 4    3  0.4009700E+000  0.2050256E+03  0.7546771E-02  0.1145567E+00
         21   -1    0    0  501  502  0.00000000000E+00  0.00000000000E+00  0.90279968081E+02  0.90279968081E+02  0.00000000000E+00 0.  1.
         21   -1    0    0  502  503 -0.00000000000E+00 -0.00000000000E+00 -0.57523813889E+03  0.57523813889E+03  0.00000000000E+00 0.  1.
          6    1    1    2  501    0  0.34494406921E+02  0.10448267812E+03 -0.97213801058E+02  0.22690530459E+03  0.17300000000E+03 0.  1.
         -6    1    1    2    0  503 -0.34494406921E+02 -0.10448267812E+03 -0.38774436975E+03  0.43861280237E+03  0.17300000000E+03 0.  1.
<mgrwt>
<rscale>  2 0.20502559E+03</rscale>
<asrwt>0</asrwt>
<pdfrwt beam="1">  1       21 0.13889225E-01 0.20502559E+03</pdfrwt>
<pdfrwt beam="2">  1       21 0.88498178E-01 0.20502559E+03</pdfrwt>
<totfact> 0.48961094E+04</totfact>
</mgrwt>
</event>
<event>
 4    3  0.4009700E+000  0.2655107E+03  0.7546771E-02  0.1103877E+00
         21   -1    0    0  503  502  0.00000000000E+00  0.00000000000E+00  0.17051799330E+03  0.17051799330E+03  0.00000000000E+00 0. -1.
         21   -1    0    0  501  503 -0.00000000000E+00 -0.00000000000E+00 -0.45387157229E+03  0.45387157229E+03  0.00000000000E+00 0.  1.
          6    1    1    2  501    0 -0.13312167039E+03 -0.15114744363E+03 -0.23487656980E+03  0.35448967810E+03  0.17300000000E+03 0.  1.
         -6    1    1    2    0  502  0.13312167039E+03  0.15114744363E+03 -0.48477009191E+02  0.26989988748E+03  0.17300000000E+03 0. -1.
<mgrwt>
<rscale>  2 0.26551069E+03</rscale>
<asrwt>0</asrwt>
<pdfrwt beam="1">  1       21 0.26233537E-01 0.26551069E+03</pdfrwt>
<pdfrwt beam="2">  1       21 0.69826396E-01 0.26551069E+03</pdfrwt>
<totfact> 0.24798034E+04</totfact>
</mgrwt>
</event>
<event>
 4    3  0.4009700E+000  0.1805881E+03  0.7546771E-02  0.1167235E+00
         21   -1    0    0  503  502  0.00000000000E+00  0.00000000000E+00  0.10625532254E+03  0.10625532254E+03  0.00000000000E+00 0.  1.
         21   -1    0    0  501  503 -0.00000000000E+00 -0.00000000000E+00 -0.42845471150E+03  0.42845471150E+03  0.00000000000E+00 0.  1.
          6    1    1    2  501    0  0.26754401539E+02  0.44353928479E+02 -0.30349082127E+03  0.35315541561E+03  0.17300000000E+03 0.  1.
         -6    1    1    2    0  502 -0.26754401539E+02 -0.44353928479E+02 -0.18708567687E+02  0.18155461844E+03  0.17300000000E+03 0.  1.
<mgrwt>
<rscale>  2 0.18058812E+03</rscale>
<asrwt>0</asrwt>
<pdfrwt beam="1">  1       21 0.16346973E-01 0.18058812E+03</pdfrwt>
<pdfrwt beam="2">  1       21 0.65916109E-01 0.18058812E+03</pdfrwt>
<totfact> 0.71239423E+04</totfact>
</mgrwt>
</event>
<event>
 4    3  0.4009700E+000  0.4116064E+03  0.7546771E-02  0.1039833E+00
         21   -1    0    0  503  502  0.00000000000E+00  0.00000000000E+00  0.56811416454E+03  0.56811416454E+03  0.00000000000E+00 0.  1.
         21   -1    0    0  501  503 -0.00000000000E+00 -0.00000000000E+00 -0.29885523151E+03  0.29885523151E+03  0.00000000000E+00 0. -1.
          6    1    1    2  501    0 -0.23577225084E+03 -0.28965892944E+03  0.11455701674E+03  0.42725069895E+03  0.17300000000E+03 0.  1.
         -6    1    1    2    0  502  0.23577225084E+03  0.28965892944E+03  0.15470191629E+03  0.43971869710E+03  0.17300000000E+03 0.  1.
<mgrwt>
<rscale>  2 0.41160643E+03</rscale>
<asrwt>0</asrwt>
<pdfrwt beam="1">  1       21 0.87402179E-01 0.41160643E+03</pdfrwt>
<pdfrwt beam="2">  1       21 0.45977728E-01 0.41160643E+03</pdfrwt>
<totfact> 0.45312830E+03</totfact>
</mgrwt>
</event>
<event>
 4    3  0.4009700E+000  0.2270758E+03  0.7546771E-02  0.1128715E+00
         21   -1    0    0  503  502  0.00000000000E+00  0.00000000000E+00  0.50431196099E+03  0.50431196099E+03  0.00000000000E+00 0. -1.
         21   -1    0    0  501  503 -0.00000000000E+00 -0.00000000000E+00 -0.10242832993E+03  0.10242832993E+03  0.00000000000E+00 0. -1.
          6    1    1    2  501    0  0.74104504073E+02  0.12705493818E+03  0.18811135313E+03  0.29487169415E+03  0.17300000000E+03 0. -1.
         -6    1    1    2    0  502 -0.74104504073E+02 -0.12705493818E+03  0.21377227793E+03  0.31186859677E+03  0.17300000000E+03 0. -1.
<mgrwt>
<rscale>  2 0.22707583E+03</rscale>
<asrwt>0</asrwt>
<pdfrwt beam="1">  1       21 0.77586454E-01 0.22707583E+03</pdfrwt>
<pdfrwt beam="2">  1       21 0.15758205E-01 0.22707583E+03</pdfrwt>
<totfact> 0.51982149E+04</totfact>
</mgrwt>
</event>
<event>
 4    3  0.4009700E+000  0.2128098E+03  0.7546771E-02  0.1139360E+00
         21   -1    0    0  503  502  0.00000000000E+00  0.00000000000E+00  0.36935415995E+03  0.36935415995E+03  0.00000000000E+00 0.  1.
         21   -1    0    0  501  503 -0.00000000000E+00 -0.00000000000E+00 -0.76197770679E+03  0.76197770679E+03  0.00000000000E+00 0. -1.
          6    1    1    2  501    0 -0.11727513021E+03  0.40069147335E+02 -0.71447057591E+03  0.74549057443E+03  0.17300000000E+03 0. -1.
         -6    1    1    2    0  502  0.11727513021E+03 -0.40069147335E+02  0.32184702906E+03  0.38584129231E+03  0.17300000000E+03 0.  1.
<mgrwt>
<rscale>  2 0.21280976E+03</rscale>
<asrwt>0</asrwt>
<pdfrwt beam="1">  1       21 0.56823717E-01 0.21280976E+03</pdfrwt>
<pdfrwt beam="2">  1       21 0.11722734E+00 0.21280976E+03</pdfrwt>
<totfact> 0.15981724E+03</totfact>
</mgrwt>
</event>
<event>
 4    3  0.4009700E+000  0.1861917E+03  0.7546771E-02  0.1161942E+00
         21   -1    0    0  501  502  0.00000000000E+00  0.00000000000E+00  0.16264091130E+03  0.16264091130E+03  0.00000000000E+00 0.  1.
         21   -1    0    0  502  503 -0.00000000000E+00 -0.00000000000E+00 -0.54875947104E+03  0.54875947104E+03  0.00000000000E+00 0. -1.
          6    1    1    2  501    0 -0.68515515966E+02  0.66317659576E+01  0.85109518227E+02  0.20472172904E+03  0.17300000000E+03 0.  1.
         -6    1    1    2    0  503  0.68515515966E+02 -0.66317659576E+01 -0.47122807796E+03  0.50667865330E+03  0.17300000000E+03 0. -1.
<mgrwt>
<rscale>  2 0.18619172E+03</rscale>
<asrwt>0</asrwt>
<pdfrwt beam="1">  1       21 0.25021678E-01 0.18619172E+03</pdfrwt>
<pdfrwt beam="2">  1       21 0.84424535E-01 0.18619172E+03</pdfrwt>
<totfact> 0.18476339E+04</totfact>
</mgrwt>
</event>
<event>
 4    3  0.4009700E+000  0.1945566E+03  0.7546771E-02  0.1154415E+00
         21   -1    0    0  501  502  0.00000000000E+00  0.00000000000E+00  0.11548607032E+03  0.11548607032E+03  0.00000000000E+00 0.  1.
         21   -1    0    0  502  503 -0.00000000000E+00 -0.00000000000E+00 -0.42654554973E+03  0.42654554973E+03  0.00000000000E+00 0. -1.
          6    1    1    2  501    0  0.20088342833E+02 -0.86716314027E+02 -0.25108527518E+02  0.19617007618E+03  0.17300000000E+03 0. -1.
         -6    1    1    2    0  503 -0.20088342833E+02  0.86716314027E+02 -0.28595095190E+03  0.34586154387E+03  0.17300000000E+03 0.  1.
<mgrwt>
<rscale>  2 0.19455657E+03</rscale>
<asrwt>0</asrwt>
<pdfrwt beam="1">  1       21 0.17767088E-01 0.19455657E+03</pdfrwt>
<pdfrwt beam="2">  1       21 0.65622393E-01 0.19455657E+03</pdfrwt>
<totfact> 0.61341986E+04</totfact>
</mgrwt>
</event>
<event>
 4    3  0.4009700E+000  0.2535931E+03  0.7546771E-02  0.1111055E+00
         21   -1    0    0  501  502  0.00000000000E+00  0.00000000000E+00  0.36697838789E+03  0.36697838789E+03  0.00000000000E+00 0. -1.
         21   -1    0    0  502  503 -0.00000000000E+00 -0.00000000000E+00 -0.20042586406E+03  0.20042586406E+03  0.00000000000E+00 0.  1.
          6    1    1    2  501    0 -0.18496156877E+03 -0.13025097820E+02  0.18384448803E+03  0.31322233457E+03  0.17300000000E+03 0. -1.
         -6    1    1    2    0  503  0.18496156877E+03  0.13025097820E+02 -0.17291964206E+02  0.25418191738E+03  0.17300000000E+03 0.  1.
<mgrwt>
<rscale>  2 0.25359305E+03</rscale>
<asrwt>0</asrwt>
<pdfrwt beam="1">  1       21 0.56458213E-01 0.25359305E+03</pdfrwt>
<pdfrwt beam="2">  1       21 0.30834748E-01 0.25359305E+03</pdfrwt>
<totfact> 0.28907448E+04</totfact>
</mgrwt>
</event>
<event>
 4    3  0.4009700E+000  0.2327488E+03  0.7546771E-02  0.1124720E+00
         21   -1    0    0  503  502  0.00000000000E+00  0.00000000000E+00  0.42543618641E+03  0.42543618641E+03  0.00000000000E+00 0. -1.
         21   -1    0    0  501  503 -0.00000000000E+00 -0.00000000000E+00 -0.15210772026E+03  0.15210772026E+03  0.00000000000E+00 0.  1.
          6    1    1    2  501    0 -0.95428054213E+02 -0.12303051682E+03  0.20121640574E+02  0.23361699857E+03  0.17300000000E+03 0.  1.
         -6    1    1    2    0  502  0.95428054213E+02  0.12303051682E+03  0.25320682558E+03  0.34392690811E+03  0.17300000000E+03 0. -1.
<mgrwt>
<rscale>  2 0.23274884E+03</rscale>
<asrwt>0</asrwt>
<pdfrwt beam="1">  1       21 0.65451721E-01 0.23274884E+03</pdfrwt>
<pdfrwt beam="2">  1       21 0.23401188E-01 0.23274884E+03</pdfrwt>
<totfact> 0.36139510E+04</totfact>
</mgrwt>
</event>
<event>
 4    3  0.4009700E+000  0.1787179E+03  0.7546771E-02  0.1169050E+00
         21   -1    0    0  501  502  0.00000000000E+00  0.00000000000E+00  0.39531602906E+02  0.39531602906E+02  0.00000000000E+00 0.  1.
         21   -1    0    0  502  503 -0.00000000000E+00 -0.00000000000E+00 -0.98252401112E+03  0.98252401112E+03  0.00000000000E+00 0.  1.
          6    1    1    2  501    0  0.34191417689E+02  0.29017947111E+02 -0.25609611235E+03  0.31229043062E+03  0.17300000000E+03 0. -1.
         -6    1    1    2    0  503 -0.34191417689E+02 -0.29017947111E+02 -0.68689629587E+03  0.70976518341E+03  0.17300000000E+03 0. -1.
<mgrwt>
<rscale>  2 0.17871792E+03</rscale>
<asrwt>0</asrwt>
<pdfrwt beam="1">  1       21 0.60817846E-02 0.17871792E+03</pdfrwt>
<pdfrwt beam="2">  1       21 0.15115755E+00 0.17871792E+03</pdfrwt>
<totfact> 0.56865532E+04</totfact>
</mgrwt>
</event>
<event>
 4    3  0.4009700E+000  0.1757583E+03  0.7546771E-02  0.1171972E+00
         21   -1    0    0  501  502  0.00000000000E+00  0.00000000000E+00  0.35278396980E+02  0.35278396980E+02  0.00000000000E+00 0. -1.
         21   -1    0    0  502  503 -0.00000000000E+00 -0.00000000000E+00 -0.88672398335E+03  0.88672398335E+03  0.00000000000E+00 0. -1.
          6    1    1    2  501    0 -0.27452061310E+02 -0.14434670415E+02 -0.37416825835E+03  0.41339189752E+03  0.17300000000E+03 0. -1.
         -6    1    1    2    0  503  0.27452061310E+02  0.14434670415E+02 -0.47727732802E+03  0.50861048281E+03  0.17300000000E+03 0. -1.
<mgrwt>
<rscale>  2 0.17575829E+03</rscale>
<asrwt>0</asrwt>
<pdfrwt beam="1">  1       21 0.54274460E-02 0.17575829E+03</pdfrwt>
<pdfrwt beam="2">  1       21 0.13641907E+00 0.17575829E+03</pdfrwt>
<totfact> 0.90222186E+04</totfact>
</mgrwt>
</event>
<event>
 4    3  0.4009700E+000  0.1984623E+03  0.7546771E-02  0.1151043E+00
         21   -1    0    0  503  502  0.00000000000E+00  0.00000000000E+00  0.11316753272E+04  0.11316753272E+04  0.00000000000E+00 0.  1.
         21   -1    0    0  501  503 -0.00000000000E+00 -0.00000000000E+00 -0.76046890252E+02  0.76046890252E+02  0.00000000000E+00 0.  1.
          6    1    1    2  501    0  0.64296110409E+02 -0.72967644145E+02  0.83112472014E+02  0.21516261271E+03  0.17300000000E+03 0.  1.
         -6    1    1    2    0  502 -0.64296110409E+02  0.72967644145E+02  0.97251596497E+03  0.99255960477E+03  0.17300000000E+03 0.  1.
<mgrwt>
<rscale>  2 0.19846226E+03</rscale>
<asrwt>0</asrwt>
<pdfrwt beam="1">  1       21 0.17410388E+00 0.19846226E+03</pdfrwt>
<pdfrwt beam="2">  1       21 0.11699522E-01 0.19846226E+03</pdfrwt>
<totfact> 0.12211177E+04</totfact>
</mgrwt>
</event>
<event>
 4    3  0.4009700E+000  0.1738137E+03  0.7546771E-02  0.1173928E+00
         21   -1    0    0  501  502  0.00000000000E+00  0.00000000000E+00  0.58105984455E+02  0.58105984455E+02  0.00000000000E+00 0.  1.
         21   -1    0    0  502  503 -0.00000000000E+00 -0.00000000000E+00 -0.59507339200E+03  0.59507339200E+03  0.00000000000E+00 0.  1.
          6    1    1    2  501    0  0.54874474185E+01 -0.15876934257E+02 -0.15243096143E+03  0.23118474673E+03  0.17300000000E+03 0.  1.
         -6    1    1    2    0  503 -0.54874474185E+01  0.15876934257E+02 -0.38453644612E+03  0.42199462973E+03  0.17300000000E+03 0.  1.
<mgrwt>
<rscale>  2 0.17381366E+03</rscale>
<asrwt>0</asrwt>
<pdfrwt beam="1">  1       21 0.89393823E-02 0.17381366E+03</pdfrwt>
<pdfrwt beam="2">  1       21 0.91549752E-01 0.17381366E+03</pdfrwt>
<totfact> 0.10058620E+05</totfact>
</mgrwt>
</event>
<event>
 4    3  0.4009700E+000  0.1823026E+03  0.7546771E-02  0.1165593E+00
         21   -1    0    0  501  502  0.00000000000E+00  0.00000000000E+00  0.55430144145E+02  0.55430144145E+02  0.00000000000E+00 0.  1.
         21   -1    0    0  502  503 -0.00000000000E+00 -0.00000000000E+00 -0.74205371606E+03  0.74205371606E+03  0.00000000000E+00 0. -1.
          6    1    1    2  501    0  0.50162689637E+02  0.28088217772E+02 -0.16858597118E+03  0.24830520149E+03  0.17300000000E+03 0.  1.
         -6    1    1    2    0  503 -0.50162689637E+02 -0.28088217772E+02 -0.51803760074E+03  0.54917865872E+03  0.17300000000E+03 0. -1.
<mgrwt>
<rscale>  2 0.18230261E+03</rscale>
<asrwt>0</asrwt>
<pdfrwt beam="1">  1       21 0.85277147E-02 0.18230261E+03</pdfrwt>
<pdfrwt beam="2">  1       21 0.11416211E+00 0.18230261E+03</pdfrwt>
<totfact> 0.64385256E+04</totfact>
</mgrwt>
</event>
<event>
 4    3  0.4009700E+000  0.2650456E+03  0.7546771E-02  0.1104149E+00
         21   -1    0    0  503  502  0.00000000000E+00  0.00000000000E+00  0.10513387300E+04  0.10513387300E+04  0.00000000000E+00 0. -1.
         21   -1    0    0  501  503 -0.00000000000E+00 -0.00000000000E+00 -0.12433458491E+03  0.12433458491E+03  0.00000000000E+00 0. -1.
          6    1    1    2  501    0  0.73727421331E+02 -0.18677375007E+03  0.63691467708E+02  0.27259084619E+03  0.17300000000E+03 0. -1.
         -6    1    1    2    0  502 -0.73727421331E+02  0.18677375007E+03  0.86331267736E+03  0.90308246869E+03  0.17300000000E+03 0. -1.
<mgrwt>
<rscale>  2 0.26504559E+03</rscale>
<asrwt>0</asrwt>
<pdfrwt beam="1">  1       21 0.16174441E+00 0.26504559E+03</pdfrwt>
<pdfrwt beam="2">  1       21 0.19128398E-01 0.26504559E+03</pdfrwt>
<totfact> 0.58145872E+03</totfact>
</mgrwt>
</event>
<event>
 4    3  0.4009700E+000  0.2486169E+03  0.7546771E-02  0.1114182E+00
         21   -1    0    0  503  502  0.00000000000E+00  0.00000000000E+00  0.55172636382E+02  0.55172636382E+02  0.00000000000E+00 0.  1.
         21   -1    0    0  501  503 -0.00000000000E+00 -0.00000000000E+00 -0.13096818565E+04  0.13096818565E+04  0.00000000000E+00 0. -1.
          6    1    1    2  501    0  0.12155132176E+03  0.13079229341E+03 -0.88675225717E+03  0.92094511966E+03  0.17300000000E+03 0. -1.
         -6    1    1    2    0  502 -0.12155132176E+03 -0.13079229341E+03 -0.36775696296E+03  0.44390937323E+03  0.17300000000E+03 0.  1.
<mgrwt>
<rscale>  2 0.24861687E+03</rscale>
<asrwt>0</asrwt>
<pdfrwt beam="1">  1       21 0.84880986E-02 0.24861687E+03</pdfrwt>
<pdfrwt beam="2">  1       21 0.20148950E+00 0.24861687E+03</pdfrwt>
<totfact> 0.13646975E+04</totfact>
</mgrwt>
</event>
<event>
 4    3  0.4009700E+000  0.1817355E+03  0.7546771E-02  0.1166134E+00
         21   -1    0    0  501  502  0.00000000000E+00  0.00000000000E+00  0.30671992624E+04  0.30671992624E+04  0.00000000000E+00 0. -1.
         21   -1    0    0  502  503 -0.00000000000E+00 -0.00000000000E+00 -0.70930161046E+02  0.70930161046E+02  0.00000000000E+00 0. -1.
          6    1    1    2  501    0 -0.40288800654E+02 -0.38413451008E+02  0.29431978975E+04  0.29488034259E+04  0.17300000000E+03 0. -1.
         -6    1    1    2    0  503  0.40288800654E+02  0.38413451008E+02  0.53071203866E+02  0.18932599757E+03  0.17300000000E+03 0. -1.
<mgrwt>
<rscale>  2 0.18173547E+03</rscale>
<asrwt>0</asrwt>
<pdfrwt beam="1">  1       21 0.47187671E+00 0.18173547E+03</pdfrwt>
<pdfrwt beam="2">  1       21 0.10912335E-01 0.18173547E+03</pdfrwt>
<totfact> 0.21042991E+02</totfact>
</mgrwt>
</event>
<event>
 4    3  0.4009700E+000  0.1953629E+03  0.7546771E-02  0.1153711E+00
         21   -1    0    0  501  502  0.00000000000E+00  0.00000000000E+00  0.32355801931E+02  0.32355801931E+02  0.00000000000E+00 0.  1.
         21   -1    0    0  502  503 -0.00000000000E+00 -0.00000000000E+00 -0.13192766004E+04  0.13192766004E+04  0.00000000000E+00 0.  1.
          6    1    1    2  501    0  0.73043932308E+02 -0.53872560557E+02 -0.42355606239E+03  0.46644014280E+03  0.17300000000E+03 0.  1.
         -6    1    1    2    0  503 -0.73043932308E+02  0.53872560557E+02 -0.86336473608E+03  0.88519225953E+03  0.17300000000E+03 0.  1.
<mgrwt>
<rscale>  2 0.19536292E+03</rscale>
<asrwt>0</asrwt>
<pdfrwt beam="1">  1       21 0.49778157E-02 0.19536292E+03</pdfrwt>
<pdfrwt beam="2">  1       21 0.20296563E+00 0.19536292E+03</pdfrwt>
<totfact> 0.34769496E+04</totfact>
</mgrwt>
</event>
<event>
 4    3  0.4009700E+000  0.2159757E+03  0.7546771E-02  0.1136919E+00
         21   -1    0    0  503  502  0.00000000000E+00  0.00000000000E+00  0.13321354482E+04  0.13321354482E+04  0.00000000000E+00 0.  1.
         21   -1    0    0  501  503 -0.00000000000E+00 -0.00000000000E+00 -0.37128816982E+02  0.37128816982E+02  0.00000000000E+00 0. -1.
          6    1    1    2  501    0 -0.40960881164E+02  0.12263239436E+03  0.81083694973E+03  0.83910789353E+03  0.17300000000E+03 0.  1.
         -6    1    1    2    0  502  0.40960881164E+02 -0.12263239436E+03  0.48416968147E+03  0.53015637164E+03  0.17300000000E+03 0. -1.
<mgrwt>
<rscale>  2 0.21597569E+03</rscale>
<asrwt>0</asrwt>
<pdfrwt beam="1">  1       21 0.20494388E+00 0.21597569E+03</pdfrwt>
<pdfrwt beam="2">  1       21 0.57121267E-02 0.21597569E+03</pdfrwt>
<totfact> 0.26335021E+04</totfact>
</mgrwt>
</event>
<event>
 4    3  0.4009700E+000  0.1957903E+03  0.7546771E-02  0.1153340E+00
         21   -1    0    0  501  502  0.00000000000E+00  0.00000000000E+00  0.98507976676E+03  0.98507976676E+03  0.00000000000E+00 0. -1.
         21   -1    0    0  502  503 -0.00000000000E+00 -0.00000000000E+00 -0.40101469635E+02  0.40101469635E+02  0.00000000000E+00 0.  1.
          6    1    1    2  501    0  0.14356502557E+01 -0.91666620831E+02  0.38429886587E+03  0.43129972035E+03  0.17300000000E+03 0.  1.
         -6    1    1    2    0  503 -0.14356502557E+01  0.91666620831E+02  0.56067943126E+03  0.59388151605E+03  0.17300000000E+03 0. -1.
<mgrwt>
<rscale>  2 0.19579027E+03</rscale>
<asrwt>0</asrwt>
<pdfrwt beam="1">  1       21 0.15155071E+00 0.19579027E+03</pdfrwt>
<pdfrwt beam="2">  1       21 0.61694576E-02 0.19579027E+03</pdfrwt>
<totfact> 0.54592966E+04</totfact>
</mgrwt>
</event>
<event>
 4    3  0.4009700E+000  0.3922891E+03  0.7546771E-02  0.1046483E+00
         21   -1    0    0  503  502  0.00000000000E+00  0.00000000000E+00  0.10473408758E+04  0.10473408758E+04  0.00000000000E+00 0.  1.
         21   -1    0    0  501  503 -0.00000000000E+00 -0.00000000000E+00 -0.16264325679E+03  0.16264325679E+03  0.00000000000E+00 0. -1.
          6    1    1    2  501    0  0.25600106113E+03  0.24171302115E+03  0.25433071243E+03  0.46751988105E+03  0.17300000000E+03 0. -1.
         -6    1    1    2    0  502 -0.25600106113E+03 -0.24171302115E+03  0.63036690656E+03  0.74246425151E+03  0.17300000000E+03 0.  1.
<mgrwt>
<rscale>  2 0.39228909E+03</rscale>
<asrwt>0</asrwt>
<pdfrwt beam="1">  1       21 0.16112936E+00 0.39228909E+03</pdfrwt>
<pdfrwt beam="2">  1       21 0.25022040E-01 0.39228909E+03</pdfrwt>
<totfact> 0.32952068E+03</totfact>
</mgrwt>
</event>
<event>
 4    3  0.4009700E+000  0.3444974E+03  0.7546771E-02  0.1064896E+00
         21   -1    0    0  503  502  0.00000000000E+00  0.00000000000E+00  0.12924902432E+04  0.12924902432E+04  0.00000000000E+00 0.  1.
         21   -1    0    0  501  503 -0.00000000000E+00 -0.00000000000E+00 -0.95625834118E+02  0.95625834118E+02  0.00000000000E+00 0.  1.
          6    1    1    2  501    0 -0.19568890687E+03  0.22462263850E+03  0.45999789568E+03  0.57469691319E+03  0.17300000000E+03 0.  1.
         -6    1    1    2    0  502  0.19568890687E+03 -0.22462263850E+03  0.73686651337E+03  0.81341916410E+03  0.17300000000E+03 0.  1.
<mgrwt>
<rscale>  2 0.34449743E+03</rscale>
<asrwt>0</asrwt>
<pdfrwt beam="1">  1       21 0.19884464E+00 0.34449743E+03</pdfrwt>
<pdfrwt beam="2">  1       21 0.14711668E-01 0.34449743E+03</pdfrwt>
<totfact> 0.50001823E+03</totfact>
</mgrwt>
</event>
<event>
 4    3  0.4009700E+000  0.2014979E+03  0.7546771E-02  0.1148481E+00
         21   -1    0    0  503  502  0.00000000000E+00  0.00000000000E+00  0.29219212594E+03  0.29219212594E+03  0.00000000000E+00 0.  1.
         21   -1    0    0  501  503 -0.00000000000E+00 -0.00000000000E+00 -0.20006651414E+03  0.20006651414E+03  0.00000000000E+00 0.  1.
          6    1    1    2  501    0  0.98864978002E+02  0.29968573842E+02 -0.89968725597E+02  0.22067118271E+03  0.17300000000E+03 0.  1.
         -6    1    1    2    0  502 -0.98864978002E+02 -0.29968573842E+02  0.18209433740E+03  0.27158745738E+03  0.17300000000E+03 0.  1.
<mgrwt>
<rscale>  2 0.20149789E+03</rscale>
<asrwt>0</asrwt>
<pdfrwt beam="1">  1       21 0.44952635E-01 0.20149789E+03</pdfrwt>
<pdfrwt beam="2">  1       21 0.30779464E-01 0.20149789E+03</pdfrwt>
<totfact> 0.47924444E+04</totfact>
</mgrwt>
</event>
<event>
 4    3  0.4009700E+000  0.1960103E+03  0.7546771E-02  0.1153149E+00
         21   -1    0    0  501  502  0.00000000000E+00  0.00000000000E+00  0.49778857790E+03  0.49778857790E+03  0.00000000000E+00 0. -1.
         21   -1    0    0  502  503 -0.00000000000E+00 -0.00000000000E+00 -0.37827328767E+03  0.37827328767E+03  0.00000000000E+00 0. -1.
          6    1    1    2  501    0  0.77496844964E+02 -0.49852702364E+02  0.45055482594E+03  0.49134479145E+03  0.17300000000E+03 0. -1.
         -6    1    1    2    0  503 -0.77496844964E+02  0.49852702364E+02 -0.33103953571E+03  0.38471707411E+03  0.17300000000E+03 0. -1.
<mgrwt>
<rscale>  2 0.19601034E+03</rscale>
<asrwt>0</asrwt>
<pdfrwt beam="1">  1       21 0.76582858E-01 0.19601034E+03</pdfrwt>
<pdfrwt beam="2">  1       21 0.58195890E-01 0.19601034E+03</pdfrwt>
<totfact> 0.41861951E+03</totfact>
</mgrwt>
</event>
<event>
 4    3  0.4009700E+000  0.2129607E+03  0.7546771E-02  0.1139243E+00
         21   -1    0    0  501  502  0.00000000000E+00  0.00000000000E+00  0.13197988683E+03  0.13197988683E+03  0.00000000000E+00 0.  1.
         21   -1    0    0  502  503 -0.00000000000E+00 -0.00000000000E+00 -0.37885796319E+03  0.37885796319E+03  0.00000000000E+00 0. -1.
          6    1    1    2  501    0  0.47478540216E+02 -0.11475648088E+03 -0.45553286744E+02  0.21777824414E+03  0.17300000000E+03 0.  1.
         -6    1    1    2    0  503 -0.47478540216E+02  0.11475648088E+03 -0.20132478962E+03  0.29305960588E+03  0.17300000000E+03 0. -1.
<mgrwt>
<rscale>  2 0.21296070E+03</rscale>
<asrwt>0</asrwt>
<pdfrwt beam="1">  1       21 0.20304598E-01 0.21296070E+03</pdfrwt>
<pdfrwt beam="2">  1       21 0.58285840E-01 0.21296070E+03</pdfrwt>
<totfact> 0.61296908E+04</totfact>
</mgrwt>
</event>
<event>
 4    3  0.4009700E+000  0.4268207E+03  0.7546771E-02  0.1034869E+00
         21   -1    0    0  503  502  0.00000000000E+00  0.00000000000E+00  0.13738710884E+04  0.13738710884E+04  0.00000000000E+00 0. -1.
         21   -1    0    0  501  503 -0.00000000000E+00 -0.00000000000E+00 -0.14639703272E+03  0.14639703272E+03  0.00000000000E+00 0. -1.
          6    1    1    2  501    0 -0.38716052693E+03 -0.48514431141E+02  0.38038593928E+03  0.57172492201E+03  0.17300000000E+03 0. -1.
         -6    1    1    2    0  502  0.38716052693E+03  0.48514431141E+02  0.84708811642E+03  0.94854319914E+03  0.17300000000E+03 0. -1.
<mgrwt>
<rscale>  2 0.42682072E+03</rscale>
<asrwt>0</asrwt>
<pdfrwt beam="1">  1       21 0.21136477E+00 0.42682072E+03</pdfrwt>
<pdfrwt beam="2">  1       21 0.22522621E-01 0.42682072E+03</pdfrwt>
<totfact> 0.17850693E+03</totfact>
</mgrwt>
</event>
<event>
 4    3  0.4009700E+000  0.2520252E+03  0.7546771E-02  0.1112032E+00
         21   -1    0    0  503  502  0.00000000000E+00  0.00000000000E+00  0.86842960816E+02  0.86842960816E+02  0.00000000000E+00 0.  1.
         21   -1    0    0  501  503 -0.00000000000E+00 -0.00000000000E+00 -0.74028878660E+03  0.74028878660E+03  0.00000000000E+00 0. -1.
          6    1    1    2  501    0 -0.15280625377E+03 -0.10118265763E+03 -0.37204798642E+03  0.44937332542E+03  0.17300000000E+03 0.  1.
         -6    1    1    2    0  502  0.15280625377E+03  0.10118265763E+03 -0.28139783936E+03  0.37775842200E+03  0.17300000000E+03 0. -1.
<mgrwt>
<rscale>  2 0.25202516E+03</rscale>
<asrwt>0</asrwt>
<pdfrwt beam="1">  1       21 0.13360456E-01 0.25202516E+03</pdfrwt>
<pdfrwt beam="2">  1       21 0.11389058E+00 0.25202516E+03</pdfrwt>
<totfact> 0.28134803E+04</totfact>
</mgrwt>
</event>
<event>
 4    3  0.4009700E+000  0.2591969E+03  0.7546771E-02  0.1107627E+00
         21   -1    0    0  503  502  0.00000000000E+00  0.00000000000E+00  0.23967577364E+04  0.23967577364E+04  0.00000000000E+00 0.  1.
         21   -1    0    0  501  503 -0.00000000000E+00 -0.00000000000E+00 -0.41990113022E+02  0.41990113022E+02  0.00000000000E+00 0.  1.
          6    1    1    2  501    0 -0.79359934184E+02  0.17594320811E+03  0.47431866666E+03  0.54051938835E+03  0.17300000000E+03 0.  1.
         -6    1    1    2    0  502  0.79359934184E+02 -0.17594320811E+03  0.18804489567E+04  0.18982284610E+04  0.17300000000E+03 0.  1.
<mgrwt>
<rscale>  2 0.25919686E+03</rscale>
<asrwt>0</asrwt>
<pdfrwt beam="1">  1       21 0.36873185E+00 0.25919686E+03</pdfrwt>
<pdfrwt beam="2">  1       21 0.64600192E-02 0.25919686E+03</pdfrwt>
<totfact> 0.21687840E+03</totfact>
</mgrwt>
</event>
<event>
 4    3  0.4009700E+000  0.2150304E+03  0.7546771E-02  0.1137643E+00
         21   -1    0    0  501  502  0.00000000000E+00  0.00000000000E+00  0.17914710545E+03  0.17914710545E+03  0.00000000000E+00 0.  1.
         21   -1    0    0  502  503 -0.00000000000E+00 -0.00000000000E+00 -0.28972140687E+03  0.28972140687E+03  0.00000000000E+00 0.  1.
          6    1    1    2  501    0 -0.12644203004E+03 -0.17930108940E+02  0.22161419774E+02  0.21616938796E+03  0.17300000000E+03 0.  1.
         -6    1    1    2    0  503  0.12644203004E+03  0.17930108940E+02 -0.13273572120E+03  0.25269912435E+03  0.17300000000E+03 0.  1.
<mgrwt>
<rscale>  2 0.21503041E+03</rscale>
<asrwt>0</asrwt>
<pdfrwt beam="1">  1       21 0.27561093E-01 0.21503041E+03</pdfrwt>
<pdfrwt beam="2">  1       21 0.44572524E-01 0.21503041E+03</pdfrwt>
<totfact> 0.60083413E+04</totfact>
</mgrwt>
</event>
<event>
 4    3  0.4009700E+000  0.1832790E+03  0.7546771E-02  0.1164667E+00
         21   -1    0    0  503  502  0.00000000000E+00  0.00000000000E+00  0.87587253426E+03  0.87587253426E+03  0.00000000000E+00 0.  1.
         21   -1    0    0  501  503 -0.00000000000E+00 -0.00000000000E+00 -0.39152801853E+02  0.39152801853E+02  0.00000000000E+00 0.  1.
          6    1    1    2  501    0  0.60093256778E+02  0.71403168083E+01  0.48380401770E+03  0.51735627104E+03  0.17300000000E+03 0.  1.
         -6    1    1    2    0  502 -0.60093256778E+02 -0.71403168083E+01  0.35291571470E+03  0.39766906507E+03  0.17300000000E+03 0.  1.
<mgrwt>
<rscale>  2 0.18327898E+03</rscale>
<asrwt>0</asrwt>
<pdfrwt beam="1">  1       21 0.13474961E+00 0.18327898E+03</pdfrwt>
<pdfrwt beam="2">  1       21 0.60235087E-02 0.18327898E+03</pdfrwt>
<totfact> 0.77656303E+04</totfact>
</mgrwt>
</event>
<event>
 4    3  0.4009700E+000  0.1830102E+03  0.7546771E-02  0.1164921E+00
         21   -1    0    0  503  502  0.00000000000E+00  0.00000000000E+00  0.72044089921E+03  0.72044089921E+03  0.00000000000E+00 0. -1.
         21   -1    0    0  501  503 -0.00000000000E+00 -0.00000000000E+00 -0.11115126022E+03  0.11115126022E+03  0.00000000000E+00 0. -1.
          6    1    1    2  501    0 -0.29688852820E+02 -0.51790929863E+02 -0.12492922284E+02  0.18343609652E+03  0.17300000000E+03 0. -1.
         -6    1    1    2    0  502  0.29688852820E+02  0.51790929863E+02  0.62178256127E+03  0.64815606292E+03  0.17300000000E+03 0. -1.
<mgrwt>
<rscale>  2 0.18301019E+03</rscale>
<asrwt>0</asrwt>
<pdfrwt beam="1">  1       21 0.11083706E+00 0.18301019E+03</pdfrwt>
<pdfrwt beam="2">  1       21 0.17100194E-01 0.18301019E+03</pdfrwt>
<totfact> 0.19908974E+04</totfact>
</mgrwt>
</event>
<event>
 4    3  0.4009700E+000  0.2194574E+03  0.7546771E-02  0.1134288E+00
         21   -1    0    0  501  502  0.00000000000E+00  0.00000000000E+00  0.23957332004E+03  0.23957332004E+03  0.00000000000E+00 0.  1.
         21   -1    0    0  502  503 -0.00000000000E+00 -0.00000000000E+00 -0.27134497331E+03  0.27134497331E+03  0.00000000000E+00 0.  1.
          6    1    1    2  501    0  0.61806287332E+02 -0.12005216490E+03  0.11415597974E+03  0.24737244625E+03  0.17300000000E+03 0.  1.
         -6    1    1    2    0  503 -0.61806287332E+02  0.12005216490E+03 -0.14592763300E+03  0.26354584710E+03  0.17300000000E+03 0.  1.
<mgrwt>
<rscale>  2 0.21945738E+03</rscale>
<asrwt>0</asrwt>
<pdfrwt beam="1">  1       21 0.36857434E-01 0.21945738E+03</pdfrwt>
<pdfrwt beam="2">  1       21 0.41745380E-01 0.21945738E+03</pdfrwt>
<totfact> 0.38691827E+04</totfact>
</mgrwt>
</event>
<event>
 4    3  0.4009700E+000  0.1828571E+03  0.7546771E-02  0.1165066E+00
         21   -1    0    0  503  502  0.00000000000E+00  0.00000000000E+00  0.11473496734E+03  0.11473496734E+03  0.00000000000E+00 0. -1.
         21   -1    0    0  501  503 -0.00000000000E+00 -0.00000000000E+00 -0.30121031059E+03  0.30121031059E+03  0.00000000000E+00 0. -1.
          6    1    1    2  501    0 -0.68165019338E+00  0.59222041788E+02 -0.55753864428E+02  0.19116801061E+03  0.17300000000E+03 0.  1.
         -6    1    1    2    0  502  0.68165019338E+00 -0.59222041788E+02 -0.13072147882E+03  0.22477726732E+03  0.17300000000E+03 0.  1.
<mgrwt>
<rscale>  2 0.18285709E+03</rscale>
<asrwt>0</asrwt>
<pdfrwt beam="1">  1       21 0.17651534E-01 0.18285709E+03</pdfrwt>
<pdfrwt beam="2">  1       21 0.46340047E-01 0.18285709E+03</pdfrwt>
<totfact> 0.13028565E+05</totfact>
</mgrwt>
</event>
<event>
 4    3  0.4009700E+000  0.2175599E+03  0.7546771E-02  0.1135715E+00
         21   -1    0    0  501  502  0.00000000000E+00  0.00000000000E+00  0.21655511036E+03  0.21655511036E+03  0.00000000000E+00 0.  1.
         21   -1    0    0  502  503 -0.00000000000E+00 -0.00000000000E+00 -0.30326480743E+03  0.30326480743E+03  0.00000000000E+00 0.  1.
          6    1    1    2  501    0 -0.11065806219E+03  0.71820013230E+02  0.93999317986E+02  0.23699829706E+03  0.17300000000E+03 0.  1.
         -6    1    1    2    0  503  0.11065806219E+03 -0.71820013230E+02 -0.18070901506E+03  0.28282162073E+03  0.17300000000E+03 0.  1.
<mgrwt>
<rscale>  2 0.21755993E+03</rscale>
<asrwt>0</asrwt>
<pdfrwt beam="1">  1       21 0.33316171E-01 0.21755993E+03</pdfrwt>
<pdfrwt beam="2">  1       21 0.46656124E-01 0.21755993E+03</pdfrwt>
<totfact> 0.37682634E+04</totfact>
</mgrwt>
</event>
<event>
 4    3  0.4009700E+000  0.1914373E+03  0.7546771E-02  0.1157171E+00
         21   -1    0    0  501  502  0.00000000000E+00  0.00000000000E+00  0.26714652830E+03  0.26714652830E+03  0.00000000000E+00 0. -1.
         21   -1    0    0  502  503 -0.00000000000E+00 -0.00000000000E+00 -0.17204986963E+03  0.17204986963E+03  0.00000000000E+00 0. -1.
          6    1    1    2  501    0  0.47881947693E+02  0.66532500837E+02 -0.51307267492E+02  0.19819356771E+03  0.17300000000E+03 0. -1.
         -6    1    1    2    0  503 -0.47881947693E+02 -0.66532500837E+02  0.14640392615E+03  0.24100283022E+03  0.17300000000E+03 0. -1.
<mgrwt>
<rscale>  2 0.19143734E+03</rscale>
<asrwt>0</asrwt>
<pdfrwt beam="1">  1       21 0.41099466E-01 0.19143734E+03</pdfrwt>
<pdfrwt beam="2">  1       21 0.26469211E-01 0.19143734E+03</pdfrwt>
<totfact> 0.77459941E+04</totfact>
</mgrwt>
</event>
<event>
 4    3  0.4009700E+000  0.1805025E+03  0.7546771E-02  0.1167318E+00
         21   -1    0    0  503  502  0.00000000000E+00  0.00000000000E+00  0.18825588213E+02  0.18825588213E+02  0.00000000000E+00 0. -1.
         21   -1    0    0  501  503 -0.00000000000E+00 -0.00000000000E+00 -0.24340080722E+04  0.24340080722E+04  0.00000000000E+00 0.  1.
          6    1    1    2  501    0 -0.46382147227E+02 -0.22379510698E+02 -0.18668483282E+04  0.18755542718E+04  0.17300000000E+03 0.  1.
         -6    1    1    2    0  502  0.46382147227E+02  0.22379510698E+02 -0.54833415583E+03  0.57727938862E+03  0.17300000000E+03 0. -1.
<mgrwt>
<rscale>  2 0.18050248E+03</rscale>
<asrwt>0</asrwt>
<pdfrwt beam="1">  1       21 0.28962438E-02 0.18050248E+03</pdfrwt>
<pdfrwt beam="2">  1       21 0.37446285E+00 0.18050248E+03</pdfrwt>
<totfact> 0.85134353E+03</totfact>
</mgrwt>
</event>
<event>
 4    3  0.4009700E+000  0.3320202E+03  0.7546771E-02  0.1070246E+00
         21   -1    0    0  503  502  0.00000000000E+00  0.00000000000E+00  0.96813674990E+03  0.96813674990E+03  0.00000000000E+00 0.  1.
         21   -1    0    0  501  503 -0.00000000000E+00 -0.00000000000E+00 -0.12088985501E+03  0.12088985501E+03  0.00000000000E+00 0. -1.
          6    1    1    2  501    0  0.14632641446E+02 -0.28300935946E+03  0.29236851829E+03  0.44239887231E+03  0.17300000000E+03 0.  1.
         -6    1    1    2    0  502 -0.14632641446E+02  0.28300935946E+03  0.55487837660E+03  0.64662773260E+03  0.17300000000E+03 0.  1.
<mgrwt>
<rscale>  2 0.33202020E+03</rscale>
<asrwt>0</asrwt>
<pdfrwt beam="1">  1       21 0.14894411E+00 0.33202020E+03</pdfrwt>
<pdfrwt beam="2">  1       21 0.18598440E-01 0.33202020E+03</pdfrwt>
<totfact> 0.73930670E+03</totfact>
</mgrwt>
</event>
<event>
 4    3  0.4009700E+000  0.1937763E+03  0.7546771E-02  0.1155099E+00
         21   -1    0    0  503  502  0.00000000000E+00  0.00000000000E+00  0.35821487586E+03  0.35821487586E+03  0.00000000000E+00 0.  1.
         21   -1    0    0  501  503 -0.00000000000E+00 -0.00000000000E+00 -0.21493364508E+03  0.21493364508E+03  0.00000000000E+00 0.  1.
          6    1    1    2  501    0 -0.27384565039E+02 -0.82887592386E+02 -0.13347514404E+03  0.23529743188E+03  0.17300000000E+03 0.  1.
         -6    1    1    2    0  502  0.27384565039E+02  0.82887592386E+02  0.27675637482E+03  0.33785108906E+03  0.17300000000E+03 0.  1.
<mgrwt>
<rscale>  2 0.19377633E+03</rscale>
<asrwt>0</asrwt>
<pdfrwt beam="1">  1       21 0.55109981E-01 0.19377633E+03</pdfrwt>
<pdfrwt beam="2">  1       21 0.33066715E-01 0.19377633E+03</pdfrwt>
<totfact> 0.27334450E+04</totfact>
</mgrwt>
</event>
<event>
 4    3  0.4009700E+000  0.1834929E+03  0.7546771E-02  0.1164465E+00
         21   -1    0    0  501  502  0.00000000000E+00  0.00000000000E+00  0.67458514157E+02  0.67458514157E+02  0.00000000000E+00 0.  1.
         21   -1    0    0  502  503 -0.00000000000E+00 -0.00000000000E+00 -0.78434852323E+03  0.78434852323E+03  0.00000000000E+00 0. -1.
          6    1    1    2  501    0 -0.60661850511E+02 -0.77960596224E+01 -0.10160892014E+03  0.20974749416E+03  0.17300000000E+03 0.  1.
         -6    1    1    2    0  503  0.60661850511E+02  0.77960596224E+01 -0.61528108893E+03  0.64205954323E+03  0.17300000000E+03 0. -1.
<mgrwt>
<rscale>  2 0.18349288E+03</rscale>
<asrwt>0</asrwt>
<pdfrwt beam="1">  1       21 0.10378234E-01 0.18349288E+03</pdfrwt>
<pdfrwt beam="2">  1       21 0.12066900E+00 0.18349288E+03</pdfrwt>
<totfact> 0.39777797E+04</totfact>
</mgrwt>
</event>
<event>
 4    3  0.4009700E+000  0.4262098E+03  0.7546771E-02  0.1035064E+00
         21   -1    0    0  503  502  0.00000000000E+00  0.00000000000E+00  0.32097149775E+03  0.32097149775E+03  0.00000000000E+00 0. -1.
         21   -1    0    0  501  503 -0.00000000000E+00 -0.00000000000E+00 -0.93790284696E+03  0.93790284696E+03  0.00000000000E+00 0. -1.
          6    1    1    2  501    0 -0.11247966676E+03 -0.37292645987E+03  0.87917839485E+02  0.43518314122E+03  0.17300000000E+03 0. -1.
         -6    1    1    2    0  502  0.11247966676E+03  0.37292645987E+03 -0.70484918869E+03  0.82369120349E+03  0.17300000000E+03 0. -1.
<mgrwt>
<rscale>  2 0.42620983E+03</rscale>
<asrwt>0</asrwt>
<pdfrwt beam="1">  1       21 0.49380231E-01 0.42620983E+03</pdfrwt>
<pdfrwt beam="2">  1       21 0.14429275E+00 0.42620983E+03</pdfrwt>
<totfact> 0.11074228E+03</totfact>
</mgrwt>
</event>
<event>
 4    3  0.4009700E+000  0.1903184E+03  0.7546771E-02  0.1158174E+00
         21   -1    0    0  503  502  0.00000000000E+00  0.00000000000E+00  0.85103379316E+02  0.85103379316E+02  0.00000000000E+00 0.  1.
         21   -1    0    0  501  503 -0.00000000000E+00 -0.00000000000E+00 -0.66100266912E+03  0.66100266912E+03  0.00000000000E+00 0.  1.
          6    1    1    2  501    0 -0.68704240294E+01  0.79024632091E+02 -0.51056891746E+03  0.54488688246E+03  0.17300000000E+03 0.  1.
         -6    1    1    2    0  502  0.68704240294E+01 -0.79024632091E+02 -0.65330372341E+02  0.20121916597E+03  0.17300000000E+03 0.  1.
<mgrwt>
<rscale>  2 0.19031840E+03</rscale>
<asrwt>0</asrwt>
<pdfrwt beam="1">  1       21 0.13092827E-01 0.19031840E+03</pdfrwt>
<pdfrwt beam="2">  1       21 0.10169272E+00 0.19031840E+03</pdfrwt>
<totfact> 0.39634049E+04</totfact>
</mgrwt>
</event>
<event>
 4    3  0.4009700E+000  0.1738237E+03  0.7546771E-02  0.1173918E+00
         21   -1    0    0  501  502  0.00000000000E+00  0.00000000000E+00  0.74074666550E+03  0.74074666550E+03  0.00000000000E+00 0.  1.
         21   -1    0    0  502  503 -0.00000000000E+00 -0.00000000000E+00 -0.49342320648E+02  0.49342320648E+02  0.00000000000E+00 0.  1.
          6    1    1    2  501    0 -0.15139368587E+02 -0.75152765167E+01  0.18123049444E+03  0.25111585370E+03  0.17300000000E+03 0.  1.
         -6    1    1    2    0  503  0.15139368587E+02  0.75152765167E+01  0.51017385041E+03  0.53897313245E+03  0.17300000000E+03 0.  1.
<mgrwt>
<rscale>  2 0.17382370E+03</rscale>
<asrwt>0</asrwt>
<pdfrwt beam="1">  1       21 0.11396102E+00 0.17382370E+03</pdfrwt>
<pdfrwt beam="2">  1       21 0.75911268E-02 0.17382370E+03</pdfrwt>
<totfact> 0.79477765E+04</totfact>
</mgrwt>
</event>
<event>
 4    3  0.4009700E+000  0.2427277E+03  0.7546771E-02  0.1117989E+00
         21   -1    0    0  503  502  0.00000000000E+00  0.00000000000E+00  0.36860039564E+03  0.36860039564E+03  0.00000000000E+00 0. -1.
         21   -1    0    0  501  503 -0.00000000000E+00 -0.00000000000E+00 -0.17160618763E+03  0.17160618763E+03  0.00000000000E+00 0. -1.
          6    1    1    2  501    0 -0.36780323936E+02 -0.16623755011E+03  0.27767714139E+02  0.24431078822E+03  0.17300000000E+03 0. -1.
         -6    1    1    2    0  502  0.36780323936E+02  0.16623755011E+03  0.16922649387E+03  0.29589579504E+03  0.17300000000E+03 0. -1.
<mgrwt>
<rscale>  2 0.24272766E+03</rscale>
<asrwt>0</asrwt>
<pdfrwt beam="1">  1       21 0.56707753E-01 0.24272766E+03</pdfrwt>
<pdfrwt beam="2">  1       21 0.26400952E-01 0.24272766E+03</pdfrwt>
<totfact> 0.38941002E+04</totfact>
</mgrwt>
</event>
<event>
 4    3  0.4009700E+000  0.1918168E+03  0.7546771E-02  0.1156833E+00
         21   -1    0    0  503  502  0.00000000000E+00  0.00000000000E+00  0.67731573805E+02  0.67731573805E+02  0.00000000000E+00 0. -1.
         21   -1    0    0  501  503 -0.00000000000E+00 -0.00000000000E+00 -0.10501102101E+04  0.10501102101E+04  0.00000000000E+00 0.  1.
          6    1    1    2  501    0  0.33343109470E+02 -0.75848003821E+02 -0.87950636619E+03  0.90018061011E+03  0.17300000000E+03 0.  1.
         -6    1    1    2    0  502 -0.33343109470E+02  0.75848003821E+02 -0.10287227014E+03  0.21766117384E+03  0.17300000000E+03 0. -1.
<mgrwt>
<rscale>  2 0.19181679E+03</rscale>
<asrwt>0</asrwt>
<pdfrwt beam="1">  1       21 0.10420242E-01 0.19181679E+03</pdfrwt>
<pdfrwt beam="2">  1       21 0.16155542E+00 0.19181679E+03</pdfrwt>
<totfact> 0.18510843E+04</totfact>
</mgrwt>
</event>
<event>
 4    3  0.4009700E+000  0.2075055E+03  0.7546771E-02  0.1143557E+00
         21   -1    0    0  503  502  0.00000000000E+00  0.00000000000E+00  0.30801476875E+03  0.30801476875E+03  0.00000000000E+00 0.  1.
         21   -1    0    0  501  503 -0.00000000000E+00 -0.00000000000E+00 -0.17217743312E+03  0.17217743312E+03  0.00000000000E+00 0.  1.
          6    1    1    2  501    0  0.92937584212E+02 -0.67023535399E+02 -0.36207506308E+02  0.21064076616E+03  0.17300000000E+03 0.  1.
         -6    1    1    2    0  502 -0.92937584212E+02  0.67023535399E+02  0.17204484193E+03  0.26955143571E+03  0.17300000000E+03 0.  1.
<mgrwt>
<rscale>  2 0.20750554E+03</rscale>
<asrwt>0</asrwt>
<pdfrwt beam="1">  1       21 0.47386888E-01 0.20750554E+03</pdfrwt>
<pdfrwt beam="2">  1       21 0.26488836E-01 0.20750554E+03</pdfrwt>
<totfact> 0.57355645E+04</totfact>
</mgrwt>
</event>
<event>
 4    3  0.4009700E+000  0.1831807E+03  0.7546771E-02  0.1164760E+00
         21   -1    0    0  503  502  0.00000000000E+00  0.00000000000E+00  0.37513485079E+03  0.37513485079E+03  0.00000000000E+00 0.  1.
         21   -1    0    0  501  503 -0.00000000000E+00 -0.00000000000E+00 -0.32064034387E+03  0.32064034387E+03  0.00000000000E+00 0. -1.
          6    1    1    2  501    0 -0.60213642386E+02  0.70284883581E+00 -0.26815669783E+03  0.32475096816E+03  0.17300000000E+03 0. -1.
         -6    1    1    2    0  502  0.60213642386E+02 -0.70284883581E+00  0.32265120475E+03  0.37102422651E+03  0.17300000000E+03 0.  1.
<mgrwt>
<rscale>  2 0.18318072E+03</rscale>
<asrwt>0</asrwt>
<pdfrwt beam="1">  1       21 0.57713054E-01 0.18318072E+03</pdfrwt>
<pdfrwt beam="2">  1       21 0.49329284E-01 0.18318072E+03</pdfrwt>
<totfact> 0.11106851E+04</totfact>
</mgrwt>
</event>
<event>
 4    3  0.4009700E+000  0.2486901E+03  0.7546771E-02  0.1114135E+00
         21   -1    0    0  503  502  0.00000000000E+00  0.00000000000E+00  0.12335054266E+04  0.12335054266E+04  0.00000000000E+00 0.  1.
         21   -1    0    0  501  503 -0.00000000000E+00 -0.00000000000E+00 -0.50735271611E+02  0.50735271611E+02  0.00000000000E+00 0. -1.
          6    1    1    2  501    0 -0.11171697714E+02 -0.17830582214E+03  0.52177527855E+03  0.57801056594E+03  0.17300000000E+03 0. -1.
         -6    1    1    2    0  502  0.11171697714E+02  0.17830582214E+03  0.66099487641E+03  0.70623013223E+03  0.17300000000E+03 0.  1.
<mgrwt>
<rscale>  2 0.24869011E+03</rscale>
<asrwt>0</asrwt>
<pdfrwt beam="1">  1       21 0.18977004E+00 0.24869011E+03</pdfrwt>
<pdfrwt beam="2">  1       21 0.78054273E-02 0.24869011E+03</pdfrwt>
<totfact> 0.18874641E+04</totfact>
</mgrwt>
</event>
<event>
 4    3  0.4009700E+000  0.2029530E+03  0.7546771E-02  0.1147271E+00
         21   -1    0    0  501  502  0.00000000000E+00  0.00000000000E+00  0.73706201975E+02  0.73706201975E+02  0.00000000000E+00 0.  1.
         21   -1    0    0  502  503 -0.00000000000E+00 -0.00000000000E+00 -0.58920715298E+03  0.58920715298E+03  0.00000000000E+00 0.  1.
          6    1    1    2  501    0 -0.10003489152E+03 -0.35411220373E+02 -0.18250183235E+03  0.27294111610E+03  0.17300000000E+03 0.  1.
         -6    1    1    2    0  503  0.10003489152E+03  0.35411220373E+02 -0.33299911866E+03  0.38997223885E+03  0.17300000000E+03 0.  1.
<mgrwt>
<rscale>  2 0.20295303E+03</rscale>
<asrwt>0</asrwt>
<pdfrwt beam="1">  1       21 0.11339416E-01 0.20295303E+03</pdfrwt>
<pdfrwt beam="2">  1       21 0.90647250E-01 0.20295303E+03</pdfrwt>
<totfact> 0.66760161E+04</totfact>
</mgrwt>
</event>
<event>
 4    3  0.4009700E+000  0.1903796E+03  0.7546771E-02  0.1158119E+00
         21   -1    0    0  503  502  0.00000000000E+00  0.00000000000E+00  0.13840421205E+03  0.13840421205E+03  0.00000000000E+00 0.  1.
         21   -1    0    0  501  503 -0.00000000000E+00 -0.00000000000E+00 -0.29466645939E+03  0.29466645939E+03  0.00000000000E+00 0.  1.
          6    1    1    2  501    0  0.50828319080E+02 -0.61088997215E+02 -0.58950226841E+01  0.19047082426E+03  0.17300000000E+03 0.  1.
         -6    1    1    2    0  502 -0.50828319080E+02  0.61088997215E+02 -0.15036722465E+03  0.24259984718E+03  0.17300000000E+03 0.  1.
<mgrwt>
<rscale>  2 0.19037958E+03</rscale>
<asrwt>0</asrwt>
<pdfrwt beam="1">  1       21 0.21292956E-01 0.19037958E+03</pdfrwt>
<pdfrwt beam="2">  1       21 0.45333301E-01 0.19037958E+03</pdfrwt>
<totfact> 0.95892897E+04</totfact>
</mgrwt>
</event>
<event>
 4    3  0.4009700E+000  0.2191586E+03  0.7546771E-02  0.1134512E+00
         21   -1    0    0  501  502  0.00000000000E+00  0.00000000000E+00  0.75472244241E+02  0.75472244241E+02  0.00000000000E+00 0.  1.
         21   -1    0    0  502  503 -0.00000000000E+00 -0.00000000000E+00 -0.65392648746E+03  0.65392648746E+03  0.00000000000E+00 0. -1.
          6    1    1    2  501    0 -0.12763605279E+03 -0.42550230853E+02 -0.22951994396E+03  0.31734821378E+03  0.17300000000E+03 0. -1.
         -6    1    1    2    0  503  0.12763605279E+03  0.42550230853E+02 -0.34893429927E+03  0.41205051792E+03  0.17300000000E+03 0.  1.
<mgrwt>
<rscale>  2 0.21915858E+03</rscale>
<asrwt>0</asrwt>
<pdfrwt beam="1">  1       21 0.11611115E-01 0.21915858E+03</pdfrwt>
<pdfrwt beam="2">  1       21 0.10060407E+00 0.21915858E+03</pdfrwt>
<totfact> 0.49706489E+04</totfact>
</mgrwt>
</event>
<event>
 4    3  0.4009700E+000  0.2078798E+03  0.7546771E-02  0.1143256E+00
         21   -1    0    0  501  502  0.00000000000E+00  0.00000000000E+00  0.28590677781E+03  0.28590677781E+03  0.00000000000E+00 0. -1.
         21   -1    0    0  502  503 -0.00000000000E+00 -0.00000000000E+00 -0.15168643374E+03  0.15168643374E+03  0.00000000000E+00 0.  1.
          6    1    1    2  501    0 -0.11490827444E+03  0.90055522275E+01  0.80155413066E+02  0.22279789440E+03  0.17300000000E+03 0. -1.
         -6    1    1    2    0  503  0.11490827444E+03 -0.90055522275E+01  0.54064931004E+02  0.21479531715E+03  0.17300000000E+03 0. -1.
<mgrwt>
<rscale>  2 0.20787980E+03</rscale>
<asrwt>0</asrwt>
<pdfrwt beam="1">  1       21 0.43985658E-01 0.20787980E+03</pdfrwt>
<pdfrwt beam="2">  1       21 0.23336374E-01 0.20787980E+03</pdfrwt>
<totfact> 0.85189678E+04</totfact>
</mgrwt>
</event>
<event>
 4    3  0.4009700E+000  0.1812929E+03  0.7546771E-02  0.1166558E+00
         21   -1    0    0  503  502  0.00000000000E+00  0.00000000000E+00  0.27164401898E+03  0.27164401898E+03  0.00000000000E+00 0. -1.
         21   -1    0    0  501  503 -0.00000000000E+00 -0.00000000000E+00 -0.13790279396E+03  0.13790279396E+03  0.00000000000E+00 0. -1.
          6    1    1    2  501    0  0.14322894823E+02  0.52277772117E+02  0.13857605423E+03  0.22818946860E+03  0.17300000000E+03 0. -1.
         -6    1    1    2    0  502 -0.14322894823E+02 -0.52277772117E+02 -0.48348292136E+01  0.18135734434E+03  0.17300000000E+03 0. -1.
<mgrwt>
<rscale>  2 0.18129289E+03</rscale>
<asrwt>0</asrwt>
<pdfrwt beam="1">  1       21 0.41791388E-01 0.18129289E+03</pdfrwt>
<pdfrwt beam="2">  1       21 0.21215814E-01 0.18129289E+03</pdfrwt>
<totfact> 0.11437817E+05</totfact>
</mgrwt>
</event>
<event>
 4    3  0.4009700E+000  0.2001361E+03  0.7546771E-02  0.1149624E+00
         21   -1    0    0  503  502  0.00000000000E+00  0.00000000000E+00  0.19806381393E+03  0.19806381393E+03  0.00000000000E+00 0. -1.
         21   -1    0    0  501  503 -0.00000000000E+00 -0.00000000000E+00 -0.21570865237E+03  0.21570865237E+03  0.00000000000E+00 0. -1.
          6    1    1    2  501    0  0.99967845885E+02 -0.11484198630E+02 -0.60537841436E+02  0.20909157629E+03  0.17300000000E+03 0. -1.
         -6    1    1    2    0  502 -0.99967845885E+02  0.11484198630E+02  0.42893003003E+02  0.20468089001E+03  0.17300000000E+03 0. -1.
<mgrwt>
<rscale>  2 0.20013610E+03</rscale>
<asrwt>0</asrwt>
<pdfrwt beam="1">  1       21 0.30471356E-01 0.20013610E+03</pdfrwt>
<pdfrwt beam="2">  1       21 0.33185946E-01 0.20013610E+03</pdfrwt>
<totfact> 0.90098409E+04</totfact>
</mgrwt>
</event>
<event>
 4    3  0.4009700E+000  0.1973629E+03  0.7546771E-02  0.1151983E+00
         21   -1    0    0  503  502  0.00000000000E+00  0.00000000000E+00  0.56369292295E+03  0.56369292295E+03  0.00000000000E+00 0.  1.
         21   -1    0    0  501  503 -0.00000000000E+00 -0.00000000000E+00 -0.86650991493E+02  0.86650991493E+02  0.00000000000E+00 0.  1.
          6    1    1    2  501    0 -0.87052952113E+02  0.38011734113E+02  0.92183076033E+02  0.21782981410E+03  0.17300000000E+03 0.  1.
         -6    1    1    2    0  502  0.87052952113E+02 -0.38011734113E+02  0.38485885542E+03  0.43251410034E+03  0.17300000000E+03 0.  1.
<mgrwt>
<rscale>  2 0.19736289E+03</rscale>
<asrwt>0</asrwt>
<pdfrwt beam="1">  1       21 0.86721986E-01 0.19736289E+03</pdfrwt>
<pdfrwt beam="2">  1       21 0.13330922E-01 0.19736289E+03</pdfrwt>
<totfact> 0.55466996E+04</totfact>
</mgrwt>
</event>
<event>
 4    3  0.4009700E+000  0.2307049E+03  0.7546771E-02  0.1126145E+00
         21   -1    0    0  501  502  0.00000000000E+00  0.00000000000E+00  0.17672410945E+03  0.17672410945E+03  0.00000000000E+00 0. -1.
         21   -1    0    0  502  503 -0.00000000000E+00 -0.00000000000E+00 -0.34370912837E+03  0.34370912837E+03  0.00000000000E+00 0. -1.
          6    1    1    2  501    0 -0.79472942816E+02 -0.13030658927E+03  0.80477117095E+01  0.23084523281E+03  0.17300000000E+03 0. -1.
         -6    1    1    2    0  503  0.79472942816E+02  0.13030658927E+03 -0.17503273063E+03  0.28958800500E+03  0.17300000000E+03 0. -1.
<mgrwt>
<rscale>  2 0.23070491E+03</rscale>
<asrwt>0</asrwt>
<pdfrwt beam="1">  1       21 0.27188325E-01 0.23070491E+03</pdfrwt>
<pdfrwt beam="2">  1       21 0.52878327E-01 0.23070491E+03</pdfrwt>
<totfact> 0.42909285E+04</totfact>
</mgrwt>
</event>
<event>
 4    3  0.4009700E+000  0.1889634E+03  0.7546771E-02  0.1159400E+00
         21   -1    0    0  501  502  0.00000000000E+00  0.00000000000E+00  0.20859092811E+03  0.20859092811E+03  0.00000000000E+00 0.  1.
         21   -1    0    0  502  503 -0.00000000000E+00 -0.00000000000E+00 -0.30123895766E+03  0.30123895766E+03  0.00000000000E+00 0.  1.
          6    1    1    2  501    0  0.33308864571E+01 -0.75941312165E+02 -0.21382030676E+03  0.28535294160E+03  0.17300000000E+03 0.  1.
         -6    1    1    2    0  503 -0.33308864571E+01  0.75941312165E+02  0.12117227722E+03  0.22447694417E+03  0.17300000000E+03 0.  1.
<mgrwt>
<rscale>  2 0.18896343E+03</rscale>
<asrwt>0</asrwt>
<pdfrwt beam="1">  1       21 0.32090912E-01 0.18896343E+03</pdfrwt>
<pdfrwt beam="2">  1       21 0.46344455E-01 0.18896343E+03</pdfrwt>
<totfact> 0.41733966E+04</totfact>
</mgrwt>
</event>
<event>
 4    3  0.4009700E+000  0.2347698E+03  0.7546771E-02  0.1123327E+00
         21   -1    0    0  501  502  0.00000000000E+00  0.00000000000E+00  0.15455172864E+03  0.15455172864E+03  0.00000000000E+00 0. -1.
         21   -1    0    0  502  503 -0.00000000000E+00 -0.00000000000E+00 -0.39877991129E+03  0.39877991129E+03  0.00000000000E+00 0.  1.
          6    1    1    2  501    0  0.55787257326E+01  0.15860874310E+03 -0.32160580776E+02  0.23696235677E+03  0.17300000000E+03 0. -1.
         -6    1    1    2    0  503 -0.55787257326E+01 -0.15860874310E+03 -0.21206760187E+03  0.31636928317E+03  0.17300000000E+03 0.  1.
<mgrwt>
<rscale>  2 0.23476979E+03</rscale>
<asrwt>0</asrwt>
<pdfrwt beam="1">  1       21 0.23777190E-01 0.23476979E+03</pdfrwt>
<pdfrwt beam="2">  1       21 0.61350754E-01 0.23476979E+03</pdfrwt>
<totfact> 0.40326444E+04</totfact>
</mgrwt>
</event>
<event>
 4    3  0.4009700E+000  0.2156298E+03  0.7546771E-02  0.1137184E+00
         21   -1    0    0  501  502  0.00000000000E+00  0.00000000000E+00  0.24222154677E+03  0.24222154677E+03  0.00000000000E+00 0. -1.
         21   -1    0    0  502  503 -0.00000000000E+00 -0.00000000000E+00 -0.19867002069E+03  0.19867002069E+03  0.00000000000E+00 0. -1.
          6    1    1    2  501    0  0.86704952329E+02  0.95128630610E+02 -0.18745544246E+02  0.21644306538E+03  0.17300000000E+03 0. -1.
         -6    1    1    2    0  503 -0.86704952329E+02 -0.95128630610E+02  0.62297070327E+02  0.22444850209E+03  0.17300000000E+03 0. -1.
<mgrwt>
<rscale>  2 0.21562979E+03</rscale>
<asrwt>0</asrwt>
<pdfrwt beam="1">  1       21 0.37264853E-01 0.21562979E+03</pdfrwt>
<pdfrwt beam="2">  1       21 0.30564619E-01 0.21562979E+03</pdfrwt>
<totfact> 0.70652854E+04</totfact>
</mgrwt>
</event>
<event>
 4    3  0.4009700E+000  0.1778766E+03  0.7546771E-02  0.1169874E+00
         21   -1    0    0  501  502  0.00000000000E+00  0.00000000000E+00  0.12121646900E+03  0.12121646900E+03  0.00000000000E+00 0.  1.
         21   -1    0    0  502  503 -0.00000000000E+00 -0.00000000000E+00 -0.29983353648E+03  0.29983353648E+03  0.00000000000E+00 0. -1.
          6    1    1    2  501    0 -0.10849277878E+02 -0.39916980838E+02 -0.13564524765E+02  0.17839301702E+03  0.17300000000E+03 0.  1.
         -6    1    1    2    0  503  0.10849277878E+02  0.39916980838E+02 -0.16505254272E+03  0.24265698846E+03  0.17300000000E+03 0. -1.
<mgrwt>
<rscale>  2 0.17787656E+03</rscale>
<asrwt>0</asrwt>
<pdfrwt beam="1">  1       21 0.18648688E-01 0.17787656E+03</pdfrwt>
<pdfrwt beam="2">  1       21 0.46128236E-01 0.17787656E+03</pdfrwt>
<totfact> 0.11903443E+05</totfact>
</mgrwt>
</event>
<event>
 4    3  0.4009700E+000  0.2255443E+03  0.7546771E-02  0.1129816E+00
         21   -1    0    0  503  502  0.00000000000E+00  0.00000000000E+00  0.11514358821E+04  0.11514358821E+04  0.00000000000E+00 0.  1.
         21   -1    0    0  501  503 -0.00000000000E+00 -0.00000000000E+00 -0.12570099058E+03  0.12570099058E+03  0.00000000000E+00 0.  1.
          6    1    1    2  501    0 -0.85617460064E+02  0.11666558773E+03 -0.13814296236E+01  0.22554848077E+03  0.17300000000E+03 0.  1.
         -6    1    1    2    0  502  0.85617460064E+02 -0.11666558773E+03  0.10271163212E+04  0.10515883920E+04  0.17300000000E+03 0.  1.
<mgrwt>
<rscale>  2 0.22554425E+03</rscale>
<asrwt>0</asrwt>
<pdfrwt beam="1">  1       21 0.17714398E+00 0.22554425E+03</pdfrwt>
<pdfrwt beam="2">  1       21 0.19338615E-01 0.22554425E+03</pdfrwt>
<totfact> 0.45487765E+03</totfact>
</mgrwt>
</event>
<event>
 4    3  0.4009700E+000  0.2601150E+03  0.7546771E-02  0.1107074E+00
         21   -1    0    0  503  502  0.00000000000E+00  0.00000000000E+00  0.93542380935E+03  0.93542380935E+03  0.00000000000E+00 0. -1.
         21   -1    0    0  501  503 -0.00000000000E+00 -0.00000000000E+00 -0.74315361995E+02  0.74315361995E+02  0.00000000000E+00 0. -1.
          6    1    1    2  501    0  0.12687993618E+03 -0.14707926452E+03  0.51306045955E+03  0.57523113912E+03  0.17300000000E+03 0. -1.
         -6    1    1    2    0  502 -0.12687993618E+03  0.14707926452E+03  0.34804798780E+03  0.43450803223E+03  0.17300000000E+03 0. -1.
<mgrwt>
<rscale>  2 0.26011503E+03</rscale>
<asrwt>0</asrwt>
<pdfrwt beam="1">  1       21 0.14391135E+00 0.26011503E+03</pdfrwt>
<pdfrwt beam="2">  1       21 0.11433133E-01 0.26011503E+03</pdfrwt>
<totfact> 0.20484642E+04</totfact>
</mgrwt>
</event>
<event>
 4    3  0.4009700E+000  0.2492173E+03  0.7546771E-02  0.1113800E+00
         21   -1    0    0  501  502  0.00000000000E+00  0.00000000000E+00  0.36174386866E+03  0.36174386866E+03  0.00000000000E+00 0. -1.
         21   -1    0    0  502  503 -0.00000000000E+00 -0.00000000000E+00 -0.22195264266E+03  0.22195264266E+03  0.00000000000E+00 0. -1.
          6    1    1    2  501    0 -0.13180231308E+03  0.12168988451E+03 -0.68981925267E+02  0.25858805800E+03  0.17300000000E+03 0. -1.
         -6    1    1    2    0  503  0.13180231308E+03 -0.12168988451E+03  0.20877315127E+03  0.32510845331E+03  0.17300000000E+03 0. -1.
<mgrwt>
<rscale>  2 0.24921733E+03</rscale>
<asrwt>0</asrwt>
<pdfrwt beam="1">  1       21 0.55652903E-01 0.24921733E+03</pdfrwt>
<pdfrwt beam="2">  1       21 0.34146560E-01 0.24921733E+03</pdfrwt>
<totfact> 0.24405621E+04</totfact>
</mgrwt>
</event>
<event>
 4    3  0.4009700E+000  0.1954840E+03  0.7546771E-02  0.1153606E+00
         21   -1    0    0  501  502  0.00000000000E+00  0.00000000000E+00  0.49338530819E+02  0.49338530819E+02  0.00000000000E+00 0.  1.
         21   -1    0    0  502  503 -0.00000000000E+00 -0.00000000000E+00 -0.15492499608E+04  0.15492499608E+04  0.00000000000E+00 0.  1.
          6    1    1    2  501    0 -0.85831448779E+02  0.30298114890E+02 -0.18473350968E+03  0.26896186154E+03  0.17300000000E+03 0.  1.
         -6    1    1    2    0  503  0.85831448779E+02 -0.30298114890E+02 -0.13151779203E+04  0.13296266301E+04  0.17300000000E+03 0.  1.
<mgrwt>
<rscale>  2 0.19548405E+03</rscale>
<asrwt>0</asrwt>
<pdfrwt beam="1">  1       21 0.75905439E-02 0.19548405E+03</pdfrwt>
<pdfrwt beam="2">  1       21 0.23834613E+00 0.19548405E+03</pdfrwt>
<totfact> 0.10219762E+04</totfact>
</mgrwt>
</event>
<event>
 4    3  0.4009700E+000  0.2016060E+03  0.7546771E-02  0.1148391E+00
         21   -1    0    0  501  502  0.00000000000E+00  0.00000000000E+00  0.16593562059E+03  0.16593562059E+03  0.00000000000E+00 0. -1.
         21   -1    0    0  502  503 -0.00000000000E+00 -0.00000000000E+00 -0.24525885976E+03  0.24525885976E+03  0.00000000000E+00 0. -1.
          6    1    1    2  501    0 -0.22642717708E+01  0.10349316067E+03 -0.32296954647E+02  0.20417652782E+03  0.17300000000E+03 0. -1.
         -6    1    1    2    0  503  0.22642717708E+01 -0.10349316067E+03 -0.47026284526E+02  0.20701795253E+03  0.17300000000E+03 0. -1.
<mgrwt>
<rscale>  2 0.20160596E+03</rscale>
<asrwt>0</asrwt>
<pdfrwt beam="1">  1       21 0.25528557E-01 0.20160596E+03</pdfrwt>
<pdfrwt beam="2">  1       21 0.37732132E-01 0.20160596E+03</pdfrwt>
<totfact> 0.98225148E+04</totfact>
</mgrwt>
</event>
<event>
 4    3  0.4009700E+000  0.2018844E+03  0.7546771E-02  0.1148159E+00
         21   -1    0    0  501  502  0.00000000000E+00  0.00000000000E+00  0.28807249528E+03  0.28807249528E+03  0.00000000000E+00 0. -1.
         21   -1    0    0  502  503 -0.00000000000E+00 -0.00000000000E+00 -0.29394198367E+03  0.29394198367E+03  0.00000000000E+00 0. -1.
          6    1    1    2  501    0 -0.80679615703E+00  0.10405595107E+03  0.20664525485E+03  0.28889367114E+03  0.17300000000E+03 0. -1.
         -6    1    1    2    0  503  0.80679615703E+00 -0.10405595107E+03 -0.21251474324E+03  0.29312080781E+03  0.17300000000E+03 0. -1.
<mgrwt>
<rscale>  2 0.20188435E+03</rscale>
<asrwt>0</asrwt>
<pdfrwt beam="1">  1       21 0.44318846E-01 0.20188435E+03</pdfrwt>
<pdfrwt beam="2">  1       21 0.45221844E-01 0.20188435E+03</pdfrwt>
<totfact> 0.22812061E+04</totfact>
</mgrwt>
</event>
<event>
 4    3  0.4009700E+000  0.4649747E+03  0.7546771E-02  0.1023348E+00
         21   -1    0    0  503  502  0.00000000000E+00  0.00000000000E+00  0.11865692934E+04  0.11865692934E+04  0.00000000000E+00 0. -1.
         21   -1    0    0  501  503 -0.00000000000E+00 -0.00000000000E+00 -0.50650161890E+03  0.50650161890E+03  0.00000000000E+00 0.  1.
          6    1    1    2  501    0 -0.22351442160E+03 -0.36920698518E+03 -0.33733382030E+03  0.57445243570E+03  0.17300000000E+03 0.  1.
         -6    1    1    2    0  502  0.22351442160E+03  0.36920698518E+03  0.10174014948E+04  0.11186184766E+04  0.17300000000E+03 0. -1.
<mgrwt>
<rscale>  2 0.46497472E+03</rscale>
<asrwt>0</asrwt>
<pdfrwt beam="1">  1       21 0.18254912E+00 0.46497472E+03</pdfrwt>
<pdfrwt beam="2">  1       21 0.77923327E-01 0.46497472E+03</pdfrwt>
<totfact> 0.20568312E+02</totfact>
</mgrwt>
</event>
<event>
 4    3  0.4009700E+000  0.2582654E+03  0.7546771E-02  0.1108190E+00
         21   -1    0    0  501  502  0.00000000000E+00  0.00000000000E+00  0.73867103165E+03  0.73867103165E+03  0.00000000000E+00 0. -1.
         21   -1    0    0  502  503 -0.00000000000E+00 -0.00000000000E+00 -0.61653063356E+03  0.61653063356E+03  0.00000000000E+00 0.  1.
          6    1    1    2  501    0  0.18799507861E+03  0.37813886142E+02  0.68708585876E+03  0.73402180954E+03  0.17300000000E+03 0. -1.
         -6    1    1    2    0  503 -0.18799507861E+03 -0.37813886142E+02 -0.56494546066E+03  0.62117985567E+03  0.17300000000E+03 0.  1.
<mgrwt>
<rscale>  2 0.25826544E+03</rscale>
<asrwt>0</asrwt>
<pdfrwt beam="1">  1       21 0.11364170E+00 0.25826544E+03</pdfrwt>
<pdfrwt beam="2">  1       21 0.94850867E-01 0.25826544E+03</pdfrwt>
<totfact> 0.52665493E+02</totfact>
</mgrwt>
</event>
<event>
 4    3  0.4009700E+000  0.2204772E+03  0.7546771E-02  0.1133528E+00
         21   -1    0    0  501  502  0.00000000000E+00  0.00000000000E+00  0.59984579299E+02  0.59984579299E+02  0.00000000000E+00 0. -1.
         21   -1    0    0  502  503 -0.00000000000E+00 -0.00000000000E+00 -0.82272088254E+03  0.82272088254E+03  0.00000000000E+00 0. -1.
          6    1    1    2  501    0  0.94070740104E+02 -0.99155943660E+02 -0.32730997020E+03  0.39464163731E+03  0.17300000000E+03 0. -1.
         -6    1    1    2    0  503 -0.94070740104E+02  0.99155943660E+02 -0.43542633304E+03  0.48806382453E+03  0.17300000000E+03 0. -1.
<mgrwt>
<rscale>  2 0.22047722E+03</rscale>
<asrwt>0</asrwt>
<pdfrwt beam="1">  1       21 0.92283973E-02 0.22047722E+03</pdfrwt>
<pdfrwt beam="2">  1       21 0.12657244E+00 0.22047722E+03</pdfrwt>
<totfact> 0.42570957E+04</totfact>
</mgrwt>
</event>
<event>
 4    3  0.4009700E+000  0.1798073E+03  0.7546771E-02  0.1167990E+00
         21   -1    0    0  501  502  0.00000000000E+00  0.00000000000E+00  0.54026302542E+02  0.54026302542E+02  0.00000000000E+00 0.  1.
         21   -1    0    0  502  503 -0.00000000000E+00 -0.00000000000E+00 -0.69475076507E+03  0.69475076507E+03  0.00000000000E+00 0.  1.
          6    1    1    2  501    0 -0.18379069767E+01 -0.48972192466E+02 -0.45976801155E+03  0.49367730146E+03  0.17300000000E+03 0.  1.
         -6    1    1    2    0  503  0.18379069767E+01  0.48972192466E+02 -0.18095645097E+03  0.25509976614E+03  0.17300000000E+03 0.  1.
<mgrwt>
<rscale>  2 0.17980727E+03</rscale>
<asrwt>0</asrwt>
<pdfrwt beam="1">  1       21 0.83117393E-02 0.17980727E+03</pdfrwt>
<pdfrwt beam="2">  1       21 0.10688473E+00 0.17980727E+03</pdfrwt>
<totfact> 0.79042728E+04</totfact>
</mgrwt>
</event>
<event>
 4    3  0.4009700E+000  0.1846270E+03  0.7546771E-02  0.1163399E+00
         21   -1    0    0  501  502  0.00000000000E+00  0.00000000000E+00  0.36363805601E+03  0.36363805601E+03  0.00000000000E+00 0. -1.
         21   -1    0    0  502  503 -0.00000000000E+00 -0.00000000000E+00 -0.11048820194E+03  0.11048820194E+03  0.00000000000E+00 0. -1.
          6    1    1    2  501    0 -0.56443827825E+02  0.31180602433E+02  0.21887471357E+03  0.28634468025E+03  0.17300000000E+03 0. -1.
         -6    1    1    2    0  503  0.56443827825E+02 -0.31180602433E+02  0.34275140500E+02  0.18778157770E+03  0.17300000000E+03 0. -1.
<mgrwt>
<rscale>  2 0.18462702E+03</rscale>
<asrwt>0</asrwt>
<pdfrwt beam="1">  1       21 0.55944316E-01 0.18462702E+03</pdfrwt>
<pdfrwt beam="2">  1       21 0.16998185E-01 0.18462702E+03</pdfrwt>
<totfact> 0.94172789E+04</totfact>
</mgrwt>
</event>
<event>
 4    3  0.4009700E+000  0.3063965E+03  0.7546771E-02  0.1082086E+00
         21   -1    0    0  501  502  0.00000000000E+00  0.00000000000E+00  0.73283945504E+02  0.73283945504E+02  0.00000000000E+00 0. -1.
         21   -1    0    0  502  503 -0.00000000000E+00 -0.00000000000E+00 -0.21869559686E+04  0.21869559686E+04  0.00000000000E+00 0.  1.
          6    1    1    2  501    0 -0.11983634333E+03 -0.22268606897E+03 -0.32947301969E+03  0.44992366597E+03  0.17300000000E+03 0. -1.
         -6    1    1    2    0  503  0.11983634333E+03  0.22268606897E+03 -0.17841990034E+04  0.18103162482E+04  0.17300000000E+03 0.  1.
<mgrwt>
<rscale>  2 0.30639653E+03</rscale>
<asrwt>0</asrwt>
<pdfrwt beam="1">  1       21 0.11274454E-01 0.30639653E+03</pdfrwt>
<pdfrwt beam="2">  1       21 0.33645473E+00 0.30639653E+03</pdfrwt>
<totfact> 0.12161157E+03</totfact>
</mgrwt>
</event>
<event>
 4    3  0.4009700E+000  0.1734856E+03  0.7546771E-02  0.1174261E+00
         21   -1    0    0  501  502  0.00000000000E+00  0.00000000000E+00  0.12365341099E+04  0.12365341099E+04  0.00000000000E+00 0.  1.
         21   -1    0    0  502  503 -0.00000000000E+00 -0.00000000000E+00 -0.10930434166E+03  0.10930434166E+03  0.00000000000E+00 0.  1.
          6    1    1    2  501    0 -0.12542480728E+02 -0.33060387363E+01  0.11568987954E+04  0.11698342047E+04  0.17300000000E+03 0.  1.
         -6    1    1    2    0  503  0.12542480728E+02  0.33060387363E+01 -0.29669027212E+02  0.17600424680E+03  0.17300000000E+03 0.  1.
<mgrwt>
<rscale>  2 0.17348557E+03</rscale>
<asrwt>0</asrwt>
<pdfrwt beam="1">  1       21 0.19023601E+00 0.17348557E+03</pdfrwt>
<pdfrwt beam="2">  1       21 0.16816053E-01 0.17348557E+03</pdfrwt>
<totfact> 0.50365906E+03</totfact>
</mgrwt>
</event>
<event>
 4    3  0.4009700E+000  0.2471839E+03  0.7546771E-02  0.1115098E+00
         21   -1    0    0  501  502  0.00000000000E+00  0.00000000000E+00  0.23754491089E+03  0.23754491089E+03  0.00000000000E+00 0.  1.
         21   -1    0    0  502  503 -0.00000000000E+00 -0.00000000000E+00 -0.66739823791E+03  0.66739823791E+03  0.00000000000E+00 0. -1.
          6    1    1    2  501    0  0.81198672676E+02  0.15677264260E+03  0.13979542785E+03  0.28397649121E+03  0.17300000000E+03 0.  1.
         -6    1    1    2    0  503 -0.81198672676E+02 -0.15677264260E+03 -0.56964875488E+03  0.62096665759E+03  0.17300000000E+03 0. -1.
<mgrwt>
<rscale>  2 0.24718391E+03</rscale>
<asrwt>0</asrwt>
<pdfrwt beam="1">  1       21 0.36545372E-01 0.24718391E+03</pdfrwt>
<pdfrwt beam="2">  1       21 0.10267665E+00 0.24718391E+03</pdfrwt>
<totfact> 0.53543240E+03</totfact>
</mgrwt>
</event>
<event>
 4    3  0.4009700E+000  0.2062360E+03  0.7546771E-02  0.1144582E+00
         21   -1    0    0  503  502  0.00000000000E+00  0.00000000000E+00  0.30851063625E+02  0.30851063625E+02  0.00000000000E+00 0.  1.
         21   -1    0    0  501  503 -0.00000000000E+00 -0.00000000000E+00 -0.15683097748E+04  0.15683097748E+04  0.00000000000E+00 0.  1.
          6    1    1    2  501    0  0.67594983673E+02 -0.89639195194E+02 -0.10467757094E+04  0.10668986142E+04  0.17300000000E+03 0. -1.
         -6    1    1    2    0  502 -0.67594983673E+02  0.89639195194E+02 -0.49068300173E+03  0.53226222421E+03  0.17300000000E+03 0. -1.
<mgrwt>
<rscale>  2 0.20623595E+03</rscale>
<asrwt>0</asrwt>
<pdfrwt beam="1">  1       21 0.47463164E-02 0.20623595E+03</pdfrwt>
<pdfrwt beam="2">  1       21 0.24127848E+00 0.20623595E+03</pdfrwt>
<totfact> 0.21748210E+04</totfact>
</mgrwt>
</event>
<event>
 4    3  0.4009700E+000  0.1767869E+03  0.7546771E-02  0.1170949E+00
         21   -1    0    0  501  502  0.00000000000E+00  0.00000000000E+00  0.12090135694E+03  0.12090135694E+03  0.00000000000E+00 0. -1.
         21   -1    0    0  502  503 -0.00000000000E+00 -0.00000000000E+00 -0.34395431564E+03  0.34395431564E+03  0.00000000000E+00 0. -1.
          6    1    1    2  501    0 -0.21826949303E+02 -0.29123601069E+02  0.43224877872E+01  0.17683971204E+03  0.17300000000E+03 0. -1.
         -6    1    1    2    0  503  0.21826949303E+02  0.29123601069E+02 -0.22737544649E+03  0.28801596053E+03  0.17300000000E+03 0. -1.
<mgrwt>
<rscale>  2 0.17678688E+03</rscale>
<asrwt>0</asrwt>
<pdfrwt beam="1">  1       21 0.18600209E-01 0.17678688E+03</pdfrwt>
<pdfrwt beam="2">  1       21 0.52916049E-01 0.17678688E+03</pdfrwt>
<totfact> 0.89972306E+04</totfact>
</mgrwt>
</event>
<event>
 4    3  0.4009700E+000  0.2751996E+03  0.7546771E-02  0.1098340E+00
         21   -1    0    0  503  502  0.00000000000E+00  0.00000000000E+00  0.16691141614E+04  0.16691141614E+04  0.00000000000E+00 0. -1.
         21   -1    0    0  501  503 -0.00000000000E+00 -0.00000000000E+00 -0.10346291389E+03  0.10346291389E+03  0.00000000000E+00 0.  1.
          6    1    1    2  501    0 -0.12342529819E+03  0.17484857320E+03  0.11873336383E+03  0.29972060235E+03  0.17300000000E+03 0.  1.
         -6    1    1    2    0  502  0.12342529819E+03 -0.17484857320E+03  0.14469178837E+04  0.14728564730E+04  0.17300000000E+03 0. -1.
<mgrwt>
<rscale>  2 0.27519961E+03</rscale>
<asrwt>0</asrwt>
<pdfrwt beam="1">  1       21 0.25678678E+00 0.27519961E+03</pdfrwt>
<pdfrwt beam="2">  1       21 0.15917373E-01 0.27519961E+03</pdfrwt>
<totfact> 0.19700128E+03</totfact>
</mgrwt>
</event>
<event>
 4    3  0.4009700E+000  0.1839499E+03  0.7546771E-02  0.1164034E+00
         21   -1    0    0  503  502  0.00000000000E+00  0.00000000000E+00  0.80640222156E+03  0.80640222156E+03  0.00000000000E+00 0.  1.
         21   -1    0    0  501  503 -0.00000000000E+00 -0.00000000000E+00 -0.44064732297E+02  0.44064732297E+02  0.00000000000E+00 0. -1.
          6    1    1    2  501    0 -0.33565171232E+02 -0.52744161484E+02  0.28825899579E+03  0.34195148186E+03  0.17300000000E+03 0. -1.
         -6    1    1    2    0  502  0.33565171232E+02  0.52744161484E+02  0.47407849347E+03  0.50851547200E+03  0.17300000000E+03 0. -1.
<mgrwt>
<rscale>  2 0.18394990E+03</rscale>
<asrwt>0</asrwt>
<pdfrwt beam="1">  1       21 0.12406187E+00 0.18394990E+03</pdfrwt>
<pdfrwt beam="2">  1       21 0.67791902E-02 0.18394990E+03</pdfrwt>
<totfact> 0.78027449E+04</totfact>
</mgrwt>
</event>
<event>
 4    3  0.4009700E+000  0.1987665E+03  0.7546771E-02  0.1150784E+00
         21   -1    0    0  501  502  0.00000000000E+00  0.00000000000E+00  0.40971118834E+02  0.40971118834E+02  0.00000000000E+00 0. -1.
         21   -1    0    0  502  503 -0.00000000000E+00 -0.00000000000E+00 -0.10043265229E+04  0.10043265229E+04  0.00000000000E+00 0.  1.
          6    1    1    2  501    0 -0.72931330134E+02  0.65269914717E+02 -0.37732892093E+03  0.42648007603E+03  0.17300000000E+03 0. -1.
         -6    1    1    2    0  503  0.72931330134E+02 -0.65269914717E+02 -0.58602648312E+03  0.61881756568E+03  0.17300000000E+03 0. -1.
<mgrwt>
<rscale>  2 0.19876655E+03</rscale>
<asrwt>0</asrwt>
<pdfrwt beam="1">  1       21 0.63032502E-02 0.19876655E+03</pdfrwt>
<pdfrwt beam="2">  1       21 0.15451175E+00 0.19876655E+03</pdfrwt>
<totfact> 0.49903508E+04</totfact>
</mgrwt>
</event>
<event>
 4    3  0.4009700E+000  0.2590492E+03  0.7546771E-02  0.1107716E+00
         21   -1    0    0  501  502  0.00000000000E+00  0.00000000000E+00  0.11062192675E+04  0.11062192675E+04  0.00000000000E+00 0. -1.
         21   -1    0    0  502  503 -0.00000000000E+00 -0.00000000000E+00 -0.12057738464E+03  0.12057738464E+03  0.00000000000E+00 0.  1.
          6    1    1    2  501    0  0.19269132835E+03  0.68954339411E+01  0.92521078550E+03  0.96079211728E+03  0.17300000000E+03 0.  1.
         -6    1    1    2    0  503 -0.19269132835E+03 -0.68954339411E+01  0.60431097359E+02  0.26600453485E+03  0.17300000000E+03 0. -1.
<mgrwt>
<rscale>  2 0.25904921E+03</rscale>
<asrwt>0</asrwt>
<pdfrwt beam="1">  1       21 0.17018757E+00 0.25904921E+03</pdfrwt>
<pdfrwt beam="2">  1       21 0.18550368E-01 0.25904921E+03</pdfrwt>
<totfact> 0.53707496E+03</totfact>
</mgrwt>
</event>
<event>
 4    3  0.4009700E+000  0.2148542E+03  0.7546771E-02  0.1137779E+00
         21   -1    0    0  503  502  0.00000000000E+00  0.00000000000E+00  0.65886130463E+02  0.65886130463E+02  0.00000000000E+00 0.  1.
         21   -1    0    0  501  503 -0.00000000000E+00 -0.00000000000E+00 -0.87987341342E+03  0.87987341342E+03  0.00000000000E+00 0.  1.
          6    1    1    2  501    0  0.92849385221E+02 -0.87248576363E+02 -0.19356503505E+03  0.28918807930E+03  0.17300000000E+03 0.  1.
         -6    1    1    2    0  502 -0.92849385221E+02  0.87248576363E+02 -0.62042224791E+03  0.65657146459E+03  0.17300000000E+03 0.  1.
<mgrwt>
<rscale>  2 0.21485419E+03</rscale>
<asrwt>0</asrwt>
<pdfrwt beam="1">  1       21 0.10136328E-01 0.21485419E+03</pdfrwt>
<pdfrwt beam="2">  1       21 0.13536513E+00 0.21485419E+03</pdfrwt>
<totfact> 0.30505115E+04</totfact>
</mgrwt>
</event>
<event>
 4    3  0.4009700E+000  0.2010860E+03  0.7546771E-02  0.1148826E+00
         21   -1    0    0  503  502  0.00000000000E+00  0.00000000000E+00  0.95371324690E+03  0.95371324690E+03  0.00000000000E+00 0.  1.
         21   -1    0    0  501  503 -0.00000000000E+00 -0.00000000000E+00 -0.16081892690E+03  0.16081892690E+03  0.00000000000E+00 0.  1.
          6    1    1    2  501    0 -0.94410003833E+02  0.39916590203E+02 -0.81751295073E+02  0.21706878459E+03  0.17300000000E+03 0.  1.
         -6    1    1    2    0  502  0.94410003833E+02 -0.39916590203E+02  0.87464561508E+03  0.89746338921E+03  0.17300000000E+03 0.  1.
<mgrwt>
<rscale>  2 0.20108601E+03</rscale>
<asrwt>0</asrwt>
<pdfrwt beam="1">  1       21 0.14672511E+00 0.20108601E+03</pdfrwt>
<pdfrwt beam="2">  1       21 0.24741374E-01 0.20108601E+03</pdfrwt>
<totfact> 0.48590205E+03</totfact>
</mgrwt>
</event>
<event>
 4    3  0.4009700E+000  0.2203369E+03  0.7546771E-02  0.1133632E+00
         21   -1    0    0  501  502  0.00000000000E+00  0.00000000000E+00  0.27755323032E+03  0.27755323032E+03  0.00000000000E+00 0.  1.
         21   -1    0    0  502  503 -0.00000000000E+00 -0.00000000000E+00 -0.18879916551E+03  0.18879916551E+03  0.00000000000E+00 0.  1.
          6    1    1    2  501    0 -0.46209162828E+02  0.12839027692E+03  0.10760903483E+03  0.24521022474E+03  0.17300000000E+03 0.  1.
         -6    1    1    2    0  503  0.46209162828E+02 -0.12839027692E+03 -0.18854970020E+02  0.22114217109E+03  0.17300000000E+03 0.  1.
<mgrwt>
<rscale>  2 0.22033690E+03</rscale>
<asrwt>0</asrwt>
<pdfrwt beam="1">  1       21 0.42700497E-01 0.22033690E+03</pdfrwt>
<pdfrwt beam="2">  1       21 0.29046026E-01 0.22033690E+03</pdfrwt>
<totfact> 0.59117866E+04</totfact>
</mgrwt>
</event>
<event>
 4    3  0.4009700E+000  0.3510880E+03  0.7546771E-02  0.1062169E+00
         21   -1    0    0  501  502  0.00000000000E+00  0.00000000000E+00  0.26681493531E+04  0.26681493531E+04  0.00000000000E+00 0. -1.
         21   -1    0    0  502  503 -0.00000000000E+00 -0.00000000000E+00 -0.14710279774E+03  0.14710279774E+03  0.00000000000E+00 0. -1.
          6    1    1    2  501    0 -0.25873613237E+03  0.16244822840E+03  0.24263473753E+04  0.24516166908E+04  0.17300000000E+03 0. -1.
         -6    1    1    2    0  503  0.25873613237E+03 -0.16244822840E+03  0.94699180097E+02  0.36363546006E+03  0.17300000000E+03 0. -1.
<mgrwt>
<rscale>  2 0.35108804E+03</rscale>
<asrwt>0</asrwt>
<pdfrwt beam="1">  1       21 0.41048448E+00 0.35108804E+03</pdfrwt>
<pdfrwt beam="2">  1       21 0.22631202E-01 0.35108804E+03</pdfrwt>
<totfact> 0.11170583E+02</totfact>
</mgrwt>
</event>
<event>
 4    3  0.4009700E+000  0.1915351E+03  0.7546771E-02  0.1157084E+00
         21   -1    0    0  503  502  0.00000000000E+00  0.00000000000E+00  0.49338629100E+02  0.49338629100E+02  0.00000000000E+00 0. -1.
         21   -1    0    0  501  503 -0.00000000000E+00 -0.00000000000E+00 -0.75137410152E+03  0.75137410152E+03  0.00000000000E+00 0. -1.
          6    1    1    2  501    0  0.18974007688E+02  0.79979255402E+02 -0.39187415342E+03  0.43617776925E+03  0.17300000000E+03 0. -1.
         -6    1    1    2    0  502 -0.18974007688E+02 -0.79979255402E+02 -0.31016131899E+03  0.36453496137E+03  0.17300000000E+03 0. -1.
<mgrwt>
<rscale>  2 0.19153510E+03</rscale>
<asrwt>0</asrwt>
<pdfrwt beam="1">  1       21 0.75905585E-02 0.19153510E+03</pdfrwt>
<pdfrwt beam="2">  1       21 0.11559601E+00 0.19153510E+03</pdfrwt>
<totfact> 0.76154836E+04</totfact>
</mgrwt>
</event>
<event>
 4    3  0.4009700E+000  0.2617139E+03  0.7546771E-02  0.1106118E+00
         21   -1    0    0  501  502  0.00000000000E+00  0.00000000000E+00  0.35096135789E+03  0.35096135789E+03  0.00000000000E+00 0. -1.
         21   -1    0    0  502  503 -0.00000000000E+00 -0.00000000000E+00 -0.29055409256E+03  0.29055409256E+03  0.00000000000E+00 0. -1.
          6    1    1    2  501    0  0.39743512881E+02  0.19231647156E+03 -0.15358590161E+03  0.30345148084E+03  0.17300000000E+03 0. -1.
         -6    1    1    2    0  503 -0.39743512881E+02 -0.19231647156E+03  0.21399316694E+03  0.33806396961E+03  0.17300000000E+03 0. -1.
<mgrwt>
<rscale>  2 0.26171391E+03</rscale>
<asrwt>0</asrwt>
<pdfrwt beam="1">  1       21 0.53994055E-01 0.26171391E+03</pdfrwt>
<pdfrwt beam="2">  1       21 0.44700630E-01 0.26171391E+03</pdfrwt>
<totfact> 0.14986491E+04</totfact>
</mgrwt>
</event>
<event>
 4    3  0.4009700E+000  0.2588090E+03  0.7546771E-02  0.1107861E+00
         21   -1    0    0  501  502  0.00000000000E+00  0.00000000000E+00  0.13578155381E+03  0.13578155381E+03  0.00000000000E+00 0.  1.
         21   -1    0    0  502  503 -0.00000000000E+00 -0.00000000000E+00 -0.49336105872E+03  0.49336105872E+03  0.00000000000E+00 0. -1.
          6    1    1    2  501    0  0.44892545097E+01 -0.19243943719E+03 -0.17551929902E+03  0.31271251130E+03  0.17300000000E+03 0.  1.
         -6    1    1    2    0  503 -0.44892545097E+01  0.19243943719E+03 -0.18206020589E+03  0.31643010122E+03  0.17300000000E+03 0. -1.
<mgrwt>
<rscale>  2 0.25880898E+03</rscale>
<asrwt>0</asrwt>
<pdfrwt beam="1">  1       21 0.20889470E-01 0.25880898E+03</pdfrwt>
<pdfrwt beam="2">  1       21 0.75901700E-01 0.25880898E+03</pdfrwt>
<totfact> 0.31883639E+04</totfact>
</mgrwt>
</event>
<event>
 4    3  0.4009700E+000  0.2320409E+03  0.7546771E-02  0.1125211E+00
         21   -1    0    0  503  502  0.00000000000E+00  0.00000000000E+00  0.18815360913E+03  0.18815360913E+03  0.00000000000E+00 0.  1.
         21   -1    0    0  501  503 -0.00000000000E+00 -0.00000000000E+00 -0.56250052313E+03  0.56250052313E+03  0.00000000000E+00 0.  1.
          6    1    1    2  501    0  0.14776243729E+03  0.45609650505E+02 -0.45024070109E+03  0.50651719320E+03  0.17300000000E+03 0.  1.
         -6    1    1    2    0  502 -0.14776243729E+03 -0.45609650505E+02  0.75893787082E+02  0.24413693905E+03  0.17300000000E+03 0.  1.
<mgrwt>
<rscale>  2 0.23204090E+03</rscale>
<asrwt>0</asrwt>
<pdfrwt beam="1">  1       21 0.28946710E-01 0.23204090E+03</pdfrwt>
<pdfrwt beam="2">  1       21 0.86538540E-01 0.23204090E+03</pdfrwt>
<totfact> 0.12815074E+04</totfact>
</mgrwt>
</event>
<event>
 4    3  0.4009700E+000  0.1983751E+03  0.7546771E-02  0.1151117E+00
         21   -1    0    0  501  502  0.00000000000E+00  0.00000000000E+00  0.19085527558E+02  0.19085527558E+02  0.00000000000E+00 0. -1.
         21   -1    0    0  502  503 -0.00000000000E+00 -0.00000000000E+00 -0.20646816190E+04  0.20646816190E+04  0.00000000000E+00 0. -1.
          6    1    1    2  501    0 -0.30444597303E+02  0.92178137139E+02 -0.10609560379E+04  0.10793425762E+04  0.17300000000E+03 0. -1.
         -6    1    1    2    0  503  0.30444597303E+02 -0.92178137139E+02 -0.98464005357E+03  0.10044245704E+04  0.17300000000E+03 0. -1.
<mgrwt>
<rscale>  2 0.19837511E+03</rscale>
<asrwt>0</asrwt>
<pdfrwt beam="1">  1       21 0.29362361E-02 0.19837511E+03</pdfrwt>
<pdfrwt beam="2">  1       21 0.31764320E+00 0.19837511E+03</pdfrwt>
<totfact> 0.17601370E+04</totfact>
</mgrwt>
</event>
<event>
 4    3  0.4009700E+000  0.2085812E+03  0.7546771E-02  0.1142694E+00
         21   -1    0    0  501  502  0.00000000000E+00  0.00000000000E+00  0.32516587964E+03  0.32516587964E+03  0.00000000000E+00 0. -1.
         21   -1    0    0  502  503 -0.00000000000E+00 -0.00000000000E+00 -0.13380495198E+03  0.13380495198E+03  0.00000000000E+00 0. -1.
          6    1    1    2  501    0  0.11437845603E+03 -0.22241583840E+02  0.97483447445E+02  0.23023714249E+03  0.17300000000E+03 0. -1.
         -6    1    1    2    0  503 -0.11437845603E+03  0.22241583840E+02  0.93877480216E+02  0.22873368914E+03  0.17300000000E+03 0. -1.
<mgrwt>
<rscale>  2 0.20858121E+03</rscale>
<asrwt>0</asrwt>
<pdfrwt beam="1">  1       21 0.50025520E-01 0.20858121E+03</pdfrwt>
<pdfrwt beam="2">  1       21 0.20585377E-01 0.20858121E+03</pdfrwt>
<totfact> 0.82685173E+04</totfact>
</mgrwt>
</event>
<event>
 4    3  0.4009700E+000  0.1754462E+03  0.7546771E-02  0.1172284E+00
         21   -1    0    0  503  502  0.00000000000E+00  0.00000000000E+00  0.29548489765E+03  0.29548489765E+03  0.00000000000E+00 0. -1.
         21   -1    0    0  501  503 -0.00000000000E+00 -0.00000000000E+00 -0.10448668523E+03  0.10448668523E+03  0.00000000000E+00 0. -1.
          6    1    1    2  501    0 -0.17658366473E+02  0.23249510342E+02  0.10646797345E+03  0.20522374864E+03  0.17300000000E+03 0.  1.
         -6    1    1    2    0  502  0.17658366473E+02 -0.23249510342E+02  0.84530238970E+02  0.19474783423E+03  0.17300000000E+03 0.  1.
<mgrwt>
<rscale>  2 0.17544617E+03</rscale>
<asrwt>0</asrwt>
<pdfrwt beam="1">  1       21 0.45459215E-01 0.17544617E+03</pdfrwt>
<pdfrwt beam="2">  1       21 0.16074875E-01 0.17544617E+03</pdfrwt>
<totfact> 0.16131649E+05</totfact>
</mgrwt>
</event>
<event>
 4    3  0.4009700E+000  0.2763179E+03  0.7546771E-02  0.1097717E+00
         21   -1    0    0  503  502  0.00000000000E+00  0.00000000000E+00  0.24181148495E+03  0.24181148495E+03  0.00000000000E+00 0. -1.
         21   -1    0    0  501  503 -0.00000000000E+00 -0.00000000000E+00 -0.61967808874E+03  0.61967808874E+03  0.00000000000E+00 0.  1.
          6    1    1    2  501    0 -0.14216714579E+03 -0.16189839491E+03 -0.49059733156E+03  0.56306067999E+03  0.17300000000E+03 0.  1.
         -6    1    1    2    0  502  0.14216714579E+03  0.16189839491E+03  0.11273072777E+03  0.29842889371E+03  0.17300000000E+03 0. -1.
<mgrwt>
<rscale>  2 0.27631791E+03</rscale>
<asrwt>0</asrwt>
<pdfrwt beam="1">  1       21 0.37201767E-01 0.27631791E+03</pdfrwt>
<pdfrwt beam="2">  1       21 0.95335091E-01 0.27631791E+03</pdfrwt>
<totfact> 0.60622206E+03</totfact>
</mgrwt>
</event>
<event>
 4    3  0.4009700E+000  0.1730855E+03  0.7546771E-02  0.1174668E+00
         21   -1    0    0  501  502  0.00000000000E+00  0.00000000000E+00  0.24574340859E+02  0.24574340859E+02  0.00000000000E+00 0. -1.
         21   -1    0    0  502  503 -0.00000000000E+00 -0.00000000000E+00 -0.14388900132E+04  0.14388900132E+04  0.00000000000E+00 0. -1.
          6    1    1    2  501    0  0.71411299020E+00 -0.53938520996E+01 -0.42117409704E+03  0.45535285616E+03  0.17300000000E+03 0. -1.
         -6    1    1    2    0  503 -0.71411299020E+00  0.53938520996E+01 -0.99314157527E+03  0.10081114979E+04  0.17300000000E+03 0. -1.
<mgrwt>
<rscale>  2 0.17308554E+03</rscale>
<asrwt>0</asrwt>
<pdfrwt beam="1">  1       21 0.37806678E-02 0.17308554E+03</pdfrwt>
<pdfrwt beam="2">  1       21 0.22136769E+00 0.17308554E+03</pdfrwt>
<totfact> 0.43113179E+04</totfact>
</mgrwt>
</event>
<event>
 4    3  0.4009700E+000  0.2150865E+03  0.7546771E-02  0.1137600E+00
         21   -1    0    0  501  502  0.00000000000E+00  0.00000000000E+00  0.63241191651E+02  0.63241191651E+02  0.00000000000E+00 0.  1.
         21   -1    0    0  502  503 -0.00000000000E+00 -0.00000000000E+00 -0.82264313077E+03  0.82264313077E+03  0.00000000000E+00 0.  1.
          6    1    1    2  501    0  0.12127171289E+03  0.40328063820E+02 -0.23228104638E+03  0.31657015903E+03  0.17300000000E+03 0.  1.
         -6    1    1    2    0  503 -0.12127171289E+03 -0.40328063820E+02 -0.52712089274E+03  0.56931416340E+03  0.17300000000E+03 0.  1.
<mgrwt>
<rscale>  2 0.21508645E+03</rscale>
<asrwt>0</asrwt>
<pdfrwt beam="1">  1       21 0.97294147E-02 0.21508645E+03</pdfrwt>
<pdfrwt beam="2">  1       21 0.12656047E+00 0.21508645E+03</pdfrwt>
<totfact> 0.38896438E+04</totfact>
</mgrwt>
</event>
<event>
 4    3  0.4009700E+000  0.1986519E+03  0.7546771E-02  0.1150881E+00
         21   -1    0    0  501  502  0.00000000000E+00  0.00000000000E+00  0.10513601384E+03  0.10513601384E+03  0.00000000000E+00 0.  1.
         21   -1    0    0  502  503 -0.00000000000E+00 -0.00000000000E+00 -0.79080010393E+03  0.79080010393E+03  0.00000000000E+00 0.  1.
          6    1    1    2  501    0  0.34749360121E+02  0.91247350097E+02 -0.18138130189E+02  0.19947829129E+03  0.17300000000E+03 0.  1.
         -6    1    1    2    0  503 -0.34749360121E+02 -0.91247350097E+02 -0.66752595990E+03  0.69645782648E+03  0.17300000000E+03 0.  1.
<mgrwt>
<rscale>  2 0.19865195E+03</rscale>
<asrwt>0</asrwt>
<pdfrwt beam="1">  1       21 0.16174772E-01 0.19865195E+03</pdfrwt>
<pdfrwt beam="2">  1       21 0.12166155E+00 0.19865195E+03</pdfrwt>
<totfact> 0.17376112E+04</totfact>
</mgrwt>
</event>
<event>
 4    3  0.4009700E+000  0.2287934E+03  0.7546771E-02  0.1127492E+00
         21   -1    0    0  501  502  0.00000000000E+00  0.00000000000E+00  0.69256344462E+03  0.69256344462E+03  0.00000000000E+00 0.  1.
         21   -1    0    0  502  503 -0.00000000000E+00 -0.00000000000E+00 -0.78503637583E+02  0.78503637583E+02  0.00000000000E+00 0. -1.
          6    1    1    2  501    0  0.10885456855E+03  0.10280133214E+03  0.38138526526E+03  0.44474841376E+03  0.17300000000E+03 0.  1.
         -6    1    1    2    0  503 -0.10885456855E+03 -0.10280133214E+03  0.23267454178E+03  0.32631866845E+03  0.17300000000E+03 0.  1.
<mgrwt>
<rscale>  2 0.22879342E+03</rscale>
<asrwt>0</asrwt>
<pdfrwt beam="1">  1       21 0.10654822E+00 0.22879342E+03</pdfrwt>
<pdfrwt beam="2">  1       21 0.12077483E-01 0.22879342E+03</pdfrwt>
<totfact> 0.40156530E+04</totfact>
</mgrwt>
</event>
<event>
 4    3  0.4009700E+000  0.1794488E+03  0.7546771E-02  0.1168338E+00
         21   -1    0    0  503  502  0.00000000000E+00  0.00000000000E+00  0.28393349155E+03  0.28393349155E+03  0.00000000000E+00 0.  1.
         21   -1    0    0  501  503 -0.00000000000E+00 -0.00000000000E+00 -0.30094864373E+03  0.30094864373E+03  0.00000000000E+00 0.  1.
          6    1    1    2  501    0  0.17614059895E+02  0.44301429624E+02 -0.23935954181E+03  0.29915691874E+03  0.17300000000E+03 0.  1.
         -6    1    1    2    0  502 -0.17614059895E+02 -0.44301429624E+02  0.22234438963E+03  0.28572521655E+03  0.17300000000E+03 0.  1.
<mgrwt>
<rscale>  2 0.17944880E+03</rscale>
<asrwt>0</asrwt>
<pdfrwt beam="1">  1       21 0.43682076E-01 0.17944880E+03</pdfrwt>
<pdfrwt beam="2">  1       21 0.46299791E-01 0.17944880E+03</pdfrwt>
<totfact> 0.22679806E+04</totfact>
</mgrwt>
</event>
<event>
 4    3  0.4009700E+000  0.2624084E+03  0.7546771E-02  0.1105705E+00
         21   -1    0    0  503  502  0.00000000000E+00  0.00000000000E+00  0.30039164195E+03  0.30039164195E+03  0.00000000000E+00 0. -1.
         21   -1    0    0  501  503 -0.00000000000E+00 -0.00000000000E+00 -0.14478914859E+04  0.14478914859E+04  0.00000000000E+00 0.  1.
          6    1    1    2  501    0  0.18934877812E+03 -0.55463721937E+02 -0.13757153702E+04  0.14005181056E+04  0.17300000000E+03 0.  1.
         -6    1    1    2    0  502 -0.18934877812E+03  0.55463721937E+02  0.22821552632E+03  0.34776502222E+03  0.17300000000E+03 0. -1.
<mgrwt>
<rscale>  2 0.26240843E+03</rscale>
<asrwt>0</asrwt>
<pdfrwt beam="1">  1       21 0.46214100E-01 0.26240843E+03</pdfrwt>
<pdfrwt beam="2">  1       21 0.22275253E+00 0.26240843E+03</pdfrwt>
<totfact> 0.40182376E+02</totfact>
</mgrwt>
</event>
<event>
 4    3  0.4009700E+000  0.2014106E+03  0.7546771E-02  0.1148554E+00
         21   -1    0    0  501  502  0.00000000000E+00  0.00000000000E+00  0.17618240508E+03  0.17618240508E+03  0.00000000000E+00 0. -1.
         21   -1    0    0  502  503 -0.00000000000E+00 -0.00000000000E+00 -0.23727691864E+03  0.23727691864E+03  0.00000000000E+00 0. -1.
          6    1    1    2  501    0  0.30160254544E+02 -0.98628614582E+02  0.50252435953E+01  0.20147331744E+03  0.17300000000E+03 0. -1.
         -6    1    1    2    0  503 -0.30160254544E+02  0.98628614582E+02 -0.66119757156E+02  0.21198600627E+03  0.17300000000E+03 0. -1.
<mgrwt>
<rscale>  2 0.20141064E+03</rscale>
<asrwt>0</asrwt>
<pdfrwt beam="1">  1       21 0.27104985E-01 0.20141064E+03</pdfrwt>
<pdfrwt beam="2">  1       21 0.36504141E-01 0.20141064E+03</pdfrwt>
<totfact> 0.93544583E+04</totfact>
</mgrwt>
</event>
<event>
 4    3  0.4009700E+000  0.1776832E+03  0.7546771E-02  0.1170064E+00
         21   -1    0    0  501  502  0.00000000000E+00  0.00000000000E+00  0.33438597571E+03  0.33438597571E+03  0.00000000000E+00 0.  1.
         21   -1    0    0  502  503 -0.00000000000E+00 -0.00000000000E+00 -0.15835460655E+03  0.15835460655E+03  0.00000000000E+00 0.  1.
          6    1    1    2  501    0  0.71118658501E-02 -0.40525676736E+02  0.24456642855E+03  0.30229797965E+03  0.17300000000E+03 0.  1.
         -6    1    1    2    0  503 -0.71118658501E-02  0.40525676736E+02 -0.68535059384E+02  0.19044260261E+03  0.17300000000E+03 0.  1.
<mgrwt>
<rscale>  2 0.17768323E+03</rscale>
<asrwt>0</asrwt>
<pdfrwt beam="1">  1       21 0.51443996E-01 0.17768323E+03</pdfrwt>
<pdfrwt beam="2">  1       21 0.24362247E-01 0.17768323E+03</pdfrwt>
<totfact> 0.57518970E+04</totfact>
</mgrwt>
</event>
<event>
 4    3  0.4009700E+000  0.1870165E+03  0.7546771E-02  0.1161180E+00
         21   -1    0    0  501  502  0.00000000000E+00  0.00000000000E+00  0.53652596477E+02  0.53652596477E+02  0.00000000000E+00 0. -1.
         21   -1    0    0  502  503 -0.00000000000E+00 -0.00000000000E+00 -0.73415627666E+03  0.73415627666E+03  0.00000000000E+00 0. -1.
          6    1    1    2  501    0  0.59287488632E+02 -0.39130042267E+02 -0.20838717886E+03  0.28000068362E+03  0.17300000000E+03 0. -1.
         -6    1    1    2    0  503 -0.59287488632E+02  0.39130042267E+02 -0.47211650133E+03  0.50780818952E+03  0.17300000000E+03 0. -1.
<mgrwt>
<rscale>  2 0.18701649E+03</rscale>
<asrwt>0</asrwt>
<pdfrwt beam="1">  1       21 0.82542462E-02 0.18701649E+03</pdfrwt>
<pdfrwt beam="2">  1       21 0.11294711E+00 0.18701649E+03</pdfrwt>
<totfact> 0.69789773E+04</totfact>
</mgrwt>
</event>
<event>
 4    3  0.4009700E+000  0.1786485E+03  0.7546771E-02  0.1169117E+00
         21   -1    0    0  503  502  0.00000000000E+00  0.00000000000E+00  0.37250584798E+03  0.37250584798E+03  0.00000000000E+00 0.  1.
         21   -1    0    0  501  503 -0.00000000000E+00 -0.00000000000E+00 -0.85896474949E+02  0.85896474949E+02  0.00000000000E+00 0.  1.
          6    1    1    2  501    0 -0.42981244726E+02 -0.11786115985E+02  0.13172725393E+03  0.22196254043E+03  0.17300000000E+03 0.  1.
         -6    1    1    2    0  502  0.42981244726E+02  0.11786115985E+02  0.15488211910E+03  0.23643978249E+03  0.17300000000E+03 0.  1.
<mgrwt>
<rscale>  2 0.17864854E+03</rscale>
<asrwt>0</asrwt>
<pdfrwt beam="1">  1       21 0.57308591E-01 0.17864854E+03</pdfrwt>
<pdfrwt beam="2">  1       21 0.13214843E-01 0.17864854E+03</pdfrwt>
<totfact> 0.14173870E+05</totfact>
</mgrwt>
</event>
<event>
 4    3  0.4009700E+000  0.2260963E+03  0.7546771E-02  0.1129418E+00
         21   -1    0    0  503  502  0.00000000000E+00  0.00000000000E+00  0.52378173964E+03  0.52378173964E+03  0.00000000000E+00 0. -1.
         21   -1    0    0  501  503 -0.00000000000E+00 -0.00000000000E+00 -0.18839139521E+03  0.18839139521E+03  0.00000000000E+00 0.  1.
          6    1    1    2  501    0  0.45127782018E+02  0.13839812587E+03 -0.79508225755E+02  0.23966876291E+03  0.17300000000E+03 0.  1.
         -6    1    1    2    0  502 -0.45127782018E+02 -0.13839812587E+03  0.41489857019E+03  0.47250437194E+03  0.17300000000E+03 0. -1.
<mgrwt>
<rscale>  2 0.22609635E+03</rscale>
<asrwt>0</asrwt>
<pdfrwt beam="1">  1       21 0.80581805E-01 0.22609635E+03</pdfrwt>
<pdfrwt beam="2">  1       21 0.28983292E-01 0.22609635E+03</pdfrwt>
<totfact> 0.15103813E+04</totfact>
</mgrwt>
</event>
<event>
 4    3  0.4009700E+000  0.1748212E+03  0.7546771E-02  0.1172911E+00
         21   -1    0    0  501  502  0.00000000000E+00  0.00000000000E+00  0.15301761591E+03  0.15301761591E+03  0.00000000000E+00 0.  1.
         21   -1    0    0  502  503 -0.00000000000E+00 -0.00000000000E+00 -0.38304738463E+03  0.38304738463E+03  0.00000000000E+00 0.  1.
          6    1    1    2  501    0  0.25131817009E+02 -0.13565475998E+01  0.70407078899E+02  0.18846645645E+03  0.17300000000E+03 0.  1.
         -6    1    1    2    0  503 -0.25131817009E+02  0.13565475998E+01 -0.30043684762E+03  0.34759854409E+03  0.17300000000E+03 0.  1.
<mgrwt>
<rscale>  2 0.17482119E+03</rscale>
<asrwt>0</asrwt>
<pdfrwt beam="1">  1       21 0.23541172E-01 0.17482119E+03</pdfrwt>
<pdfrwt beam="2">  1       21 0.58930367E-01 0.17482119E+03</pdfrwt>
<totfact> 0.46138514E+04</totfact>
</mgrwt>
</event>
<event>
 4    3  0.4009700E+000  0.1872295E+03  0.7546771E-02  0.1160984E+00
         21   -1    0    0  501  502  0.00000000000E+00  0.00000000000E+00  0.15599832431E+04  0.15599832431E+04  0.00000000000E+00 0. -1.
         21   -1    0    0  502  503 -0.00000000000E+00 -0.00000000000E+00 -0.32365845129E+02  0.32365845129E+02  0.00000000000E+00 0. -1.
          6    1    1    2  501    0  0.67749453470E+02  0.23149640189E+02  0.12040209515E+04  0.12184914222E+04  0.17300000000E+03 0. -1.
         -6    1    1    2    0  503 -0.67749453470E+02 -0.23149640189E+02  0.32359644641E+03  0.37385766599E+03  0.17300000000E+03 0. -1.
<mgrwt>
<rscale>  2 0.18722952E+03</rscale>
<asrwt>0</asrwt>
<pdfrwt beam="1">  1       21 0.23999736E+00 0.18722952E+03</pdfrwt>
<pdfrwt beam="2">  1       21 0.49793620E-02 0.18722952E+03</pdfrwt>
<totfact> 0.20734311E+04</totfact>
</mgrwt>
</event>
<event>
 4    3  0.4009700E+000  0.2100130E+03  0.7546771E-02  0.1141556E+00
         21   -1    0    0  503  502  0.00000000000E+00  0.00000000000E+00  0.49606692699E+03  0.49606692699E+03  0.00000000000E+00 0. -1.
         21   -1    0    0  501  503 -0.00000000000E+00 -0.00000000000E+00 -0.10890094177E+03  0.10890094177E+03  0.00000000000E+00 0.  1.
          6    1    1    2  501    0 -0.10382494608E+03 -0.58282283616E+02  0.63984425875E+02  0.21954373315E+03  0.17300000000E+03 0.  1.
         -6    1    1    2    0  502  0.10382494608E+03  0.58282283616E+02  0.32318155934E+03  0.38542413561E+03  0.17300000000E+03 0. -1.
<mgrwt>
<rscale>  2 0.21001296E+03</rscale>
<asrwt>0</asrwt>
<pdfrwt beam="1">  1       21 0.76317988E-01 0.21001296E+03</pdfrwt>
<pdfrwt beam="2">  1       21 0.16753991E-01 0.21001296E+03</pdfrwt>
<totfact> 0.48581116E+04</totfact>
</mgrwt>
</event>
<event>
 4    3  0.4009700E+000  0.2045252E+03  0.7546771E-02  0.1145976E+00
         21   -1    0    0  501  502  0.00000000000E+00  0.00000000000E+00  0.26883696638E+03  0.26883696638E+03  0.00000000000E+00 0. -1.
         21   -1    0    0  502  503 -0.00000000000E+00 -0.00000000000E+00 -0.20321324437E+03  0.20321324437E+03  0.00000000000E+00 0. -1.
          6    1    1    2  501    0  0.92265578108E+02  0.58211924499E+02  0.14706128095E+03  0.25190789073E+03  0.17300000000E+03 0. -1.
         -6    1    1    2    0  503 -0.92265578108E+02 -0.58211924499E+02 -0.81437558934E+02  0.22014232002E+03  0.17300000000E+03 0. -1.
<mgrwt>
<rscale>  2 0.20452522E+03</rscale>
<asrwt>0</asrwt>
<pdfrwt beam="1">  1       21 0.41359533E-01 0.20452522E+03</pdfrwt>
<pdfrwt beam="2">  1       21 0.31263576E-01 0.20452522E+03</pdfrwt>
<totfact> 0.55030326E+04</totfact>
</mgrwt>
</event>
<event>
 4    3  0.4009700E+000  0.1732302E+03  0.7546771E-02  0.1174521E+00
         21   -1    0    0  503  502  0.00000000000E+00  0.00000000000E+00  0.24505267746E+03  0.24505267746E+03  0.00000000000E+00 0.  1.
         21   -1    0    0  501  503 -0.00000000000E+00 -0.00000000000E+00 -0.25005316455E+03  0.25005316455E+03  0.00000000000E+00 0.  1.
          6    1    1    2  501    0  0.62061586314E+01 -0.64167761875E+01 -0.17933546594E+03  0.24933892750E+03  0.17300000000E+03 0.  1.
         -6    1    1    2    0  502 -0.62061586314E+01  0.64167761875E+01  0.17433497885E+03  0.24576691452E+03  0.17300000000E+03 0.  1.
<mgrwt>
<rscale>  2 0.17323017E+03</rscale>
<asrwt>0</asrwt>
<pdfrwt beam="1">  1       21 0.37700412E-01 0.17323017E+03</pdfrwt>
<pdfrwt beam="2">  1       21 0.38469717E-01 0.17323017E+03</pdfrwt>
<totfact> 0.44638174E+04</totfact>
</mgrwt>
</event>
<event>
 4    3  0.4009700E+000  0.2122657E+03  0.7546771E-02  0.1139784E+00
         21   -1    0    0  501  502  0.00000000000E+00  0.00000000000E+00  0.70963219876E+02  0.70963219876E+02  0.00000000000E+00 0.  1.
         21   -1    0    0  502  503 -0.00000000000E+00 -0.00000000000E+00 -0.64877797111E+03  0.64877797111E+03  0.00000000000E+00 0.  1.
          6    1    1    2  501    0  0.84664456195E+02 -0.89216938200E+02 -0.23633238139E+03  0.31766291363E+03  0.17300000000E+03 0.  1.
         -6    1    1    2    0  503 -0.84664456195E+02  0.89216938200E+02 -0.34148236984E+03  0.40207827735E+03  0.17300000000E+03 0.  1.
<mgrwt>
<rscale>  2 0.21226571E+03</rscale>
<asrwt>0</asrwt>
<pdfrwt beam="1">  1       21 0.10917419E-01 0.21226571E+03</pdfrwt>
<pdfrwt beam="2">  1       21 0.99811993E-01 0.21226571E+03</pdfrwt>
<totfact> 0.56727691E+04</totfact>
</mgrwt>
</event>
<event>
 4    3  0.4009700E+000  0.1733902E+03  0.7546771E-02  0.1174358E+00
         21   -1    0    0  501  502  0.00000000000E+00  0.00000000000E+00  0.34834522675E+02  0.34834522675E+02  0.00000000000E+00 0. -1.
         21   -1    0    0  502  503 -0.00000000000E+00 -0.00000000000E+00 -0.86921365691E+03  0.86921365691E+03  0.00000000000E+00 0. -1.
          6    1    1    2  501    0  0.14898386553E+01  0.11529811600E+02 -0.45523421134E+03  0.48713688359E+03  0.17300000000E+03 0.  1.
         -6    1    1    2    0  503 -0.14898386553E+01 -0.11529811600E+02 -0.37914492290E+03  0.41691129600E+03  0.17300000000E+03 0.  1.
<mgrwt>
<rscale>  2 0.17339018E+03</rscale>
<asrwt>0</asrwt>
<pdfrwt beam="1">  1       21 0.53591571E-02 0.17339018E+03</pdfrwt>
<pdfrwt beam="2">  1       21 0.13372518E+00 0.17339018E+03</pdfrwt>
<totfact> 0.97075327E+04</totfact>
</mgrwt>
</event>
<event>
 4    3  0.4009700E+000  0.1827245E+03  0.7546771E-02  0.1165192E+00
         21   -1    0    0  501  502  0.00000000000E+00  0.00000000000E+00  0.68088170083E+03  0.68088170083E+03  0.00000000000E+00 0.  1.
         21   -1    0    0  502  503 -0.00000000000E+00 -0.00000000000E+00 -0.13110937638E+04  0.13110937638E+04  0.00000000000E+00 0.  1.
          6    1    1    2  501    0 -0.50113291451E+02 -0.30787786262E+02  0.66207853623E+03  0.68683055982E+03  0.17300000000E+03 0.  1.
         -6    1    1    2    0  503  0.50113291451E+02  0.30787786262E+02 -0.12922905992E+04  0.13051449048E+04  0.17300000000E+03 0.  1.
<mgrwt>
<rscale>  2 0.18272446E+03</rscale>
<asrwt>0</asrwt>
<pdfrwt beam="1">  1       21 0.10475103E+00 0.18272446E+03</pdfrwt>
<pdfrwt beam="2">  1       21 0.20170673E+00 0.18272446E+03</pdfrwt>
<totfact> 0.97653035E+01</totfact>
</mgrwt>
</event>
<event>
 4    3  0.4009700E+000  0.5137255E+03  0.7546771E-02  0.1010257E+00
         21   -1    0    0  501  502  0.00000000000E+00  0.00000000000E+00  0.26542938588E+03  0.26542938588E+03  0.00000000000E+00 0.  1.
         21   -1    0    0  502  503 -0.00000000000E+00 -0.00000000000E+00 -0.10949112450E+04  0.10949112450E+04  0.00000000000E+00 0.  1.
          6    1    1    2  501    0  0.30066522658E+03  0.37892649866E+03 -0.62093319110E+03  0.80589819312E+03  0.17300000000E+03 0.  1.
         -6    1    1    2    0  503 -0.30066522658E+03 -0.37892649866E+03 -0.20854866802E+03  0.55444243777E+03  0.17300000000E+03 0.  1.
<mgrwt>
<rscale>  2 0.51372548E+03</rscale>
<asrwt>0</asrwt>
<pdfrwt beam="1">  1       21 0.40835290E-01 0.51372548E+03</pdfrwt>
<pdfrwt beam="2">  1       21 0.16844788E+00 0.51372548E+03</pdfrwt>
<totfact> 0.10375726E+03</totfact>
</mgrwt>
</event>
<event>
 4    3  0.4009700E+000  0.2163371E+03  0.7546771E-02  0.1136644E+00
         21   -1    0    0  501  502  0.00000000000E+00  0.00000000000E+00  0.16751153198E+03  0.16751153198E+03  0.00000000000E+00 0.  1.
         21   -1    0    0  502  503 -0.00000000000E+00 -0.00000000000E+00 -0.47576401535E+03  0.47576401535E+03  0.00000000000E+00 0.  1.
          6    1    1    2  501    0 -0.11943701625E+03 -0.51064060056E+02  0.52511046132E+02  0.22261884252E+03  0.17300000000E+03 0.  1.
         -6    1    1    2    0  503  0.11943701625E+03  0.51064060056E+02 -0.36076352950E+03  0.42065670481E+03  0.17300000000E+03 0.  1.
<mgrwt>
<rscale>  2 0.21633710E+03</rscale>
<asrwt>0</asrwt>
<pdfrwt beam="1">  1       21 0.25771005E-01 0.21633710E+03</pdfrwt>
<pdfrwt beam="2">  1       21 0.73194464E-01 0.21633710E+03</pdfrwt>
<totfact> 0.23667933E+04</totfact>
</mgrwt>
</event>
<event>
 4    3  0.4009700E+000  0.1843032E+03  0.7546771E-02  0.1163702E+00
         21   -1    0    0  501  502  0.00000000000E+00  0.00000000000E+00  0.26146006856E+03  0.26146006856E+03  0.00000000000E+00 0. -1.
         21   -1    0    0  502  503 -0.00000000000E+00 -0.00000000000E+00 -0.23294564080E+03  0.23294564080E+03  0.00000000000E+00 0. -1.
          6    1    1    2  501    0 -0.33710328592E+02 -0.53872957831E+02  0.17865978531E+03  0.25668463282E+03  0.17300000000E+03 0. -1.
         -6    1    1    2    0  503  0.33710328592E+02  0.53872957831E+02 -0.15014535755E+03  0.23772107654E+03  0.17300000000E+03 0. -1.
<mgrwt>
<rscale>  2 0.18430323E+03</rscale>
<asrwt>0</asrwt>
<pdfrwt beam="1">  1       21 0.40224626E-01 0.18430323E+03</pdfrwt>
<pdfrwt beam="2">  1       21 0.35837791E-01 0.18430323E+03</pdfrwt>
<totfact> 0.44895256E+04</totfact>
</mgrwt>
</event>
<event>
 4    3  0.4009700E+000  0.2360964E+03  0.7546771E-02  0.1122421E+00
         21   -1    0    0  501  502  0.00000000000E+00  0.00000000000E+00  0.20205392421E+03  0.20205392421E+03  0.00000000000E+00 0.  1.
         21   -1    0    0  502  503 -0.00000000000E+00 -0.00000000000E+00 -0.27590951171E+03  0.27590951171E+03  0.00000000000E+00 0. -1.
          6    1    1    2  501    0  0.65938323393E+01  0.16052740393E+03 -0.39619736258E+02  0.23939768073E+03  0.17300000000E+03 0. -1.
         -6    1    1    2    0  503 -0.65938323393E+01 -0.16052740393E+03 -0.34235851240E+02  0.23856575519E+03  0.17300000000E+03 0.  1.
<mgrwt>
<rscale>  2 0.23609643E+03</rscale>
<asrwt>0</asrwt>
<pdfrwt beam="1">  1       21 0.31085219E-01 0.23609643E+03</pdfrwt>
<pdfrwt beam="2">  1       21 0.42447617E-01 0.23609643E+03</pdfrwt>
<totfact> 0.52052373E+04</totfact>
</mgrwt>
</event>
<event>
 4    3  0.4009700E+000  0.1847955E+03  0.7546771E-02  0.1163241E+00
         21   -1    0    0  503  502  0.00000000000E+00  0.00000000000E+00  0.35208672790E+03  0.35208672790E+03  0.00000000000E+00 0.  1.
         21   -1    0    0  501  503 -0.00000000000E+00 -0.00000000000E+00 -0.18207379199E+03  0.18207379199E+03  0.00000000000E+00 0.  1.
          6    1    1    2  501    0  0.30955468772E+02  0.57115017321E+02 -0.97567162118E+02  0.20897061366E+03  0.17300000000E+03 0.  1.
         -6    1    1    2    0  502 -0.30955468772E+02 -0.57115017321E+02  0.26758009803E+03  0.32518990622E+03  0.17300000000E+03 0.  1.
<mgrwt>
<rscale>  2 0.18479547E+03</rscale>
<asrwt>0</asrwt>
<pdfrwt beam="1">  1       21 0.54167189E-01 0.18479547E+03</pdfrwt>
<pdfrwt beam="2">  1       21 0.28011353E-01 0.18479547E+03</pdfrwt>
<totfact> 0.39371774E+04</totfact>
</mgrwt>
</event>
<event>
 4    3  0.4009700E+000  0.1780811E+03  0.7546771E-02  0.1169673E+00
         21   -1    0    0  501  502  0.00000000000E+00  0.00000000000E+00  0.18245716921E+03  0.18245716921E+03  0.00000000000E+00 0.  1.
         21   -1    0    0  502  503 -0.00000000000E+00 -0.00000000000E+00 -0.51646961099E+03  0.51646961099E+03  0.00000000000E+00 0.  1.
          6    1    1    2  501    0  0.27867751492E+02  0.31737304024E+02  0.11764352572E+03  0.21343117669E+03  0.17300000000E+03 0.  1.
         -6    1    1    2    0  503 -0.27867751492E+02 -0.31737304024E+02 -0.45165596750E+03  0.48549560350E+03  0.17300000000E+03 0.  1.
<mgrwt>
<rscale>  2 0.17808107E+03</rscale>
<asrwt>0</asrwt>
<pdfrwt beam="1">  1       21 0.28070334E-01 0.17808107E+03</pdfrwt>
<pdfrwt beam="2">  1       21 0.79456862E-01 0.17808107E+03</pdfrwt>
<totfact> 0.17090026E+04</totfact>
</mgrwt>
</event>
<event>
 4    3  0.4009700E+000  0.1759780E+03  0.7546771E-02  0.1171753E+00
         21   -1    0    0  503  502  0.00000000000E+00  0.00000000000E+00  0.98123166578E+03  0.98123166578E+03  0.00000000000E+00 0.  1.
         21   -1    0    0  501  503 -0.00000000000E+00 -0.00000000000E+00 -0.18741570148E+03  0.18741570148E+03  0.00000000000E+00 0.  1.
          6    1    1    2  501    0  0.29067453795E+02 -0.13940374803E+02 -0.13594944947E+03  0.22237469220E+03  0.17300000000E+03 0.  1.
         -6    1    1    2    0  502 -0.29067453795E+02  0.13940374803E+02  0.92976541377E+03  0.94627267506E+03  0.17300000000E+03 0.  1.
<mgrwt>
<rscale>  2 0.17597798E+03</rscale>
<asrwt>0</asrwt>
<pdfrwt beam="1">  1       21 0.15095871E+00 0.17597798E+03</pdfrwt>
<pdfrwt beam="2">  1       21 0.28833185E-01 0.17597798E+03</pdfrwt>
<totfact> 0.34356457E+03</totfact>
</mgrwt>
</event>
<event>
 4    3  0.4009700E+000  0.2105696E+03  0.7546771E-02  0.1141116E+00
         21   -1    0    0  503  502  0.00000000000E+00  0.00000000000E+00  0.20874324668E+03  0.20874324668E+03  0.00000000000E+00 0. -1.
         21   -1    0    0  501  503 -0.00000000000E+00 -0.00000000000E+00 -0.24640183953E+03  0.24640183953E+03  0.00000000000E+00 0.  1.
          6    1    1    2  501    0 -0.10877738100E+03  0.50774572623E+02 -0.10335178666E+03  0.23456591323E+03  0.17300000000E+03 0.  1.
         -6    1    1    2    0  502  0.10877738100E+03 -0.50774572623E+02  0.65693193804E+02  0.22057917298E+03  0.17300000000E+03 0. -1.
<mgrwt>
<rscale>  2 0.21056965E+03</rscale>
<asrwt>0</asrwt>
<pdfrwt beam="1">  1       21 0.32114346E-01 0.21056965E+03</pdfrwt>
<pdfrwt beam="2">  1       21 0.37907975E-01 0.21056965E+03</pdfrwt>
<totfact> 0.62083699E+04</totfact>
</mgrwt>
</event>
<event>
 4    3  0.4009700E+000  0.2074144E+03  0.7546771E-02  0.1143630E+00
         21   -1    0    0  501  502  0.00000000000E+00  0.00000000000E+00  0.23490995564E+04  0.23490995564E+04  0.00000000000E+00 0. -1.
         21   -1    0    0  502  503 -0.00000000000E+00 -0.00000000000E+00 -0.35435665006E+02  0.35435665006E+02  0.00000000000E+00 0.  1.
          6    1    1    2  501    0 -0.82372368383E+02  0.79413749651E+02  0.19855942813E+04  0.19963981068E+04  0.17300000000E+03 0. -1.
         -6    1    1    2    0  503  0.82372368383E+02 -0.79413749651E+02  0.32806961010E+03  0.38813711466E+03  0.17300000000E+03 0.  1.
<mgrwt>
<rscale>  2 0.20741444E+03</rscale>
<asrwt>0</asrwt>
<pdfrwt beam="1">  1       21 0.36139981E+00 0.20741444E+03</pdfrwt>
<pdfrwt beam="2">  1       21 0.54516426E-02 0.20741444E+03</pdfrwt>
<totfact> 0.34098793E+03</totfact>
</mgrwt>
</event>
<event>
 4    3  0.4009700E+000  0.2002279E+03  0.7546771E-02  0.1149547E+00
         21   -1    0    0  501  502  0.00000000000E+00  0.00000000000E+00  0.10529782044E+03  0.10529782044E+03  0.00000000000E+00 0. -1.
         21   -1    0    0  502  503 -0.00000000000E+00 -0.00000000000E+00 -0.73113418254E+03  0.73113418254E+03  0.00000000000E+00 0. -1.
          6    1    1    2  501    0 -0.89948790235E+02  0.45512765767E+02 -0.23397274982E+02  0.20159025073E+03  0.17300000000E+03 0. -1.
         -6    1    1    2    0  503  0.89948790235E+02 -0.45512765767E+02 -0.60243908712E+03  0.63484175225E+03  0.17300000000E+03 0. -1.
<mgrwt>
<rscale>  2 0.20022786E+03</rscale>
<asrwt>0</asrwt>
<pdfrwt beam="1">  1       21 0.16199664E-01 0.20022786E+03</pdfrwt>
<pdfrwt beam="2">  1       21 0.11248219E+00 0.20022786E+03</pdfrwt>
<totfact> 0.20988786E+04</totfact>
</mgrwt>
</event>
<event>
 4    3  0.4009700E+000  0.2046042E+03  0.7546771E-02  0.1145912E+00
         21   -1    0    0  503  502  0.00000000000E+00  0.00000000000E+00  0.25670332677E+03  0.25670332677E+03  0.00000000000E+00 0.  1.
         21   -1    0    0  501  503 -0.00000000000E+00 -0.00000000000E+00 -0.17775450577E+03  0.17775450577E+03  0.00000000000E+00 0. -1.
          6    1    1    2  501    0 -0.53535659755E+02 -0.95225135450E+02 -0.22942965952E+02  0.20588655365E+03  0.17300000000E+03 0. -1.
         -6    1    1    2    0  502  0.53535659755E+02  0.95225135450E+02  0.10189178695E+03  0.22857127889E+03  0.17300000000E+03 0.  1.
<mgrwt>
<rscale>  2 0.20460424E+03</rscale>
<asrwt>0</asrwt>
<pdfrwt beam="1">  1       21 0.39492819E-01 0.20460424E+03</pdfrwt>
<pdfrwt beam="2">  1       21 0.27346847E-01 0.20460424E+03</pdfrwt>
<totfact> 0.78409423E+04</totfact>
</mgrwt>
</event>
<event>
 4    3  0.4009700E+000  0.2440908E+03  0.7546771E-02  0.1117097E+00
         21   -1    0    0  501  502  0.00000000000E+00  0.00000000000E+00  0.23345743339E+03  0.23345743339E+03  0.00000000000E+00 0. -1.
         21   -1    0    0  502  503 -0.00000000000E+00 -0.00000000000E+00 -0.25539100584E+03  0.25539100584E+03  0.00000000000E+00 0. -1.
          6    1    1    2  501    0 -0.97910974801E+02  0.14165008420E+03 -0.17502027176E+02  0.24471744175E+03  0.17300000000E+03 0. -1.
         -6    1    1    2    0  503  0.97910974801E+02 -0.14165008420E+03 -0.44315452835E+01  0.24413099748E+03  0.17300000000E+03 0. -1.
<mgrwt>
<rscale>  2 0.24409077E+03</rscale>
<asrwt>0</asrwt>
<pdfrwt beam="1">  1       21 0.35916528E-01 0.24409077E+03</pdfrwt>
<pdfrwt beam="2">  1       21 0.39290924E-01 0.24409077E+03</pdfrwt>
<totfact> 0.45591674E+04</totfact>
</mgrwt>
</event>
<event>
 4    3  0.4009700E+000  0.1804994E+03  0.7546771E-02  0.1167321E+00
         21   -1    0    0  503  502  0.00000000000E+00  0.00000000000E+00  0.27058430505E+02  0.27058430505E+02  0.00000000000E+00 0.  1.
         21   -1    0    0  501  503 -0.00000000000E+00 -0.00000000000E+00 -0.12590924973E+04  0.12590924973E+04  0.00000000000E+00 0.  1.
          6    1    1    2  501    0  0.18774940280E+02 -0.47943103502E+02 -0.48157559571E+03  0.51429086511E+03  0.17300000000E+03 0.  1.
         -6    1    1    2    0  502 -0.18774940280E+02  0.47943103502E+02 -0.75045847113E+03  0.77186006274E+03  0.17300000000E+03 0.  1.
<mgrwt>
<rscale>  2 0.18049942E+03</rscale>
<asrwt>0</asrwt>
<pdfrwt beam="1">  1       21 0.41628358E-02 0.18049942E+03</pdfrwt>
<pdfrwt beam="2">  1       21 0.19370652E+00 0.18049942E+03</pdfrwt>
<totfact> 0.54465598E+04</totfact>
</mgrwt>
</event>
<event>
 4    3  0.4009700E+000  0.1893483E+03  0.7546771E-02  0.1159050E+00
         21   -1    0    0  501  502  0.00000000000E+00  0.00000000000E+00  0.28594627678E+03  0.28594627678E+03  0.00000000000E+00 0.  1.
         21   -1    0    0  502  503 -0.00000000000E+00 -0.00000000000E+00 -0.12583297223E+03  0.12583297223E+03  0.00000000000E+00 0.  1.
          6    1    1    2  501    0  0.71037709187E+02  0.29621195027E+02  0.92370163067E+02  0.21067752217E+03  0.17300000000E+03 0. -1.
         -6    1    1    2    0  503 -0.71037709187E+02 -0.29621195027E+02  0.67743141478E+02  0.20110172684E+03  0.17300000000E+03 0. -1.
<mgrwt>
<rscale>  2 0.18934828E+03</rscale>
<asrwt>0</asrwt>
<pdfrwt beam="1">  1       21 0.43991735E-01 0.18934828E+03</pdfrwt>
<pdfrwt beam="2">  1       21 0.19358919E-01 0.18934828E+03</pdfrwt>
<totfact> 0.12190657E+05</totfact>
</mgrwt>
</event>
<event>
 4    3  0.4009700E+000  0.1769763E+03  0.7546771E-02  0.1170762E+00
         21   -1    0    0  503  502  0.00000000000E+00  0.00000000000E+00  0.17154808320E+02  0.17154808320E+02  0.00000000000E+00 0.  1.
         21   -1    0    0  501  503 -0.00000000000E+00 -0.00000000000E+00 -0.28499509809E+04  0.28499509809E+04  0.00000000000E+00 0.  1.
          6    1    1    2  501    0 -0.28191858985E+02  0.24430150611E+02 -0.22757773661E+04  0.22826482938E+04  0.17300000000E+03 0.  1.
         -6    1    1    2    0  502  0.28191858985E+02 -0.24430150611E+02 -0.55701880652E+03  0.58445749545E+03  0.17300000000E+03 0.  1.
<mgrwt>
<rscale>  2 0.17697631E+03</rscale>
<asrwt>0</asrwt>
<pdfrwt beam="1">  1       21 0.26392029E-02 0.17697631E+03</pdfrwt>
<pdfrwt beam="2">  1       21 0.43845372E+00 0.17697631E+03</pdfrwt>
<totfact> 0.39671568E+03</totfact>
</mgrwt>
</event>
<event>
 4    3  0.4009700E+000  0.1891672E+03  0.7546771E-02  0.1159215E+00
         21   -1    0    0  501  502  0.00000000000E+00  0.00000000000E+00  0.21528419569E+03  0.21528419569E+03  0.00000000000E+00 0. -1.
         21   -1    0    0  502  503 -0.00000000000E+00 -0.00000000000E+00 -0.38379317601E+03  0.38379317601E+03  0.00000000000E+00 0. -1.
          6    1    1    2  501    0 -0.75501267123E+02  0.12441669757E+02  0.14127761515E+03  0.23610082809E+03  0.17300000000E+03 0. -1.
         -6    1    1    2    0  503  0.75501267123E+02 -0.12441669757E+02 -0.30978659546E+03  0.36297654361E+03  0.17300000000E+03 0. -1.
<mgrwt>
<rscale>  2 0.18916722E+03</rscale>
<asrwt>0</asrwt>
<pdfrwt beam="1">  1       21 0.33120645E-01 0.18916722E+03</pdfrwt>
<pdfrwt beam="2">  1       21 0.59045104E-01 0.18916722E+03</pdfrwt>
<totfact> 0.23586830E+04</totfact>
</mgrwt>
</event>
<event>
 4    3  0.4009700E+000  0.2362900E+03  0.7546771E-02  0.1122289E+00
         21   -1    0    0  503  502  0.00000000000E+00  0.00000000000E+00  0.20447753490E+04  0.20447753490E+04  0.00000000000E+00 0.  1.
         21   -1    0    0  501  503 -0.00000000000E+00 -0.00000000000E+00 -0.58463469250E+02  0.58463469250E+02  0.00000000000E+00 0.  1.
          6    1    1    2  501    0 -0.14102428078E+03  0.77563738914E+02  0.22543563429E+03  0.32657955627E+03  0.17300000000E+03 0.  1.
         -6    1    1    2    0  502  0.14102428078E+03 -0.77563738914E+02  0.17608762454E+04  0.17766592620E+04  0.17300000000E+03 0.  1.
<mgrwt>
<rscale>  2 0.23629004E+03</rscale>
<asrwt>0</asrwt>
<pdfrwt beam="1">  1       21 0.31458077E+00 0.23629004E+03</pdfrwt>
<pdfrwt beam="2">  1       21 0.89943815E-02 0.23629004E+03</pdfrwt>
<totfact> 0.26152507E+03</totfact>
</mgrwt>
</event>
<event>
 4    3  0.4009700E+000  0.2915199E+03  0.7546771E-02  0.1089558E+00
         21   -1    0    0  503  502  0.00000000000E+00  0.00000000000E+00  0.35641676909E+03  0.35641676909E+03  0.00000000000E+00 0.  1.
         21   -1    0    0  501  503 -0.00000000000E+00 -0.00000000000E+00 -0.31615911775E+03  0.31615911775E+03  0.00000000000E+00 0.  1.
          6    1    1    2  501    0 -0.15740043107E+03 -0.17401132515E+03 -0.14660501869E+03  0.32630793506E+03  0.17300000000E+03 0.  1.
         -6    1    1    2    0  502  0.15740043107E+03  0.17401132515E+03  0.18686267003E+03  0.34626795178E+03  0.17300000000E+03 0.  1.
<mgrwt>
<rscale>  2 0.29151987E+03</rscale>
<asrwt>0</asrwt>
<pdfrwt beam="1">  1       21 0.54833349E-01 0.29151987E+03</pdfrwt>
<pdfrwt beam="2">  1       21 0.48639864E-01 0.29151987E+03</pdfrwt>
<totfact> 0.11994772E+04</totfact>
</mgrwt>
</event>
<event>
 4    3  0.4009700E+000  0.1876281E+03  0.7546771E-02  0.1160618E+00
         21   -1    0    0  503  502  0.00000000000E+00  0.00000000000E+00  0.13095362246E+04  0.13095362246E+04  0.00000000000E+00 0.  1.
         21   -1    0    0  501  503 -0.00000000000E+00 -0.00000000000E+00 -0.10562055513E+03  0.10562055513E+03  0.00000000000E+00 0.  1.
          6    1    1    2  501    0  0.72309512134E+02 -0.68288753528E+01 -0.89718434131E+01  0.18784246873E+03  0.17300000000E+03 0.  1.
         -6    1    1    2    0  502 -0.72309512134E+02  0.68288753528E+01  0.12128875129E+04  0.12273143110E+04  0.17300000000E+03 0.  1.
<mgrwt>
<rscale>  2 0.18762809E+03</rscale>
<asrwt>0</asrwt>
<pdfrwt beam="1">  1       21 0.20146710E+00 0.18762809E+03</pdfrwt>
<pdfrwt beam="2">  1       21 0.16249317E-01 0.18762809E+03</pdfrwt>
<totfact> 0.44749460E+03</totfact>
</mgrwt>
</event>
<event>
 4    3  0.4009700E+000  0.3710265E+03  0.7546771E-02  0.1054301E+00
         21   -1    0    0  501  502  0.00000000000E+00  0.00000000000E+00  0.12410154116E+03  0.12410154116E+03  0.00000000000E+00 0. -1.
         21   -1    0    0  502  503 -0.00000000000E+00 -0.00000000000E+00 -0.11617955706E+04  0.11617955706E+04  0.00000000000E+00 0.  1.
          6    1    1    2  501    0 -0.24924603114E+03 -0.21356052144E+03 -0.38212306539E+03  0.53261498051E+03  0.17300000000E+03 0. -1.
         -6    1    1    2    0  503  0.24924603114E+03  0.21356052144E+03 -0.65557096410E+03  0.75328213130E+03  0.17300000000E+03 0.  1.
<mgrwt>
<rscale>  2 0.37102652E+03</rscale>
<asrwt>0</asrwt>
<pdfrwt beam="1">  1       21 0.19092545E-01 0.37102652E+03</pdfrwt>
<pdfrwt beam="2">  1       21 0.17873778E+00 0.37102652E+03</pdfrwt>
<totfact> 0.41619881E+03</totfact>
</mgrwt>
</event>
<event>
 4    3  0.4009700E+000  0.2714057E+03  0.7546771E-02  0.1100478E+00
         21   -1    0    0  501  502  0.00000000000E+00  0.00000000000E+00  0.41604592371E+03  0.41604592371E+03  0.00000000000E+00 0. -1.
         21   -1    0    0  502  503 -0.00000000000E+00 -0.00000000000E+00 -0.25707843354E+03  0.25707843354E+03  0.00000000000E+00 0.  1.
          6    1    1    2  501    0 -0.28881001801E+02 -0.20711822592E+03  0.26726564398E+03  0.38090943310E+03  0.17300000000E+03 0. -1.
         -6    1    1    2    0  503  0.28881001801E+02  0.20711822592E+03 -0.10829815381E+03  0.29221492414E+03  0.17300000000E+03 0.  1.
<mgrwt>
<rscale>  2 0.27140573E+03</rscale>
<asrwt>0</asrwt>
<pdfrwt beam="1">  1       21 0.64007065E-01 0.27140573E+03</pdfrwt>
<pdfrwt beam="2">  1       21 0.39550528E-01 0.27140573E+03</pdfrwt>
<totfact> 0.13282896E+04</totfact>
</mgrwt>
</event>
<event>
 4    3  0.4009700E+000  0.1736626E+03  0.7546771E-02  0.1174081E+00
         21   -1    0    0  501  502  0.00000000000E+00  0.00000000000E+00  0.14446985646E+04  0.14446985646E+04  0.00000000000E+00 0. -1.
         21   -1    0    0  502  503 -0.00000000000E+00 -0.00000000000E+00 -0.44373116906E+02  0.44373116906E+02  0.00000000000E+00 0. -1.
          6    1    1    2  501    0  0.12745883395E+02  0.81995918380E+01  0.12419618244E+04  0.12540446022E+04  0.17300000000E+03 0. -1.
         -6    1    1    2    0  503 -0.12745883395E+02 -0.81995918380E+01  0.15836362323E+03  0.23502707932E+03  0.17300000000E+03 0. -1.
<mgrwt>
<rscale>  2 0.17366258E+03</rscale>
<asrwt>0</asrwt>
<pdfrwt beam="1">  1       21 0.22226128E+00 0.17366258E+03</pdfrwt>
<pdfrwt beam="2">  1       21 0.68266345E-02 0.17366258E+03</pdfrwt>
<totfact> 0.15646784E+04</totfact>
</mgrwt>
</event>
<event>
 4    3  0.4009700E+000  0.2015081E+03  0.7546771E-02  0.1148473E+00
         21   -1    0    0  503  502  0.00000000000E+00  0.00000000000E+00  0.35586656419E+02  0.35586656419E+02  0.00000000000E+00 0. -1.
         21   -1    0    0  501  503 -0.00000000000E+00 -0.00000000000E+00 -0.14793722464E+04  0.14793722464E+04  0.00000000000E+00 0.  1.
          6    1    1    2  501    0  0.72043111899E+02  0.74069508562E+02 -0.10841434369E+04  0.11027114282E+04  0.17300000000E+03 0.  1.
         -6    1    1    2    0  502 -0.72043111899E+02 -0.74069508562E+02 -0.35964215307E+03  0.41224747463E+03  0.17300000000E+03 0. -1.
<mgrwt>
<rscale>  2 0.20150807E+03</rscale>
<asrwt>0</asrwt>
<pdfrwt beam="1">  1       21 0.54748706E-02 0.20150807E+03</pdfrwt>
<pdfrwt beam="2">  1       21 0.22759571E+00 0.20150807E+03</pdfrwt>
<totfact> 0.20699908E+04</totfact>
</mgrwt>
</event>
<event>
 4    3  0.4009700E+000  0.2470847E+03  0.7546771E-02  0.1115161E+00
         21   -1    0    0  503  502  0.00000000000E+00  0.00000000000E+00  0.59086209059E+03  0.59086209059E+03  0.00000000000E+00 0. -1.
         21   -1    0    0  501  503 -0.00000000000E+00 -0.00000000000E+00 -0.11843267314E+03  0.11843267314E+03  0.00000000000E+00 0.  1.
          6    1    1    2  501    0  0.17426587675E+03  0.27445396022E+02  0.10954893085E+03  0.27028099047E+03  0.17300000000E+03 0.  1.
         -6    1    1    2    0  502 -0.17426587675E+03 -0.27445396022E+02  0.36288048660E+03  0.43901377326E+03  0.17300000000E+03 0. -1.
<mgrwt>
<rscale>  2 0.24708469E+03</rscale>
<asrwt>0</asrwt>
<pdfrwt beam="1">  1       21 0.90901858E-01 0.24708469E+03</pdfrwt>
<pdfrwt beam="2">  1       21 0.18220412E-01 0.24708469E+03</pdfrwt>
<totfact> 0.27382144E+04</totfact>
</mgrwt>
</event>
<event>
 4    3  0.4009700E+000  0.1988987E+03  0.7546771E-02  0.1150672E+00
         21   -1    0    0  501  502  0.00000000000E+00  0.00000000000E+00  0.36354733057E+03  0.36354733057E+03  0.00000000000E+00 0. -1.
         21   -1    0    0  502  503 -0.00000000000E+00 -0.00000000000E+00 -0.13021065813E+03  0.13021065813E+03  0.00000000000E+00 0. -1.
          6    1    1    2  501    0 -0.66763412205E+02  0.71932853919E+02  0.21673462567E+03  0.29416761658E+03  0.17300000000E+03 0. -1.
         -6    1    1    2    0  503  0.66763412205E+02 -0.71932853919E+02  0.16602046773E+02  0.19959037211E+03  0.17300000000E+03 0. -1.
<mgrwt>
<rscale>  2 0.19889869E+03</rscale>
<asrwt>0</asrwt>
<pdfrwt beam="1">  1       21 0.55930358E-01 0.19889869E+03</pdfrwt>
<pdfrwt beam="2">  1       21 0.20032409E-01 0.19889869E+03</pdfrwt>
<totfact> 0.69082242E+04</totfact>
</mgrwt>
</event>
<event>
 4    3  0.4009700E+000  0.2565346E+03  0.7546771E-02  0.1109243E+00
         21   -1    0    0  503  502  0.00000000000E+00  0.00000000000E+00  0.56174506676E+03  0.56174506676E+03  0.00000000000E+00 0. -1.
         21   -1    0    0  501  503 -0.00000000000E+00 -0.00000000000E+00 -0.30961245828E+03  0.30961245828E+03  0.00000000000E+00 0. -1.
          6    1    1    2  501    0 -0.14472787531E+03 -0.12220828669E+03 -0.21743390040E+03  0.33628488558E+03  0.17300000000E+03 0. -1.
         -6    1    1    2    0  502  0.14472787531E+03  0.12220828669E+03  0.46956650888E+03  0.53507263945E+03  0.17300000000E+03 0. -1.
<mgrwt>
<rscale>  2 0.25653464E+03</rscale>
<asrwt>0</asrwt>
<pdfrwt beam="1">  1       21 0.86422318E-01 0.25653464E+03</pdfrwt>
<pdfrwt beam="2">  1       21 0.47632686E-01 0.25653464E+03</pdfrwt>
<totfact> 0.46475993E+03</totfact>
</mgrwt>
</event>
<event>
 4    3  0.4009700E+000  0.2089677E+03  0.7546771E-02  0.1142386E+00
         21   -1    0    0  503  502  0.00000000000E+00  0.00000000000E+00  0.49470687688E+02  0.49470687688E+02  0.00000000000E+00 0.  1.
         21   -1    0    0  501  503 -0.00000000000E+00 -0.00000000000E+00 -0.97362256401E+03  0.97362256401E+03  0.00000000000E+00 0.  1.
          6    1    1    2  501    0  0.10217507236E+02 -0.11676518829E+03 -0.30574722593E+03  0.37033616190E+03  0.17300000000E+03 0.  1.
         -6    1    1    2    0  502 -0.10217507236E+02  0.11676518829E+03 -0.61840465040E+03  0.65275708980E+03  0.17300000000E+03 0.  1.
<mgrwt>
<rscale>  2 0.20896772E+03</rscale>
<asrwt>0</asrwt>
<pdfrwt beam="1">  1       21 0.76108752E-02 0.20896772E+03</pdfrwt>
<pdfrwt beam="2">  1       21 0.14978808E+00 0.20896772E+03</pdfrwt>
<totfact> 0.38885180E+04</totfact>
</mgrwt>
</event>
<event>
 4    3  0.4009700E+000  0.1886660E+03  0.7546771E-02  0.1159670E+00
         21   -1    0    0  501  502  0.00000000000E+00  0.00000000000E+00  0.61391580519E+02  0.61391580519E+02  0.00000000000E+00 0.  1.
         21   -1    0    0  502  503 -0.00000000000E+00 -0.00000000000E+00 -0.58263525179E+03  0.58263525179E+03  0.00000000000E+00 0.  1.
          6    1    1    2  501    0  0.18876351719E+02  0.72866697987E+02 -0.28308283383E+03  0.34019224438E+03  0.17300000000E+03 0.  1.
         -6    1    1    2    0  503 -0.18876351719E+02 -0.72866697987E+02 -0.23816083745E+03  0.30383458793E+03  0.17300000000E+03 0.  1.
<mgrwt>
<rscale>  2 0.18866603E+03</rscale>
<asrwt>0</asrwt>
<pdfrwt beam="1">  1       21 0.94448588E-02 0.18866603E+03</pdfrwt>
<pdfrwt beam="2">  1       21 0.89636191E-01 0.18866603E+03</pdfrwt>
<totfact> 0.95325119E+04</totfact>
</mgrwt>
</event>
<event>
 4    3  0.4009700E+000  0.2576334E+03  0.7546771E-02  0.1108574E+00
         21   -1    0    0  501  502  0.00000000000E+00  0.00000000000E+00  0.13475807845E+03  0.13475807845E+03  0.00000000000E+00 0.  1.
         21   -1    0    0  502  503 -0.00000000000E+00 -0.00000000000E+00 -0.84551089238E+03  0.84551089238E+03  0.00000000000E+00 0. -1.
          6    1    1    2  501    0 -0.10788545291E+03  0.15750136050E+03 -0.38697162916E+02  0.26052335774E+03  0.17300000000E+03 0.  1.
         -6    1    1    2    0  503  0.10788545291E+03 -0.15750136050E+03 -0.67205565101E+03  0.71974561309E+03  0.17300000000E+03 0. -1.
<mgrwt>
<rscale>  2 0.25763336E+03</rscale>
<asrwt>0</asrwt>
<pdfrwt beam="1">  1       21 0.20732013E-01 0.25763336E+03</pdfrwt>
<pdfrwt beam="2">  1       21 0.13007860E+00 0.25763336E+03</pdfrwt>
<totfact> 0.89219231E+03</totfact>
</mgrwt>
</event>
<event>
 4    3  0.4009700E+000  0.1736341E+03  0.7546771E-02  0.1174110E+00
         21   -1    0    0  503  502  0.00000000000E+00  0.00000000000E+00  0.19532137589E+03  0.19532137589E+03  0.00000000000E+00 0. -1.
         21   -1    0    0  501  503 -0.00000000000E+00 -0.00000000000E+00 -0.26935825534E+03  0.26935825534E+03  0.00000000000E+00 0. -1.
          6    1    1    2  501    0  0.80735598053E+01  0.12434868555E+02 -0.18883312413E+03  0.25652827737E+03  0.17300000000E+03 0. -1.
         -6    1    1    2    0  502 -0.80735598053E+01 -0.12434868555E+02  0.11479624468E+03  0.20815135387E+03  0.17300000000E+03 0. -1.
<mgrwt>
<rscale>  2 0.17363412E+03</rscale>
<asrwt>0</asrwt>
<pdfrwt beam="1">  1       21 0.30049443E-01 0.17363412E+03</pdfrwt>
<pdfrwt beam="2">  1       21 0.41439731E-01 0.17363412E+03</pdfrwt>
<totfact> 0.60073079E+04</totfact>
</mgrwt>
</event>
<event>
 4    3  0.4009700E+000  0.2417348E+03  0.7546771E-02  0.1118643E+00
         21   -1    0    0  503  502  0.00000000000E+00  0.00000000000E+00  0.85293929819E+02  0.85293929819E+02  0.00000000000E+00 0.  1.
         21   -1    0    0  501  503 -0.00000000000E+00 -0.00000000000E+00 -0.69055557952E+03  0.69055557952E+03  0.00000000000E+00 0. -1.
          6    1    1    2  501    0 -0.16424738553E+03 -0.39108658578E+02 -0.26818109227E+03  0.36104956596E+03  0.17300000000E+03 0. -1.
         -6    1    1    2    0  502  0.16424738553E+03  0.39108658578E+02 -0.33708055743E+03  0.41479994338E+03  0.17300000000E+03 0. -1.
<mgrwt>
<rscale>  2 0.24173475E+03</rscale>
<asrwt>0</asrwt>
<pdfrwt beam="1">  1       21 0.13122142E-01 0.24173475E+03</pdfrwt>
<pdfrwt beam="2">  1       21 0.10623932E+00 0.24173475E+03</pdfrwt>
<totfact> 0.34607033E+04</totfact>
</mgrwt>
</event>
<event>
 4    3  0.4009700E+000  0.2824047E+03  0.7546771E-02  0.1094383E+00
         21   -1    0    0  501  502  0.00000000000E+00  0.00000000000E+00  0.28580349857E+03  0.28580349857E+03  0.00000000000E+00 0.  1.
         21   -1    0    0  502  503 -0.00000000000E+00 -0.00000000000E+00 -0.28552417904E+03  0.28552417904E+03  0.00000000000E+00 0. -1.
          6    1    1    2  501    0 -0.18375965327E+03  0.12671157980E+03 -0.42887948964E+02  0.28564280280E+03  0.17300000000E+03 0. -1.
         -6    1    1    2    0  503  0.18375965327E+03 -0.12671157980E+03  0.43167268491E+02  0.28568487481E+03  0.17300000000E+03 0.  1.
<mgrwt>
<rscale>  2 0.28240474E+03</rscale>
<asrwt>0</asrwt>
<pdfrwt beam="1">  1       21 0.43969769E-01 0.28240474E+03</pdfrwt>
<pdfrwt beam="2">  1       21 0.43926797E-01 0.28240474E+03</pdfrwt>
<totfact> 0.23671721E+04</totfact>
</mgrwt>
</event>
<event>
 4    3  0.4009700E+000  0.1778325E+03  0.7546771E-02  0.1169917E+00
         21   -1    0    0  501  502  0.00000000000E+00  0.00000000000E+00  0.76791918825E+03  0.76791918825E+03  0.00000000000E+00 0.  1.
         21   -1    0    0  502  503 -0.00000000000E+00 -0.00000000000E+00 -0.41194518638E+02  0.41194518638E+02  0.00000000000E+00 0.  1.
          6    1    1    2  501    0 -0.22370600730E+02 -0.34568246414E+02  0.35629504441E+03  0.39820919892E+03  0.17300000000E+03 0.  1.
         -6    1    1    2    0  503  0.22370600730E+02  0.34568246414E+02  0.37042962520E+03  0.41090450796E+03  0.17300000000E+03 0.  1.
<mgrwt>
<rscale>  2 0.17783253E+03</rscale>
<asrwt>0</asrwt>
<pdfrwt beam="1">  1       21 0.11814140E+00 0.17783253E+03</pdfrwt>
<pdfrwt beam="2">  1       21 0.63376188E-02 0.17783253E+03</pdfrwt>
<totfact> 0.99167453E+04</totfact>
</mgrwt>
</event>
<event>
 4    3  0.4009700E+000  0.1847288E+03  0.7546771E-02  0.1163303E+00
         21   -1    0    0  503  502  0.00000000000E+00  0.00000000000E+00  0.43081032348E+02  0.43081032348E+02  0.00000000000E+00 0. -1.
         21   -1    0    0  501  503 -0.00000000000E+00 -0.00000000000E+00 -0.20881973631E+04  0.20881973631E+04  0.00000000000E+00 0. -1.
          6    1    1    2  501    0  0.93503491970E-01 -0.64774291281E+02 -0.18620999716E+04  0.18712405035E+04  0.17300000000E+03 0. -1.
         -6    1    1    2    0  502 -0.93503491970E-01  0.64774291281E+02 -0.18301635916E+03  0.26003789199E+03  0.17300000000E+03 0. -1.
<mgrwt>
<rscale>  2 0.18472877E+03</rscale>
<asrwt>0</asrwt>
<pdfrwt beam="1">  1       21 0.66278525E-02 0.18472877E+03</pdfrwt>
<pdfrwt beam="2">  1       21 0.32126107E+00 0.18472877E+03</pdfrwt>
<totfact> 0.43205052E+03</totfact>
</mgrwt>
</event>
<event>
 4    3  0.4009700E+000  0.1746971E+03  0.7546771E-02  0.1173036E+00
         21   -1    0    0  503  502  0.00000000000E+00  0.00000000000E+00  0.59633348026E+03  0.59633348026E+03  0.00000000000E+00 0. -1.
         21   -1    0    0  501  503 -0.00000000000E+00 -0.00000000000E+00 -0.81874706027E+02  0.81874706027E+02  0.00000000000E+00 0. -1.
          6    1    1    2  501    0  0.26932158209E+01 -0.24141651376E+02  0.49592257427E+02  0.18159973772E+03  0.17300000000E+03 0. -1.
         -6    1    1    2    0  502 -0.26932158209E+01  0.24141651376E+02  0.46486651681E+03  0.49660844857E+03  0.17300000000E+03 0. -1.
<mgrwt>
<rscale>  2 0.17469709E+03</rscale>
<asrwt>0</asrwt>
<pdfrwt beam="1">  1       21 0.91743609E-01 0.17469709E+03</pdfrwt>
<pdfrwt beam="2">  1       21 0.12596109E-01 0.17469709E+03</pdfrwt>
<totfact> 0.54534127E+04</totfact>
</mgrwt>
</event>
<event>
 4    3  0.4009700E+000  0.1945504E+03  0.7546771E-02  0.1154420E+00
         21   -1    0    0  503  502  0.00000000000E+00  0.00000000000E+00  0.32363249965E+03  0.32363249965E+03  0.00000000000E+00 0. -1.
         21   -1    0    0  501  503 -0.00000000000E+00 -0.00000000000E+00 -0.18342479546E+03  0.18342479546E+03  0.00000000000E+00 0. -1.
          6    1    1    2  501    0 -0.21493504336E+02  0.86364883876E+02 -0.82517745158E+02  0.21132686096E+03  0.17300000000E+03 0. -1.
         -6    1    1    2    0  502  0.21493504336E+02 -0.86364883876E+02  0.22272544935E+03  0.29573043415E+03  0.17300000000E+03 0. -1.
<mgrwt>
<rscale>  2 0.19455041E+03</rscale>
<asrwt>0</asrwt>
<pdfrwt beam="1">  1       21 0.49789616E-01 0.19455041E+03</pdfrwt>
<pdfrwt beam="2">  1       21 0.28219199E-01 0.19455041E+03</pdfrwt>
<totfact> 0.46091705E+04</totfact>
</mgrwt>
</event>
<event>
 4    3  0.4009700E+000  0.2138168E+03  0.7546771E-02  0.1138579E+00
         21   -1    0    0  503  502  0.00000000000E+00  0.00000000000E+00  0.94012527691E+03  0.94012527691E+03  0.00000000000E+00 0. -1.
         21   -1    0    0  501  503 -0.00000000000E+00 -0.00000000000E+00 -0.52529890837E+02  0.52529890837E+02  0.00000000000E+00 0.  1.
          6    1    1    2  501    0  0.94838783924E+02  0.82427163559E+02  0.30854981074E+03  0.37539395032E+03  0.17300000000E+03 0.  1.
         -6    1    1    2    0  502 -0.94838783924E+02 -0.82427163559E+02  0.57904557534E+03  0.61726121743E+03  0.17300000000E+03 0. -1.
<mgrwt>
<rscale>  2 0.21381682E+03</rscale>
<asrwt>0</asrwt>
<pdfrwt beam="1">  1       21 0.14463465E+00 0.21381682E+03</pdfrwt>
<pdfrwt beam="2">  1       21 0.80815224E-02 0.21381682E+03</pdfrwt>
<totfact> 0.38295331E+04</totfact>
</mgrwt>
</event>
<event>
 4    3  0.4009700E+000  0.1786022E+03  0.7546771E-02  0.1169163E+00
         21   -1    0    0  501  502  0.00000000000E+00  0.00000000000E+00  0.57632887468E+02  0.57632887468E+02  0.00000000000E+00 0. -1.
         21   -1    0    0  502  503 -0.00000000000E+00 -0.00000000000E+00 -0.99276271132E+03  0.99276271132E+03  0.00000000000E+00 0. -1.
          6    1    1    2  501    0  0.40246004959E+02  0.18708172662E+02 -0.11820627316E+03  0.21417623504E+03  0.17300000000E+03 0. -1.
         -6    1    1    2    0  503 -0.40246004959E+02 -0.18708172662E+02 -0.81692355069E+03  0.83621936375E+03  0.17300000000E+03 0. -1.
<mgrwt>
<rscale>  2 0.17860217E+03</rscale>
<asrwt>0</asrwt>
<pdfrwt beam="1">  1       21 0.88665985E-02 0.17860217E+03</pdfrwt>
<pdfrwt beam="2">  1       21 0.15273272E+00 0.17860217E+03</pdfrwt>
<totfact> 0.28834774E+04</totfact>
</mgrwt>
</event>
<event>
 4    3  0.4009700E+000  0.2189500E+03  0.7546771E-02  0.1134668E+00
         21   -1    0    0  503  502  0.00000000000E+00  0.00000000000E+00  0.14605755888E+03  0.14605755888E+03  0.00000000000E+00 0.  1.
         21   -1    0    0  501  503 -0.00000000000E+00 -0.00000000000E+00 -0.48586840204E+03  0.48586840204E+03  0.00000000000E+00 0.  1.
          6    1    1    2  501    0 -0.10672959729E+03  0.81356626968E+02  0.10073132184E+02  0.21918160434E+03  0.17300000000E+03 0.  1.
         -6    1    1    2    0  502  0.10672959729E+03 -0.81356626968E+02 -0.34988397534E+03  0.41274435658E+03  0.17300000000E+03 0.  1.
<mgrwt>
<rscale>  2 0.21895001E+03</rscale>
<asrwt>0</asrwt>
<pdfrwt beam="1">  1       21 0.22470394E-01 0.21895001E+03</pdfrwt>
<pdfrwt beam="2">  1       21 0.74748984E-01 0.21895001E+03</pdfrwt>
<totfact> 0.29288037E+04</totfact>
</mgrwt>
</event>
<event>
 4    3  0.4009700E+000  0.2202424E+03  0.7546771E-02  0.1133702E+00
         21   -1    0    0  503  502  0.00000000000E+00  0.00000000000E+00  0.98418632002E+03  0.98418632002E+03  0.00000000000E+00 0.  1.
         21   -1    0    0  501  503 -0.00000000000E+00 -0.00000000000E+00 -0.24353469928E+03  0.24353469928E+03  0.00000000000E+00 0. -1.
          6    1    1    2  501    0 -0.43113471430E+02 -0.12930182619E+03 -0.17791099339E+03  0.28312374546E+03  0.17300000000E+03 0. -1.
         -6    1    1    2    0  502  0.43113471430E+02  0.12930182619E+03  0.91856261413E+03  0.94459727384E+03  0.17300000000E+03 0.  1.
<mgrwt>
<rscale>  2 0.22024244E+03</rscale>
<asrwt>0</asrwt>
<pdfrwt beam="1">  1       21 0.15141328E+00 0.22024244E+03</pdfrwt>
<pdfrwt beam="2">  1       21 0.37466877E-01 0.22024244E+03</pdfrwt>
<totfact> 0.19531302E+03</totfact>
</mgrwt>
</event>
<event>
 4    3  0.4009700E+000  0.2478176E+03  0.7546771E-02  0.1114692E+00
         21   -1    0    0  501  502  0.00000000000E+00  0.00000000000E+00  0.44260151547E+02  0.44260151547E+02  0.00000000000E+00 0.  1.
         21   -1    0    0  502  503 -0.00000000000E+00 -0.00000000000E+00 -0.14178262901E+04  0.14178262901E+04  0.00000000000E+00 0.  1.
          6    1    1    2  501    0  0.17484521496E+03 -0.30227776513E+02 -0.57997133857E+03  0.63069828066E+03  0.17300000000E+03 0.  1.
         -6    1    1    2    0  503 -0.17484521496E+03  0.30227776513E+02 -0.79359479997E+03  0.83138816098E+03  0.17300000000E+03 0.  1.
<mgrwt>
<rscale>  2 0.24781761E+03</rscale>
<asrwt>0</asrwt>
<pdfrwt beam="1">  1       21 0.68092557E-02 0.24781761E+03</pdfrwt>
<pdfrwt beam="2">  1       21 0.21812707E+00 0.24781761E+03</pdfrwt>
<totfact> 0.15727621E+04</totfact>
</mgrwt>
</event>
<event>
 4    3  0.4009700E+000  0.2224818E+03  0.7546771E-02  0.1132046E+00
         21   -1    0    0  503  502  0.00000000000E+00  0.00000000000E+00  0.13780707434E+03  0.13780707434E+03  0.00000000000E+00 0. -1.
         21   -1    0    0  501  503 -0.00000000000E+00 -0.00000000000E+00 -0.93662008669E+03  0.93662008669E+03  0.00000000000E+00 0.  1.
          6    1    1    2  501    0  0.13584071911E+03 -0.33413617107E+02 -0.82121663720E+03  0.85082015491E+03  0.17300000000E+03 0.  1.
         -6    1    1    2    0  502 -0.13584071911E+03  0.33413617107E+02  0.22403624854E+02  0.22360700612E+03  0.17300000000E+03 0. -1.
<mgrwt>
<rscale>  2 0.22248184E+03</rscale>
<asrwt>0</asrwt>
<pdfrwt beam="1">  1       21 0.21201089E-01 0.22248184E+03</pdfrwt>
<pdfrwt beam="2">  1       21 0.14409539E+00 0.22248184E+03</pdfrwt>
<totfact> 0.67162828E+03</totfact>
</mgrwt>
</event>
<event>
 4    3  0.4009700E+000  0.2436319E+03  0.7546771E-02  0.1117397E+00
         21   -1    0    0  503  502  0.00000000000E+00  0.00000000000E+00  0.27065681518E+03  0.27065681518E+03  0.00000000000E+00 0. -1.
         21   -1    0    0  501  503 -0.00000000000E+00 -0.00000000000E+00 -0.72895315064E+03  0.72895315064E+03  0.00000000000E+00 0. -1.
          6    1    1    2  501    0 -0.53568595715E+02 -0.16296596454E+03 -0.64706111918E+03  0.69140768870E+03  0.17300000000E+03 0. -1.
         -6    1    1    2    0  502  0.53568595715E+02  0.16296596454E+03  0.18876478373E+03  0.30820227712E+03  0.17300000000E+03 0. -1.
<mgrwt>
<rscale>  2 0.24363189E+03</rscale>
<asrwt>0</asrwt>
<pdfrwt beam="1">  1       21 0.41639510E-01 0.24363189E+03</pdfrwt>
<pdfrwt beam="2">  1       21 0.11214664E+00 0.24363189E+03</pdfrwt>
<totfact> 0.33260467E+03</totfact>
</mgrwt>
</event>
<event>
 4    3  0.4009700E+000  0.2546209E+03  0.7546771E-02  0.1110419E+00
         21   -1    0    0  501  502  0.00000000000E+00  0.00000000000E+00  0.27258226983E+03  0.27258226983E+03  0.00000000000E+00 0.  1.
         21   -1    0    0  502  503 -0.00000000000E+00 -0.00000000000E+00 -0.31151216964E+03  0.31151216964E+03  0.00000000000E+00 0.  1.
          6    1    1    2  501    0 -0.68683857057E+01  0.18669661285E+03  0.12255792209E+03  0.28258139400E+03  0.17300000000E+03 0.  1.
         -6    1    1    2    0  503  0.68683857057E+01 -0.18669661285E+03 -0.16148782189E+03  0.30151304547E+03  0.17300000000E+03 0.  1.
<mgrwt>
<rscale>  2 0.25462089E+03</rscale>
<asrwt>0</asrwt>
<pdfrwt beam="1">  1       21 0.41935734E-01 0.25462089E+03</pdfrwt>
<pdfrwt beam="2">  1       21 0.47924949E-01 0.25462089E+03</pdfrwt>
<totfact> 0.22042184E+04</totfact>
</mgrwt>
</event>
<event>
 4    3  0.4009700E+000  0.1913558E+03  0.7546771E-02  0.1157244E+00
         21   -1    0    0  501  502  0.00000000000E+00  0.00000000000E+00  0.30141413232E+03  0.30141413232E+03  0.00000000000E+00 0.  1.
         21   -1    0    0  502  503 -0.00000000000E+00 -0.00000000000E+00 -0.12494429222E+03  0.12494429222E+03  0.00000000000E+00 0.  1.
          6    1    1    2  501    0  0.79757874827E+02  0.18075587267E+02  0.52759102542E+02  0.19849576407E+03  0.17300000000E+03 0.  1.
         -6    1    1    2    0  503 -0.79757874827E+02 -0.18075587267E+02  0.12371073755E+03  0.22786266047E+03  0.17300000000E+03 0.  1.
<mgrwt>
<rscale>  2 0.19135581E+03</rscale>
<asrwt>0</asrwt>
<pdfrwt beam="1">  1       21 0.46371405E-01 0.19135581E+03</pdfrwt>
<pdfrwt beam="2">  1       21 0.19222199E-01 0.19135581E+03</pdfrwt>
<totfact> 0.11077957E+05</totfact>
</mgrwt>
</event>
<event>
 4    3  0.4009700E+000  0.1851969E+03  0.7546771E-02  0.1162866E+00
         21   -1    0    0  501  502  0.00000000000E+00  0.00000000000E+00  0.58039954574E+03  0.58039954574E+03  0.00000000000E+00 0. -1.
         21   -1    0    0  502  503 -0.00000000000E+00 -0.00000000000E+00 -0.83170502988E+02  0.83170502988E+02  0.00000000000E+00 0. -1.
          6    1    1    2  501    0 -0.65264968787E+02  0.10457713903E+02  0.42712870045E+03  0.46555000449E+03  0.17300000000E+03 0. -1.
         -6    1    1    2    0  503  0.65264968787E+02 -0.10457713903E+02  0.70100342306E+02  0.19802004424E+03  0.17300000000E+03 0. -1.
<mgrwt>
<rscale>  2 0.18519687E+03</rscale>
<asrwt>0</asrwt>
<pdfrwt beam="1">  1       21 0.89292235E-01 0.18519687E+03</pdfrwt>
<pdfrwt beam="2">  1       21 0.12795462E-01 0.18519687E+03</pdfrwt>
<totfact> 0.56157599E+04</totfact>
</mgrwt>
</event>
<event>
 4    3  0.4009700E+000  0.2349609E+03  0.7546771E-02  0.1123196E+00
         21   -1    0    0  503  502  0.00000000000E+00  0.00000000000E+00  0.28484190182E+03  0.28484190182E+03  0.00000000000E+00 0.  1.
         21   -1    0    0  501  503 -0.00000000000E+00 -0.00000000000E+00 -0.20044411258E+03  0.20044411258E+03  0.00000000000E+00 0.  1.
          6    1    1    2  501    0 -0.68451086414E+01  0.15884189834E+03 -0.19278777002E+01  0.23496876578E+03  0.17300000000E+03 0.  1.
         -6    1    1    2    0  502  0.68451086414E+01 -0.15884189834E+03  0.86325666941E+02  0.25031724861E+03  0.17300000000E+03 0.  1.
<mgrwt>
<rscale>  2 0.23496086E+03</rscale>
<asrwt>0</asrwt>
<pdfrwt beam="1">  1       21 0.43821831E-01 0.23496086E+03</pdfrwt>
<pdfrwt beam="2">  1       21 0.30837556E-01 0.23496086E+03</pdfrwt>
<totfact> 0.49554625E+04</totfact>
</mgrwt>
</event>
<event>
 4    3  0.4009700E+000  0.1923067E+03  0.7546771E-02  0.1156397E+00
         21   -1    0    0  503  502  0.00000000000E+00  0.00000000000E+00  0.20459638362E+04  0.20459638362E+04  0.00000000000E+00 0. -1.
         21   -1    0    0  501  503 -0.00000000000E+00 -0.00000000000E+00 -0.21665549431E+02  0.21665549431E+02  0.00000000000E+00 0. -1.
          6    1    1    2  501    0 -0.40911367492E+02  0.73342617147E+02  0.59131954048E+03  0.62180437313E+03  0.17300000000E+03 0. -1.
         -6    1    1    2    0  502  0.40911367492E+02 -0.73342617147E+02  0.14329787462E+04  0.14458250125E+04  0.17300000000E+03 0. -1.
<mgrwt>
<rscale>  2 0.19230673E+03</rscale>
<asrwt>0</asrwt>
<pdfrwt beam="1">  1       21 0.31476351E+00 0.19230673E+03</pdfrwt>
<pdfrwt beam="2">  1       21 0.33331631E-02 0.19230673E+03</pdfrwt>
<totfact> 0.14914647E+04</totfact>
</mgrwt>
</event>
<event>
 4    3  0.4009700E+000  0.1871405E+03  0.7546771E-02  0.1161066E+00
         21   -1    0    0  501  502  0.00000000000E+00  0.00000000000E+00  0.22077316562E+02  0.22077316562E+02  0.00000000000E+00 0. -1.
         21   -1    0    0  502  503 -0.00000000000E+00 -0.00000000000E+00 -0.15948986132E+04  0.15948986132E+04  0.00000000000E+00 0. -1.
          6    1    1    2  501    0 -0.17339330966E+02 -0.69223532543E+02 -0.72709424378E+03  0.75079130868E+03  0.17300000000E+03 0. -1.
         -6    1    1    2    0  503  0.17339330966E+02  0.69223532543E+02 -0.84572705285E+03  0.86618462107E+03  0.17300000000E+03 0. -1.
<mgrwt>
<rscale>  2 0.18714045E+03</rscale>
<asrwt>0</asrwt>
<pdfrwt beam="1">  1       21 0.33965092E-02 0.18714045E+03</pdfrwt>
<pdfrwt beam="2">  1       21 0.24536909E+00 0.18714045E+03</pdfrwt>
<totfact> 0.36622158E+04</totfact>
</mgrwt>
</event>
<event>
 4    3  0.4009700E+000  0.2320366E+03  0.7546771E-02  0.1125214E+00
         21   -1    0    0  503  502  0.00000000000E+00  0.00000000000E+00  0.10307570792E+03  0.10307570792E+03  0.00000000000E+00 0.  1.
         21   -1    0    0  501  503 -0.00000000000E+00 -0.00000000000E+00 -0.77631821829E+03  0.77631821829E+03  0.00000000000E+00 0. -1.
          6    1    1    2  501    0  0.93939014178E+02 -0.12283101165E+03 -0.58811561048E+03  0.63223489867E+03  0.17300000000E+03 0.  1.
         -6    1    1    2    0  502 -0.93939014178E+02  0.12283101165E+03 -0.85126899894E+02  0.24715902754E+03  0.17300000000E+03 0.  1.
<mgrwt>
<rscale>  2 0.23203663E+03</rscale>
<asrwt>0</asrwt>
<pdfrwt beam="1">  1       21 0.15857801E-01 0.23203663E+03</pdfrwt>
<pdfrwt beam="2">  1       21 0.11943357E+00 0.23203663E+03</pdfrwt>
<totfact> 0.18487017E+04</totfact>
</mgrwt>
</event>
<event>
 4    3  0.4009700E+000  0.2207860E+03  0.7546771E-02  0.1133298E+00
         21   -1    0    0  501  502  0.00000000000E+00  0.00000000000E+00  0.16972576478E+03  0.16972576478E+03  0.00000000000E+00 0. -1.
         21   -1    0    0  502  503 -0.00000000000E+00 -0.00000000000E+00 -0.29993627582E+03  0.29993627582E+03  0.00000000000E+00 0. -1.
          6    1    1    2  501    0  0.13660805812E+03 -0.12478627008E+02 -0.16728382178E+02  0.22141887102E+03  0.17300000000E+03 0. -1.
         -6    1    1    2    0  503 -0.13660805812E+03  0.12478627008E+02 -0.11348212886E+03  0.24824316959E+03  0.17300000000E+03 0. -1.
<mgrwt>
<rscale>  2 0.22078605E+03</rscale>
<asrwt>0</asrwt>
<pdfrwt beam="1">  1       21 0.26111657E-01 0.22078605E+03</pdfrwt>
<pdfrwt beam="2">  1       21 0.46144042E-01 0.22078605E+03</pdfrwt>
<totfact> 0.61931981E+04</totfact>
</mgrwt>
</event>
<event>
 4    3  0.4009700E+000  0.1932788E+03  0.7546771E-02  0.1155537E+00
         21   -1    0    0  501  502  0.00000000000E+00  0.00000000000E+00  0.18689062843E+03  0.18689062843E+03  0.00000000000E+00 0. -1.
         21   -1    0    0  502  503 -0.00000000000E+00 -0.00000000000E+00 -0.35004578421E+03  0.35004578421E+03  0.00000000000E+00 0. -1.
          6    1    1    2  501    0  0.85869189176E+02  0.73601458320E+01  0.94258612113E+02  0.21503807885E+03  0.17300000000E+03 0. -1.
         -6    1    1    2    0  503 -0.85869189176E+02 -0.73601458320E+01 -0.25741376790E+03  0.32189833380E+03  0.17300000000E+03 0. -1.
<mgrwt>
<rscale>  2 0.19327879E+03</rscale>
<asrwt>0</asrwt>
<pdfrwt beam="1">  1       21 0.28752405E-01 0.19327879E+03</pdfrwt>
<pdfrwt beam="2">  1       21 0.53853197E-01 0.19327879E+03</pdfrwt>
<totfact> 0.37733604E+04</totfact>
</mgrwt>
</event>
<event>
 4    3  0.4009700E+000  0.1781737E+03  0.7546771E-02  0.1169582E+00
         21   -1    0    0  503  502  0.00000000000E+00  0.00000000000E+00  0.38866279198E+03  0.38866279198E+03  0.00000000000E+00 0.  1.
         21   -1    0    0  501  503 -0.00000000000E+00 -0.00000000000E+00 -0.82834257659E+02  0.82834257659E+02  0.00000000000E+00 0.  1.
          6    1    1    2  501    0 -0.72974951262E+01  0.41995294290E+02  0.18074680498E+03  0.25380162665E+03  0.17300000000E+03 0. -1.
         -6    1    1    2    0  502  0.72974951262E+01 -0.41995294290E+02  0.12508172934E+03  0.21769542299E+03  0.17300000000E+03 0. -1.
<mgrwt>
<rscale>  2 0.17817367E+03</rscale>
<asrwt>0</asrwt>
<pdfrwt beam="1">  1       21 0.59794275E-01 0.17817367E+03</pdfrwt>
<pdfrwt beam="2">  1       21 0.12743732E-01 0.17817367E+03</pdfrwt>
<totfact> 0.13820751E+05</totfact>
</mgrwt>
</event>
<event>
 4    3  0.4009700E+000  0.2422327E+03  0.7546771E-02  0.1118314E+00
         21   -1    0    0  501  502  0.00000000000E+00  0.00000000000E+00  0.53340620529E+03  0.53340620529E+03  0.00000000000E+00 0.  1.
         21   -1    0    0  502  503 -0.00000000000E+00 -0.00000000000E+00 -0.16759563358E+03  0.16759563358E+03  0.00000000000E+00 0.  1.
          6    1    1    2  501    0 -0.16625328870E+03  0.33279236242E+02 -0.22560062758E+02  0.24328094870E+03  0.17300000000E+03 0.  1.
         -6    1    1    2    0  503  0.16625328870E+03 -0.33279236242E+02  0.38837063447E+03  0.45772089016E+03  0.17300000000E+03 0.  1.
<mgrwt>
<rscale>  2 0.24223266E+03</rscale>
<asrwt>0</asrwt>
<pdfrwt beam="1">  1       21 0.82062492E-01 0.24223266E+03</pdfrwt>
<pdfrwt beam="2">  1       21 0.25783944E-01 0.24223266E+03</pdfrwt>
<totfact> 0.18016648E+04</totfact>
</mgrwt>
</event>
<event>
 4    3  0.4009700E+000  0.2180407E+03  0.7546771E-02  0.1135352E+00
         21   -1    0    0  501  502  0.00000000000E+00  0.00000000000E+00  0.98691876777E+02  0.98691876777E+02  0.00000000000E+00 0. -1.
         21   -1    0    0  502  503 -0.00000000000E+00 -0.00000000000E+00 -0.58909755455E+03  0.58909755455E+03  0.00000000000E+00 0. -1.
          6    1    1    2  501    0 -0.55009705170E+02 -0.12077540691E+03 -0.98381096248E+02  0.23920829140E+03  0.17300000000E+03 0. -1.
         -6    1    1    2    0  503  0.55009705170E+02  0.12077540691E+03 -0.39202458153E+03  0.44858113993E+03  0.17300000000E+03 0. -1.
<mgrwt>
<rscale>  2 0.21804075E+03</rscale>
<asrwt>0</asrwt>
<pdfrwt beam="1">  1       21 0.15183366E-01 0.21804075E+03</pdfrwt>
<pdfrwt beam="2">  1       21 0.90630394E-01 0.21804075E+03</pdfrwt>
<totfact> 0.39142279E+04</totfact>
</mgrwt>
</event>
<event>
 4    3  0.4009700E+000  0.1897769E+03  0.7546771E-02  0.1158663E+00
         21   -1    0    0  503  502  0.00000000000E+00  0.00000000000E+00  0.10972766878E+03  0.10972766878E+03  0.00000000000E+00 0. -1.
         21   -1    0    0  501  503 -0.00000000000E+00 -0.00000000000E+00 -0.41235711755E+03  0.41235711755E+03  0.00000000000E+00 0. -1.
          6    1    1    2  501    0 -0.75023556096E+02  0.21394721049E+02 -0.26922657712E+03  0.32939067669E+03  0.17300000000E+03 0. -1.
         -6    1    1    2    0  502  0.75023556096E+02 -0.21394721049E+02 -0.33402871643E+02  0.19269410965E+03  0.17300000000E+03 0. -1.
<mgrwt>
<rscale>  2 0.18977689E+03</rscale>
<asrwt>0</asrwt>
<pdfrwt beam="1">  1       21 0.16881180E-01 0.18977689E+03</pdfrwt>
<pdfrwt beam="2">  1       21 0.63439555E-01 0.18977689E+03</pdfrwt>
<totfact> 0.72699473E+04</totfact>
</mgrwt>
</event>
<event>
 4    3  0.4009700E+000  0.1864570E+03  0.7546771E-02  0.1161696E+00
         21   -1    0    0  503  502  0.00000000000E+00  0.00000000000E+00  0.51121965851E+03  0.51121965851E+03  0.00000000000E+00 0. -1.
         21   -1    0    0  501  503 -0.00000000000E+00 -0.00000000000E+00 -0.86894145329E+02  0.86894145329E+02  0.00000000000E+00 0. -1.
          6    1    1    2  501    0 -0.19253702715E+02  0.66832051412E+02  0.72735336706E+02  0.20014159330E+03  0.17300000000E+03 0. -1.
         -6    1    1    2    0  502  0.19253702715E+02 -0.66832051412E+02  0.35159017647E+03  0.39797221053E+03  0.17300000000E+03 0. -1.
<mgrwt>
<rscale>  2 0.18645704E+03</rscale>
<asrwt>0</asrwt>
<pdfrwt beam="1">  1       21 0.78649176E-01 0.18645704E+03</pdfrwt>
<pdfrwt beam="2">  1       21 0.13368330E-01 0.18645704E+03</pdfrwt>
<totfact> 0.69268979E+04</totfact>
</mgrwt>
</event>
<event>
 4    3  0.4009700E+000  0.2773714E+03  0.7546771E-02  0.1097133E+00
         21   -1    0    0  501  502  0.00000000000E+00  0.00000000000E+00  0.33509079088E+03  0.33509079088E+03  0.00000000000E+00 0. -1.
         21   -1    0    0  502  503 -0.00000000000E+00 -0.00000000000E+00 -0.32535092915E+03  0.32535092915E+03  0.00000000000E+00 0. -1.
          6    1    1    2  501    0 -0.19099773200E+03 -0.10259518696E+03  0.18401840076E+03  0.33286285138E+03  0.17300000000E+03 0. -1.
         -6    1    1    2    0  503  0.19099773200E+03  0.10259518696E+03 -0.17427853903E+03  0.32757886864E+03  0.17300000000E+03 0. -1.
<mgrwt>
<rscale>  2 0.27737142E+03</rscale>
<asrwt>0</asrwt>
<pdfrwt beam="1">  1       21 0.51552430E-01 0.27737142E+03</pdfrwt>
<pdfrwt beam="2">  1       21 0.50053989E-01 0.27737142E+03</pdfrwt>
<totfact> 0.12959637E+04</totfact>
</mgrwt>
</event>
<event>
 4    3  0.4009700E+000  0.3337912E+03  0.7546771E-02  0.1069472E+00
         21   -1    0    0  503  502  0.00000000000E+00  0.00000000000E+00  0.14186451980E+04  0.14186451980E+04  0.00000000000E+00 0. -1.
         21   -1    0    0  501  503 -0.00000000000E+00 -0.00000000000E+00 -0.25793272932E+03  0.25793272932E+03  0.00000000000E+00 0. -1.
          6    1    1    2  501    0  0.43812582005E+02  0.28207805159E+03 -0.11875487514E+03  0.35428701628E+03  0.17300000000E+03 0. -1.
         -6    1    1    2    0  502 -0.43812582005E+02 -0.28207805159E+03  0.12794673438E+04  0.13222909110E+04  0.17300000000E+03 0. -1.
<mgrwt>
<rscale>  2 0.33379121E+03</rscale>
<asrwt>0</asrwt>
<pdfrwt beam="1">  1       21 0.21825310E+00 0.33379121E+03</pdfrwt>
<pdfrwt beam="2">  1       21 0.39681959E-01 0.33379121E+03</pdfrwt>
<totfact> 0.55394915E+02</totfact>
</mgrwt>
</event>
<event>
 4    3  0.4009700E+000  0.1836879E+03  0.7546771E-02  0.1164281E+00
         21   -1    0    0  503  502  0.00000000000E+00  0.00000000000E+00  0.61612463265E+02  0.61612463265E+02  0.00000000000E+00 0.  1.
         21   -1    0    0  501  503 -0.00000000000E+00 -0.00000000000E+00 -0.54787839219E+03  0.54787839219E+03  0.00000000000E+00 0.  1.
          6    1    1    2  501    0  0.27043685870E+02  0.55505782738E+02 -0.23673374179E+03  0.29963997958E+03  0.17300000000E+03 0.  1.
         -6    1    1    2    0  502 -0.27043685870E+02 -0.55505782738E+02 -0.24953218714E+03  0.30985087587E+03  0.17300000000E+03 0.  1.
<mgrwt>
<rscale>  2 0.18368792E+03</rscale>
<asrwt>0</asrwt>
<pdfrwt beam="1">  1       21 0.94788403E-02 0.18368792E+03</pdfrwt>
<pdfrwt beam="2">  1       21 0.84288986E-01 0.18368792E+03</pdfrwt>
<totfact> 0.10930435E+05</totfact>
</mgrwt>
</event>
<event>
 4    3  0.4009700E+000  0.2277318E+03  0.7546771E-02  0.1128246E+00
         21   -1    0    0  503  502  0.00000000000E+00  0.00000000000E+00  0.82134449125E+03  0.82134449125E+03  0.00000000000E+00 0.  1.
         21   -1    0    0  501  503 -0.00000000000E+00 -0.00000000000E+00 -0.72874313334E+02  0.72874313334E+02  0.00000000000E+00 0.  1.
          6    1    1    2  501    0 -0.39271154002E+00  0.14809666892E+03  0.21084618751E+03  0.31035124029E+03  0.17300000000E+03 0.  1.
         -6    1    1    2    0  502  0.39271154002E+00 -0.14809666892E+03  0.53762399041E+03  0.58386756429E+03  0.17300000000E+03 0.  1.
<mgrwt>
<rscale>  2 0.22773181E+03</rscale>
<asrwt>0</asrwt>
<pdfrwt beam="1">  1       21 0.12636068E+00 0.22773181E+03</pdfrwt>
<pdfrwt beam="2">  1       21 0.11211433E-01 0.22773181E+03</pdfrwt>
<totfact> 0.30148402E+04</totfact>
</mgrwt>
</event>
<event>
 4    3  0.4009700E+000  0.2006609E+03  0.7546771E-02  0.1149183E+00
         21   -1    0    0  503  502  0.00000000000E+00  0.00000000000E+00  0.85098984769E+03  0.85098984769E+03  0.00000000000E+00 0. -1.
         21   -1    0    0  501  503 -0.00000000000E+00 -0.00000000000E+00 -0.69580266198E+02  0.69580266198E+02  0.00000000000E+00 0. -1.
          6    1    1    2  501    0  0.89658947877E+02  0.47927906118E+02  0.13033224865E+03  0.23927245173E+03  0.17300000000E+03 0. -1.
         -6    1    1    2    0  502 -0.89658947877E+02 -0.47927906118E+02  0.65107733284E+03  0.68129766216E+03  0.17300000000E+03 0. -1.
<mgrwt>
<rscale>  2 0.20066094E+03</rscale>
<asrwt>0</asrwt>
<pdfrwt beam="1">  1       21 0.13092151E+00 0.20066094E+03</pdfrwt>
<pdfrwt beam="2">  1       21 0.10704657E-01 0.20066094E+03</pdfrwt>
<totfact> 0.30394521E+04</totfact>
</mgrwt>
</event>
<event>
 4    3  0.4009700E+000  0.1780330E+03  0.7546771E-02  0.1169720E+00
         21   -1    0    0  503  502  0.00000000000E+00  0.00000000000E+00  0.12160206223E+03  0.12160206223E+03  0.00000000000E+00 0. -1.
         21   -1    0    0  501  503 -0.00000000000E+00 -0.00000000000E+00 -0.59896936390E+03  0.59896936390E+03  0.00000000000E+00 0. -1.
          6    1    1    2  501    0 -0.41284488188E+02 -0.78961344392E+01 -0.50945780733E+03  0.53966935744E+03  0.17300000000E+03 0. -1.
         -6    1    1    2    0  502  0.41284488188E+02  0.78961344392E+01  0.32090505670E+02  0.18090206870E+03  0.17300000000E+03 0. -1.
<mgrwt>
<rscale>  2 0.17803302E+03</rscale>
<asrwt>0</asrwt>
<pdfrwt beam="1">  1       21 0.18708010E-01 0.17803302E+03</pdfrwt>
<pdfrwt beam="2">  1       21 0.92149132E-01 0.17803302E+03</pdfrwt>
<totfact> 0.26219916E+04</totfact>
</mgrwt>
</event>
<event>
 4    3  0.4009700E+000  0.2031512E+03  0.7546771E-02  0.1147107E+00
         21   -1    0    0  501  502  0.00000000000E+00  0.00000000000E+00  0.90939119967E+02  0.90939119967E+02  0.00000000000E+00 0. -1.
         21   -1    0    0  502  503 -0.00000000000E+00 -0.00000000000E+00 -0.49379965844E+03  0.49379965844E+03  0.00000000000E+00 0. -1.
          6    1    1    2  501    0  0.10070971423E+03 -0.34625954530E+02 -0.11824403812E+03  0.23505755852E+03  0.17300000000E+03 0. -1.
         -6    1    1    2    0  503 -0.10070971423E+03  0.34625954530E+02 -0.28461650034E+03  0.34968121988E+03  0.17300000000E+03 0. -1.
<mgrwt>
<rscale>  2 0.20315118E+03</rscale>
<asrwt>0</asrwt>
<pdfrwt beam="1">  1       21 0.13990633E-01 0.20315118E+03</pdfrwt>
<pdfrwt beam="2">  1       21 0.75969181E-01 0.20315118E+03</pdfrwt>
<totfact> 0.68445831E+04</totfact>
</mgrwt>
</event>
<event>
 4    3  0.4009700E+000  0.1734622E+03  0.7546771E-02  0.1174285E+00
         21   -1    0    0  501  502  0.00000000000E+00  0.00000000000E+00  0.18105891818E+03  0.18105891818E+03  0.00000000000E+00 0.  1.
         21   -1    0    0  502  503 -0.00000000000E+00 -0.00000000000E+00 -0.27529407373E+03  0.27529407373E+03  0.00000000000E+00 0.  1.
          6    1    1    2  501    0 -0.95781507220E+01  0.82696581093E+01  0.96532060801E+02  0.19851339244E+03  0.17300000000E+03 0.  1.
         -6    1    1    2    0  503  0.95781507220E+01 -0.82696581093E+01 -0.19076721635E+03  0.25783959946E+03  0.17300000000E+03 0.  1.
<mgrwt>
<rscale>  2 0.17346218E+03</rscale>
<asrwt>0</asrwt>
<pdfrwt beam="1">  1       21 0.27855218E-01 0.17346218E+03</pdfrwt>
<pdfrwt beam="2">  1       21 0.42352934E-01 0.17346218E+03</pdfrwt>
<totfact> 0.66568181E+04</totfact>
</mgrwt>
</event>
<event>
 4    3  0.4009700E+000  0.1871034E+03  0.7546771E-02  0.1161100E+00
         21   -1    0    0  501  502  0.00000000000E+00  0.00000000000E+00  0.32236866900E+03  0.32236866900E+03  0.00000000000E+00 0. -1.
         21   -1    0    0  502  503 -0.00000000000E+00 -0.00000000000E+00 -0.14479861013E+03  0.14479861013E+03  0.00000000000E+00 0. -1.
          6    1    1    2  501    0  0.46176185004E+02  0.54281039981E+02  0.20558300436E+03  0.27797849385E+03  0.17300000000E+03 0.  1.
         -6    1    1    2    0  503 -0.46176185004E+02 -0.54281039981E+02 -0.28012945489E+02  0.18918878529E+03  0.17300000000E+03 0.  1.
<mgrwt>
<rscale>  2 0.18710337E+03</rscale>
<asrwt>0</asrwt>
<pdfrwt beam="1">  1       21 0.49595180E-01 0.18710337E+03</pdfrwt>
<pdfrwt beam="2">  1       21 0.22276709E-01 0.18710337E+03</pdfrwt>
<totfact> 0.73236779E+04</totfact>
</mgrwt>
</event>
<event>
 4    3  0.4009700E+000  0.2004803E+03  0.7546771E-02  0.1149334E+00
         21   -1    0    0  501  502  0.00000000000E+00  0.00000000000E+00  0.69500040234E+03  0.69500040234E+03  0.00000000000E+00 0. -1.
         21   -1    0    0  502  503 -0.00000000000E+00 -0.00000000000E+00 -0.76534632513E+02  0.76534632513E+02  0.00000000000E+00 0. -1.
          6    1    1    2  501    0  0.81795861535E+02  0.59772734961E+02  0.49993846564E+03  0.53863792313E+03  0.17300000000E+03 0. -1.
         -6    1    1    2    0  503 -0.81795861535E+02 -0.59772734961E+02  0.11852730418E+03  0.23289711172E+03  0.17300000000E+03 0. -1.
<mgrwt>
<rscale>  2 0.20048028E+03</rscale>
<asrwt>0</asrwt>
<pdfrwt beam="1">  1       21 0.10692313E+00 0.20048028E+03</pdfrwt>
<pdfrwt beam="2">  1       21 0.11774559E-01 0.20048028E+03</pdfrwt>
<totfact> 0.42279173E+04</totfact>
</mgrwt>
</event>
<event>
 4    3  0.4009700E+000  0.1840675E+03  0.7546771E-02  0.1163924E+00
         21   -1    0    0  503  502  0.00000000000E+00  0.00000000000E+00  0.12521948343E+03  0.12521948343E+03  0.00000000000E+00 0. -1.
         21   -1    0    0  501  503 -0.00000000000E+00 -0.00000000000E+00 -0.27158574672E+03  0.27158574672E+03  0.00000000000E+00 0. -1.
          6    1    1    2  501    0 -0.57937864784E+02 -0.24393530448E+02 -0.61059392823E+02  0.19393063181E+03  0.17300000000E+03 0. -1.
         -6    1    1    2    0  502  0.57937864784E+02  0.24393530448E+02 -0.85306870466E+02  0.20287459834E+03  0.17300000000E+03 0. -1.
<mgrwt>
<rscale>  2 0.18406749E+03</rscale>
<asrwt>0</asrwt>
<pdfrwt beam="1">  1       21 0.19264536E-01 0.18406749E+03</pdfrwt>
<pdfrwt beam="2">  1       21 0.41782422E-01 0.18406749E+03</pdfrwt>
<totfact> 0.13688540E+05</totfact>
</mgrwt>
</event>
<event>
 4    3  0.4009700E+000  0.1864696E+03  0.7546771E-02  0.1161685E+00
         21   -1    0    0  503  502  0.00000000000E+00  0.00000000000E+00  0.67086560926E+03  0.67086560926E+03  0.00000000000E+00 0. -1.
         21   -1    0    0  501  503 -0.00000000000E+00 -0.00000000000E+00 -0.52886229171E+02  0.52886229171E+02  0.00000000000E+00 0.  1.
          6    1    1    2  501    0  0.61757908511E+02  0.32060593589E+02  0.25784732313E+03  0.31820773556E+03  0.17300000000E+03 0.  1.
         -6    1    1    2    0  502 -0.61757908511E+02 -0.32060593589E+02  0.36013205696E+03  0.40554410287E+03  0.17300000000E+03 0. -1.
<mgrwt>
<rscale>  2 0.18646962E+03</rscale>
<asrwt>0</asrwt>
<pdfrwt beam="1">  1       21 0.10321009E+00 0.18646962E+03</pdfrwt>
<pdfrwt beam="2">  1       21 0.81363434E-02 0.18646962E+03</pdfrwt>
<totfact> 0.88949016E+04</totfact>
</mgrwt>
</event>
<event>
 4    3  0.4009700E+000  0.1843929E+03  0.7546771E-02  0.1163618E+00
         21   -1    0    0  503  502  0.00000000000E+00  0.00000000000E+00  0.14431564150E+03  0.14431564150E+03  0.00000000000E+00 0.  1.
         21   -1    0    0  501  503 -0.00000000000E+00 -0.00000000000E+00 -0.47642572015E+03  0.47642572015E+03  0.00000000000E+00 0. -1.
          6    1    1    2  501    0  0.62451708440E+02 -0.13096641771E+02 -0.38672066871E+03  0.42843157391E+03  0.17300000000E+03 0. -1.
         -6    1    1    2    0  502 -0.62451708440E+02  0.13096641771E+02  0.54610590060E+02  0.19230978774E+03  0.17300000000E+03 0.  1.
<mgrwt>
<rscale>  2 0.18439289E+03</rscale>
<asrwt>0</asrwt>
<pdfrwt beam="1">  1       21 0.22202406E-01 0.18439289E+03</pdfrwt>
<pdfrwt beam="2">  1       21 0.73296265E-01 0.18439289E+03</pdfrwt>
<totfact> 0.31890489E+04</totfact>
</mgrwt>
</event>
<event>
 4    3  0.4009700E+000  0.1755852E+03  0.7546771E-02  0.1172145E+00
         21   -1    0    0  503  502  0.00000000000E+00  0.00000000000E+00  0.33827241237E+03  0.33827241237E+03  0.00000000000E+00 0.  1.
         21   -1    0    0  501  503 -0.00000000000E+00 -0.00000000000E+00 -0.16130326247E+03  0.16130326247E+03  0.00000000000E+00 0.  1.
          6    1    1    2  501    0 -0.27130851922E+02  0.12847989994E+02 -0.76257503921E+02  0.19142978054E+03  0.17300000000E+03 0.  1.
         -6    1    1    2    0  502  0.27130851922E+02 -0.12847989994E+02  0.25322665381E+03  0.30814589430E+03  0.17300000000E+03 0.  1.
<mgrwt>
<rscale>  2 0.17558518E+03</rscale>
<asrwt>0</asrwt>
<pdfrwt beam="1">  1       21 0.52041909E-01 0.17558518E+03</pdfrwt>
<pdfrwt beam="2">  1       21 0.24815887E-01 0.17558518E+03</pdfrwt>
<totfact> 0.54264058E+04</totfact>
</mgrwt>
</event>
<event>
 4    3  0.4009700E+000  0.1744868E+03  0.7546771E-02  0.1173248E+00
         21   -1    0    0  503  502  0.00000000000E+00  0.00000000000E+00  0.13756917327E+03  0.13756917327E+03  0.00000000000E+00 0.  1.
         21   -1    0    0  501  503 -0.00000000000E+00 -0.00000000000E+00 -0.22611483286E+03  0.22611483286E+03  0.00000000000E+00 0.  1.
          6    1    1    2  501    0 -0.19931575446E+01  0.22642518327E+02 -0.17769789850E+02  0.17538934330E+03  0.17300000000E+03 0.  1.
         -6    1    1    2    0  502  0.19931575446E+01 -0.22642518327E+02 -0.70775869736E+02  0.18829466283E+03  0.17300000000E+03 0.  1.
<mgrwt>
<rscale>  2 0.17448684E+03</rscale>
<asrwt>0</asrwt>
<pdfrwt beam="1">  1       21 0.21164488E-01 0.17448684E+03</pdfrwt>
<pdfrwt beam="2">  1       21 0.34786897E-01 0.17448684E+03</pdfrwt>
<totfact> 0.16630938E+05</totfact>
</mgrwt>
</event>
<event>
 4    3  0.4009700E+000  0.2676744E+03  0.7546771E-02  0.1102618E+00
         21   -1    0    0  501  502  0.00000000000E+00  0.00000000000E+00  0.13315515488E+04  0.13315515488E+04  0.00000000000E+00 0.  1.
         21   -1    0    0  502  503 -0.00000000000E+00 -0.00000000000E+00 -0.65795823361E+02  0.65795823361E+02  0.00000000000E+00 0. -1.
          6    1    1    2  501    0 -0.17665371082E+03  0.10253817455E+03  0.93108991275E+03  0.96880237222E+03  0.17300000000E+03 0. -1.
         -6    1    1    2    0  503  0.17665371082E+03 -0.10253817455E+03  0.33466581264E+03  0.42854499990E+03  0.17300000000E+03 0.  1.
<mgrwt>
<rscale>  2 0.26767445E+03</rscale>
<asrwt>0</asrwt>
<pdfrwt beam="1">  1       21 0.20485406E+00 0.26767445E+03</pdfrwt>
<pdfrwt beam="2">  1       21 0.10122435E-01 0.26767445E+03</pdfrwt>
<totfact> 0.93914202E+03</totfact>
</mgrwt>
</event>
<event>
 4    3  0.4009700E+000  0.2064896E+03  0.7546771E-02  0.1144376E+00
         21   -1    0    0  501  502  0.00000000000E+00  0.00000000000E+00  0.40228623982E+03  0.40228623982E+03  0.00000000000E+00 0.  1.
         21   -1    0    0  502  503 -0.00000000000E+00 -0.00000000000E+00 -0.30340693091E+03  0.30340693091E+03  0.00000000000E+00 0.  1.
          6    1    1    2  501    0  0.45948188115E+02 -0.10294525208E+03  0.33406026512E+03  0.39272665003E+03  0.17300000000E+03 0.  1.
         -6    1    1    2    0  503 -0.45948188115E+02  0.10294525208E+03 -0.23518095620E+03  0.31296652070E+03  0.17300000000E+03 0.  1.
<mgrwt>
<rscale>  2 0.20648961E+03</rscale>
<asrwt>0</asrwt>
<pdfrwt beam="1">  1       21 0.61890191E-01 0.20648961E+03</pdfrwt>
<pdfrwt beam="2">  1       21 0.46677989E-01 0.20648961E+03</pdfrwt>
<totfact> 0.10552192E+04</totfact>
</mgrwt>
</event>
<event>
 4    3  0.4009700E+000  0.2233945E+03  0.7546771E-02  0.1131377E+00
         21   -1    0    0  501  502  0.00000000000E+00  0.00000000000E+00  0.98023624736E+02  0.98023624736E+02  0.00000000000E+00 0.  1.
         21   -1    0    0  502  503 -0.00000000000E+00 -0.00000000000E+00 -0.55701001197E+03  0.55701001197E+03  0.00000000000E+00 0. -1.
          6    1    1    2  501    0 -0.12701628193E+03 -0.61991752559E+02 -0.13345239125E+03  0.26022039503E+03  0.17300000000E+03 0.  1.
         -6    1    1    2    0  503  0.12701628193E+03  0.61991752559E+02 -0.32553399599E+03  0.39481324168E+03  0.17300000000E+03 0. -1.
<mgrwt>
<rscale>  2 0.22339452E+03</rscale>
<asrwt>0</asrwt>
<pdfrwt beam="1">  1       21 0.15080557E-01 0.22339452E+03</pdfrwt>
<pdfrwt beam="2">  1       21 0.85693849E-01 0.22339452E+03</pdfrwt>
<totfact> 0.44997885E+04</totfact>
</mgrwt>
</event>
<event>
 4    3  0.4009700E+000  0.2053164E+03  0.7546771E-02  0.1145330E+00
         21   -1    0    0  501  502  0.00000000000E+00  0.00000000000E+00  0.15159686764E+03  0.15159686764E+03  0.00000000000E+00 0.  1.
         21   -1    0    0  502  503 -0.00000000000E+00 -0.00000000000E+00 -0.84578235563E+03  0.84578235563E+03  0.00000000000E+00 0.  1.
          6    1    1    2  501    0 -0.86220752060E+02 -0.69222855149E+02  0.61475375489E+02  0.21432228898E+03  0.17300000000E+03 0.  1.
         -6    1    1    2    0  503  0.86220752060E+02  0.69222855149E+02 -0.75566086348E+03  0.78305693430E+03  0.17300000000E+03 0.  1.
<mgrwt>
<rscale>  2 0.20531639E+03</rscale>
<asrwt>0</asrwt>
<pdfrwt beam="1">  1       21 0.23322595E-01 0.20531639E+03</pdfrwt>
<pdfrwt beam="2">  1       21 0.13012036E+00 0.20531639E+03</pdfrwt>
<totfact> 0.73827631E+03</totfact>
</mgrwt>
</event>
<event>
 4    3  0.4009700E+000  0.2759480E+03  0.7546771E-02  0.1097923E+00
         21   -1    0    0  501  502  0.00000000000E+00  0.00000000000E+00  0.10901628630E+04  0.10901628630E+04  0.00000000000E+00 0.  1.
         21   -1    0    0  502  503 -0.00000000000E+00 -0.00000000000E+00 -0.70322144344E+02  0.70322144344E+02  0.00000000000E+00 0. -1.
          6    1    1    2  501    0 -0.20996131237E+03  0.46201140282E+02  0.46234910986E+03  0.53843662342E+03  0.17300000000E+03 0. -1.
         -6    1    1    2    0  503  0.20996131237E+03 -0.46201140282E+02  0.55749160875E+03  0.62204838388E+03  0.17300000000E+03 0.  1.
<mgrwt>
<rscale>  2 0.27594800E+03</rscale>
<asrwt>0</asrwt>
<pdfrwt beam="1">  1       21 0.16771735E+00 0.27594800E+03</pdfrwt>
<pdfrwt beam="2">  1       21 0.10818792E-01 0.27594800E+03</pdfrwt>
<totfact> 0.14830422E+04</totfact>
</mgrwt>
</event>
<event>
 4    3  0.4009700E+000  0.2218248E+03  0.7546771E-02  0.1132530E+00
         21   -1    0    0  503  502  0.00000000000E+00  0.00000000000E+00  0.23970780152E+03  0.23970780152E+03  0.00000000000E+00 0.  1.
         21   -1    0    0  501  503 -0.00000000000E+00 -0.00000000000E+00 -0.48426392448E+03  0.48426392448E+03  0.00000000000E+00 0.  1.
          6    1    1    2  501    0  0.35070253467E+02 -0.13434026687E+03 -0.39703163357E+03  0.45479704049E+03  0.17300000000E+03 0.  1.
         -6    1    1    2    0  502 -0.35070253467E+02  0.13434026687E+03  0.15247551062E+03  0.26917468551E+03  0.17300000000E+03 0.  1.
<mgrwt>
<rscale>  2 0.22182477E+03</rscale>
<asrwt>0</asrwt>
<pdfrwt beam="1">  1       21 0.36878124E-01 0.22182477E+03</pdfrwt>
<pdfrwt beam="2">  1       21 0.74502141E-01 0.22182477E+03</pdfrwt>
<totfact> 0.11227659E+04</totfact>
</mgrwt>
</event>
<event>
 4    3  0.4009700E+000  0.1818854E+03  0.7546771E-02  0.1165991E+00
         21   -1    0    0  501  502  0.00000000000E+00  0.00000000000E+00  0.17248105692E+03  0.17248105692E+03  0.00000000000E+00 0. -1.
         21   -1    0    0  502  503 -0.00000000000E+00 -0.00000000000E+00 -0.21755007405E+03  0.21755007405E+03  0.00000000000E+00 0.  1.
          6    1    1    2  501    0 -0.27479288782E+02 -0.48971272988E+02 -0.89624520207E+02  0.20276797457E+03  0.17300000000E+03 0.  1.
         -6    1    1    2    0  503  0.27479288782E+02  0.48971272988E+02  0.44555503078E+02  0.18726315640E+03  0.17300000000E+03 0. -1.
<mgrwt>
<rscale>  2 0.18188539E+03</rscale>
<asrwt>0</asrwt>
<pdfrwt beam="1">  1       21 0.26535547E-01 0.18188539E+03</pdfrwt>
<pdfrwt beam="2">  1       21 0.33469242E-01 0.18188539E+03</pdfrwt>
<totfact> 0.11662249E+05</totfact>
</mgrwt>
</event>
<event>
 4    3  0.4009700E+000  0.1869693E+03  0.7546771E-02  0.1161224E+00
         21   -1    0    0  503  502  0.00000000000E+00  0.00000000000E+00  0.17168594218E+04  0.17168594218E+04  0.00000000000E+00 0.  1.
         21   -1    0    0  501  503 -0.00000000000E+00 -0.00000000000E+00 -0.26413169051E+02  0.26413169051E+02  0.00000000000E+00 0.  1.
          6    1    1    2  501    0  0.59806541740E+02  0.38101050499E+02  0.42799907427E+03  0.46705537151E+03  0.17300000000E+03 0.  1.
         -6    1    1    2    0  502 -0.59806541740E+02 -0.38101050499E+02  0.12624471785E+04  0.12762172193E+04  0.17300000000E+03 0.  1.
<mgrwt>
<rscale>  2 0.18696928E+03</rscale>
<asrwt>0</asrwt>
<pdfrwt beam="1">  1       21 0.26413213E+00 0.18696928E+03</pdfrwt>
<pdfrwt beam="2">  1       21 0.40635658E-02 0.18696928E+03</pdfrwt>
<totfact> 0.21090949E+04</totfact>
</mgrwt>
</event>
<event>
 4    3  0.4009700E+000  0.3346416E+03  0.7546771E-02  0.1069101E+00
         21   -1    0    0  503  502  0.00000000000E+00  0.00000000000E+00  0.11414269130E+04  0.11414269130E+04  0.00000000000E+00 0. -1.
         21   -1    0    0  501  503 -0.00000000000E+00 -0.00000000000E+00 -0.98578858428E+02  0.98578858428E+02  0.00000000000E+00 0. -1.
          6    1    1    2  501    0 -0.27131625827E+03 -0.91888411701E+02  0.56419861428E+03  0.65597642379E+03  0.17300000000E+03 0. -1.
         -6    1    1    2    0  502  0.27131625827E+03  0.91888411701E+02  0.47864944026E+03  0.58402934761E+03  0.17300000000E+03 0. -1.
<mgrwt>
<rscale>  2 0.33464159E+03</rscale>
<asrwt>0</asrwt>
<pdfrwt beam="1">  1       21 0.17560413E+00 0.33464159E+03</pdfrwt>
<pdfrwt beam="2">  1       21 0.15165979E-01 0.33464159E+03</pdfrwt>
<totfact> 0.68458781E+03</totfact>
</mgrwt>
</event>
<event>
 4    3  0.4009700E+000  0.1805201E+03  0.7546771E-02  0.1167301E+00
         21   -1    0    0  503  502  0.00000000000E+00  0.00000000000E+00  0.15869654251E+04  0.15869654251E+04  0.00000000000E+00 0. -1.
         21   -1    0    0  501  503 -0.00000000000E+00 -0.00000000000E+00 -0.23950811476E+02  0.23950811476E+02  0.00000000000E+00 0. -1.
          6    1    1    2  501    0  0.21939077987E+02 -0.46660225691E+02  0.47730447831E+03  0.51030095514E+03  0.17300000000E+03 0. -1.
         -6    1    1    2    0  502 -0.21939077987E+02  0.46660225691E+02  0.10857101354E+04  0.11006152815E+04  0.17300000000E+03 0. -1.
<mgrwt>
<rscale>  2 0.18052008E+03</rscale>
<asrwt>0</asrwt>
<pdfrwt beam="1">  1       21 0.24414844E+00 0.18052008E+03</pdfrwt>
<pdfrwt beam="2">  1       21 0.36847415E-02 0.18052008E+03</pdfrwt>
<totfact> 0.32687969E+04</totfact>
</mgrwt>
</event>
<event>
 4    3  0.4009700E+000  0.2194324E+03  0.7546771E-02  0.1134307E+00
         21   -1    0    0  501  502  0.00000000000E+00  0.00000000000E+00  0.62540497778E+02  0.62540497778E+02  0.00000000000E+00 0. -1.
         21   -1    0    0  502  503 -0.00000000000E+00 -0.00000000000E+00 -0.79684547478E+03  0.79684547478E+03  0.00000000000E+00 0. -1.
          6    1    1    2  501    0 -0.13283164375E+03  0.24027794366E+02 -0.28815192370E+03  0.36219071167E+03  0.17300000000E+03 0. -1.
         -6    1    1    2    0  503  0.13283164375E+03 -0.24027794366E+02 -0.44615305330E+03  0.49719526089E+03  0.17300000000E+03 0. -1.
<mgrwt>
<rscale>  2 0.21943241E+03</rscale>
<asrwt>0</asrwt>
<pdfrwt beam="1">  1       21 0.96216158E-02 0.21943241E+03</pdfrwt>
<pdfrwt beam="2">  1       21 0.12259160E+00 0.21943241E+03</pdfrwt>
<totfact> 0.42876851E+04</totfact>
</mgrwt>
</event>
<event>
 4    3  0.4009700E+000  0.2168889E+03  0.7546771E-02  0.1136224E+00
         21   -1    0    0  503  502  0.00000000000E+00  0.00000000000E+00  0.51957406170E+02  0.51957406170E+02  0.00000000000E+00 0.  1.
         21   -1    0    0  501  503 -0.00000000000E+00 -0.00000000000E+00 -0.92171019198E+03  0.92171019198E+03  0.00000000000E+00 0.  1.
          6    1    1    2  501    0  0.48150399017E+02 -0.12162788571E+03 -0.49969201600E+03  0.54473196561E+03  0.17300000000E+03 0.  1.
         -6    1    1    2    0  502 -0.48150399017E+02  0.12162788571E+03 -0.37006076981E+03  0.42893563254E+03  0.17300000000E+03 0.  1.
<mgrwt>
<rscale>  2 0.21688892E+03</rscale>
<asrwt>0</asrwt>
<pdfrwt beam="1">  1       21 0.79934476E-02 0.21688892E+03</pdfrwt>
<pdfrwt beam="2">  1       21 0.14180156E+00 0.21688892E+03</pdfrwt>
<totfact> 0.41034594E+04</totfact>
</mgrwt>
</event>
<event>
 4    3  0.4009700E+000  0.1860345E+03  0.7546771E-02  0.1162087E+00
         21   -1    0    0  503  502  0.00000000000E+00  0.00000000000E+00  0.13335732330E+04  0.13335732330E+04  0.00000000000E+00 0. -1.
         21   -1    0    0  501  503 -0.00000000000E+00 -0.00000000000E+00 -0.28338067853E+02  0.28338067853E+02  0.00000000000E+00 0. -1.
          6    1    1    2  501    0  0.56256708092E+02  0.38923318701E+02  0.45502139650E+03  0.49158245821E+03  0.17300000000E+03 0.  1.
         -6    1    1    2    0  502 -0.56256708092E+02 -0.38923318701E+02  0.85021376865E+03  0.87032884265E+03  0.17300000000E+03 0.  1.
<mgrwt>
<rscale>  2 0.18603452E+03</rscale>
<asrwt>0</asrwt>
<pdfrwt beam="1">  1       21 0.20516506E+00 0.18603452E+03</pdfrwt>
<pdfrwt beam="2">  1       21 0.43597038E-02 0.18603452E+03</pdfrwt>
<totfact> 0.42394240E+04</totfact>
</mgrwt>
</event>
<event>
 4    3  0.4009700E+000  0.1814974E+03  0.7546771E-02  0.1166362E+00
         21   -1    0    0  501  502  0.00000000000E+00  0.00000000000E+00  0.24342372539E+03  0.24342372539E+03  0.00000000000E+00 0.  1.
         21   -1    0    0  502  503 -0.00000000000E+00 -0.00000000000E+00 -0.23949624007E+03  0.23949624007E+03  0.00000000000E+00 0.  1.
          6    1    1    2  501    0 -0.32896858803E+02  0.43932911550E+02  0.16121021913E+03  0.24275510043E+03  0.17300000000E+03 0.  1.
         -6    1    1    2    0  503  0.32896858803E+02 -0.43932911550E+02 -0.15728273381E+03  0.24016486502E+03  0.17300000000E+03 0.  1.
<mgrwt>
<rscale>  2 0.18149739E+03</rscale>
<asrwt>0</asrwt>
<pdfrwt beam="1">  1       21 0.37449804E-01 0.18149739E+03</pdfrwt>
<pdfrwt beam="2">  1       21 0.36845575E-01 0.18149739E+03</pdfrwt>
<totfact> 0.49108861E+04</totfact>
</mgrwt>
</event>
<event>
 4    3  0.4009700E+000  0.2291639E+03  0.7546771E-02  0.1127230E+00
         21   -1    0    0  501  502  0.00000000000E+00  0.00000000000E+00  0.52333286754E+03  0.52333286754E+03  0.00000000000E+00 0.  1.
         21   -1    0    0  502  503 -0.00000000000E+00 -0.00000000000E+00 -0.14869450140E+03  0.14869450140E+03  0.00000000000E+00 0.  1.
          6    1    1    2  501    0  0.14770654186E+03 -0.27746633384E+02  0.37891503427E+03  0.44282355557E+03  0.17300000000E+03 0.  1.
         -6    1    1    2    0  503 -0.14770654186E+03  0.27746633384E+02 -0.42766681244E+01  0.22920381337E+03  0.17300000000E+03 0.  1.
<mgrwt>
<rscale>  2 0.22916391E+03</rscale>
<asrwt>0</asrwt>
<pdfrwt beam="1">  1       21 0.80512748E-01 0.22916391E+03</pdfrwt>
<pdfrwt beam="2">  1       21 0.22876077E-01 0.22916391E+03</pdfrwt>
<totfact> 0.23815831E+04</totfact>
</mgrwt>
</event>
<event>
 4    3  0.4009700E+000  0.1794190E+03  0.7546771E-02  0.1168366E+00
         21   -1    0    0  501  502  0.00000000000E+00  0.00000000000E+00  0.46391822710E+03  0.46391822710E+03  0.00000000000E+00 0.  1.
         21   -1    0    0  502  503 -0.00000000000E+00 -0.00000000000E+00 -0.73160902039E+02  0.73160902039E+02  0.00000000000E+00 0.  1.
          6    1    1    2  501    0  0.32048284998E+02 -0.35144006696E+02  0.25634678196E+03  0.31289753339E+03  0.17300000000E+03 0.  1.
         -6    1    1    2    0  503 -0.32048284998E+02  0.35144006696E+02  0.13441054310E+03  0.22418159576E+03  0.17300000000E+03 0.  1.
<mgrwt>
<rscale>  2 0.17941905E+03</rscale>
<asrwt>0</asrwt>
<pdfrwt beam="1">  1       21 0.71372033E-01 0.17941905E+03</pdfrwt>
<pdfrwt beam="2">  1       21 0.11255524E-01 0.17941905E+03</pdfrwt>
<totfact> 0.11735655E+05</totfact>
</mgrwt>
</event>
<event>
 4    3  0.4009700E+000  0.1989554E+03  0.7546771E-02  0.1150623E+00
         21   -1    0    0  501  502  0.00000000000E+00  0.00000000000E+00  0.57233886315E+03  0.57233886315E+03  0.00000000000E+00 0. -1.
         21   -1    0    0  502  503 -0.00000000000E+00 -0.00000000000E+00 -0.85032826001E+02  0.85032826001E+02  0.00000000000E+00 0. -1.
          6    1    1    2  501    0 -0.97824435489E+02  0.91993529005E+01  0.10164664707E+03  0.22341729820E+03  0.17300000000E+03 0. -1.
         -6    1    1    2    0  503  0.97824435489E+02 -0.91993529005E+01  0.38565939008E+03  0.43395439096E+03  0.17300000000E+03 0. -1.
<mgrwt>
<rscale>  2 0.19895539E+03</rscale>
<asrwt>0</asrwt>
<pdfrwt beam="1">  1       21 0.88052130E-01 0.19895539E+03</pdfrwt>
<pdfrwt beam="2">  1       21 0.13081974E-01 0.19895539E+03</pdfrwt>
<totfact> 0.55365400E+04</totfact>
</mgrwt>
</event>
<event>
 4    3  0.4009700E+000  0.2056229E+03  0.7546771E-02  0.1145080E+00
         21   -1    0    0  501  502  0.00000000000E+00  0.00000000000E+00  0.22867563788E+03  0.22867563788E+03  0.00000000000E+00 0. -1.
         21   -1    0    0  502  503 -0.00000000000E+00 -0.00000000000E+00 -0.18752960646E+03  0.18752960646E+03  0.00000000000E+00 0. -1.
          6    1    1    2  501    0  0.66665968172E+02  0.88923706064E+02 -0.40972867436E+01  0.20566371720E+03  0.17300000000E+03 0. -1.
         -6    1    1    2    0  503 -0.66665968172E+02 -0.88923706064E+02  0.45243318170E+02  0.21054152714E+03  0.17300000000E+03 0. -1.
<mgrwt>
<rscale>  2 0.20562290E+03</rscale>
<asrwt>0</asrwt>
<pdfrwt beam="1">  1       21 0.35180867E-01 0.20562290E+03</pdfrwt>
<pdfrwt beam="2">  1       21 0.28850709E-01 0.20562290E+03</pdfrwt>
<totfact> 0.89073358E+04</totfact>
</mgrwt>
</event>
<event>
 4    3  0.4009700E+000  0.1811096E+03  0.7546771E-02  0.1166734E+00
         21   -1    0    0  501  502  0.00000000000E+00  0.00000000000E+00  0.62376883993E+03  0.62376883993E+03  0.00000000000E+00 0.  1.
         21   -1    0    0  502  503 -0.00000000000E+00 -0.00000000000E+00 -0.87067998042E+02  0.87067998042E+02  0.00000000000E+00 0.  1.
          6    1    1    2  501    0 -0.45596313874E+02 -0.28153995993E+02  0.49202432161E+03  0.52429820177E+03  0.17300000000E+03 0.  1.
         -6    1    1    2    0  503  0.45596313874E+02  0.28153995993E+02  0.44676520276E+02  0.18653863619E+03  0.17300000000E+03 0.  1.
<mgrwt>
<rscale>  2 0.18110956E+03</rscale>
<asrwt>0</asrwt>
<pdfrwt beam="1">  1       21 0.95964434E-01 0.18110956E+03</pdfrwt>
<pdfrwt beam="2">  1       21 0.13395077E-01 0.18110956E+03</pdfrwt>
<totfact> 0.43827761E+04</totfact>
</mgrwt>
</event>
<event>
 4    3  0.4009700E+000  0.2188951E+03  0.7546771E-02  0.1134709E+00
         21   -1    0    0  501  502  0.00000000000E+00  0.00000000000E+00  0.21456126754E+03  0.21456126754E+03  0.00000000000E+00 0. -1.
         21   -1    0    0  502  503 -0.00000000000E+00 -0.00000000000E+00 -0.23637525009E+03  0.23637525009E+03  0.00000000000E+00 0. -1.
          6    1    1    2  501    0  0.75114199422E+02  0.11110317796E+03 -0.63902145552E+02  0.22803189100E+03  0.17300000000E+03 0. -1.
         -6    1    1    2    0  503 -0.75114199422E+02 -0.11110317796E+03  0.42088163007E+02  0.22290462663E+03  0.17300000000E+03 0. -1.
<mgrwt>
<rscale>  2 0.21889509E+03</rscale>
<asrwt>0</asrwt>
<pdfrwt beam="1">  1       21 0.33009426E-01 0.21889509E+03</pdfrwt>
<pdfrwt beam="2">  1       21 0.36365423E-01 0.21889509E+03</pdfrwt>
<totfact> 0.63684366E+04</totfact>
</mgrwt>
</event>
<event>
 4    3  0.4009700E+000  0.2120645E+03  0.7546771E-02  0.1139941E+00
         21   -1    0    0  503  502  0.00000000000E+00  0.00000000000E+00  0.54350725264E+03  0.54350725264E+03  0.00000000000E+00 0. -1.
         21   -1    0    0  501  503 -0.00000000000E+00 -0.00000000000E+00 -0.92387255053E+02  0.92387255053E+02  0.00000000000E+00 0.  1.
          6    1    1    2  501    0 -0.10019552718E+03 -0.70733425409E+02  0.12283270355E+03  0.24506985576E+03  0.17300000000E+03 0.  1.
         -6    1    1    2    0  502  0.10019552718E+03  0.70733425409E+02  0.32828729403E+03  0.39082465193E+03  0.17300000000E+03 0.  1.
<mgrwt>
<rscale>  2 0.21206452E+03</rscale>
<asrwt>0</asrwt>
<pdfrwt beam="1">  1       21 0.83616498E-01 0.21206452E+03</pdfrwt>
<pdfrwt beam="2">  1       21 0.14213424E-01 0.21206452E+03</pdfrwt>
<totfact> 0.53311360E+04</totfact>
</mgrwt>
</event>
<event>
 4    3  0.4009700E+000  0.2347604E+03  0.7546771E-02  0.1123333E+00
         21   -1    0    0  503  502  0.00000000000E+00  0.00000000000E+00  0.18144031942E+03  0.18144031942E+03  0.00000000000E+00 0.  1.
         21   -1    0    0  501  503 -0.00000000000E+00 -0.00000000000E+00 -0.30484954452E+03  0.30484954452E+03  0.00000000000E+00 0.  1.
          6    1    1    2  501    0  0.11764889764E+03  0.10649975450E+03 -0.76308492461E+02  0.24685106207E+03  0.17300000000E+03 0.  1.
         -6    1    1    2    0  502 -0.11764889764E+03 -0.10649975450E+03 -0.47100732634E+02  0.23943880187E+03  0.17300000000E+03 0.  1.
<mgrwt>
<rscale>  2 0.23476043E+03</rscale>
<asrwt>0</asrwt>
<pdfrwt beam="1">  1       21 0.27913896E-01 0.23476043E+03</pdfrwt>
<pdfrwt beam="2">  1       21 0.46899929E-01 0.23476043E+03</pdfrwt>
<totfact> 0.52325944E+04</totfact>
</mgrwt>
</event>
<event>
 4    3  0.4009700E+000  0.2187898E+03  0.7546771E-02  0.1134788E+00
         21   -1    0    0  503  502  0.00000000000E+00  0.00000000000E+00  0.88526762610E+03  0.88526762610E+03  0.00000000000E+00 0.  1.
         21   -1    0    0  501  503 -0.00000000000E+00 -0.00000000000E+00 -0.62713666497E+02  0.62713666497E+02  0.00000000000E+00 0.  1.
          6    1    1    2  501    0  0.12678659537E+03  0.43187424016E+02  0.23533696495E+03  0.32132924148E+03  0.17300000000E+03 0.  1.
         -6    1    1    2    0  502 -0.12678659537E+03 -0.43187424016E+02  0.58721699465E+03  0.62665205111E+03  0.17300000000E+03 0.  1.
<mgrwt>
<rscale>  2 0.21878984E+03</rscale>
<asrwt>0</asrwt>
<pdfrwt beam="1">  1       21 0.13619501E+00 0.21878984E+03</pdfrwt>
<pdfrwt beam="2">  1       21 0.96482570E-02 0.21878984E+03</pdfrwt>
<totfact> 0.32700739E+04</totfact>
</mgrwt>
</event>
<event>
 4    3  0.4009700E+000  0.2479093E+03  0.7546771E-02  0.1114633E+00
         21   -1    0    0  501  502  0.00000000000E+00  0.00000000000E+00  0.79334943523E+02  0.79334943523E+02  0.00000000000E+00 0. -1.
         21   -1    0    0  502  503 -0.00000000000E+00 -0.00000000000E+00 -0.12168483015E+04  0.12168483015E+04  0.00000000000E+00 0. -1.
          6    1    1    2  501    0  0.97558747589E+02 -0.14836553914E+03 -0.17808410074E+03  0.30524250912E+03  0.17300000000E+03 0. -1.
         -6    1    1    2    0  503 -0.97558747589E+02  0.14836553914E+03 -0.95942925725E+03  0.99094073592E+03  0.17300000000E+03 0. -1.
<mgrwt>
<rscale>  2 0.24790934E+03</rscale>
<asrwt>0</asrwt>
<pdfrwt beam="1">  1       21 0.12205378E-01 0.24790934E+03</pdfrwt>
<pdfrwt beam="2">  1       21 0.18720741E+00 0.24790934E+03</pdfrwt>
<totfact> 0.88878495E+03</totfact>
</mgrwt>
</event>
<event>
 4    3  0.4009700E+000  0.1763895E+03  0.7546771E-02  0.1171344E+00
         21   -1    0    0  503  502  0.00000000000E+00  0.00000000000E+00  0.84195759122E+02  0.84195759122E+02  0.00000000000E+00 0. -1.
         21   -1    0    0  501  503 -0.00000000000E+00 -0.00000000000E+00 -0.78179705048E+03  0.78179705048E+03  0.00000000000E+00 0. -1.
          6    1    1    2  501    0 -0.12052384042E+02  0.32233273115E+02 -0.34370496877E+02  0.17970691392E+03  0.17300000000E+03 0. -1.
         -6    1    1    2    0  502  0.12052384042E+02 -0.32233273115E+02 -0.66323079448E+03  0.68628589568E+03  0.17300000000E+03 0. -1.
<mgrwt>
<rscale>  2 0.17638947E+03</rscale>
<asrwt>0</asrwt>
<pdfrwt beam="1">  1       21 0.12953194E-01 0.17638947E+03</pdfrwt>
<pdfrwt beam="2">  1       21 0.12027647E+00 0.17638947E+03</pdfrwt>
<totfact> 0.27129728E+04</totfact>
</mgrwt>
</event>
<event>
 4    3  0.4009700E+000  0.3278577E+03  0.7546771E-02  0.1072089E+00
         21   -1    0    0  501  502  0.00000000000E+00  0.00000000000E+00  0.34129171356E+03  0.34129171356E+03  0.00000000000E+00 0.  1.
         21   -1    0    0  502  503 -0.00000000000E+00 -0.00000000000E+00 -0.11117857667E+04  0.11117857667E+04  0.00000000000E+00 0. -1.
          6    1    1    2  501    0 -0.27309437333E+03 -0.54599930599E+02  0.22983344901E+03  0.40039243681E+03  0.17300000000E+03 0.  1.
         -6    1    1    2    0  503  0.27309437333E+03  0.54599930599E+02 -0.10003275021E+04  0.10526850434E+04  0.17300000000E+03 0. -1.
<mgrwt>
<rscale>  2 0.32785773E+03</rscale>
<asrwt>0</asrwt>
<pdfrwt beam="1">  1       21 0.52506417E-01 0.32785773E+03</pdfrwt>
<pdfrwt beam="2">  1       21 0.17104396E+00 0.32785773E+03</pdfrwt>
<totfact> 0.64245355E+02</totfact>
</mgrwt>
</event>
<event>
 4    3  0.4009700E+000  0.2237609E+03  0.7546771E-02  0.1131110E+00
         21   -1    0    0  503  502  0.00000000000E+00  0.00000000000E+00  0.47112849489E+03  0.47112849489E+03  0.00000000000E+00 0. -1.
         21   -1    0    0  501  503 -0.00000000000E+00 -0.00000000000E+00 -0.15460869764E+03  0.15460869764E+03  0.00000000000E+00 0. -1.
          6    1    1    2  501    0  0.10264838516E+03 -0.97996274059E+02 -0.16673253566E+02  0.22438127838E+03  0.17300000000E+03 0. -1.
         -6    1    1    2    0  502 -0.10264838516E+03  0.97996274059E+02  0.33319305082E+03  0.40135591415E+03  0.17300000000E+03 0. -1.
<mgrwt>
<rscale>  2 0.22376095E+03</rscale>
<asrwt>0</asrwt>
<pdfrwt beam="1">  1       21 0.72481306E-01 0.22376095E+03</pdfrwt>
<pdfrwt beam="2">  1       21 0.23785954E-01 0.22376095E+03</pdfrwt>
<totfact> 0.28089126E+04</totfact>
</mgrwt>
</event>
<event>
 4    3  0.4009700E+000  0.1965322E+03  0.7546771E-02  0.1152698E+00
         21   -1    0    0  503  502  0.00000000000E+00  0.00000000000E+00  0.30712929760E+03  0.30712929760E+03  0.00000000000E+00 0. -1.
         21   -1    0    0  501  503 -0.00000000000E+00 -0.00000000000E+00 -0.19745006541E+03  0.19745006541E+03  0.00000000000E+00 0.  1.
          6    1    1    2  501    0  0.84831674098E+02 -0.38723198522E+02 -0.97179146813E+02  0.21924571971E+03  0.17300000000E+03 0.  1.
         -6    1    1    2    0  502 -0.84831674098E+02  0.38723198522E+02  0.20685837900E+03  0.28533364330E+03  0.17300000000E+03 0. -1.
<mgrwt>
<rscale>  2 0.19653218E+03</rscale>
<asrwt>0</asrwt>
<pdfrwt beam="1">  1       21 0.47250662E-01 0.19653218E+03</pdfrwt>
<pdfrwt beam="2">  1       21 0.30376933E-01 0.19653218E+03</pdfrwt>
<totfact> 0.44480119E+04</totfact>
</mgrwt>
</event>
<event>
 4    3  0.4009700E+000  0.1905119E+03  0.7546771E-02  0.1158000E+00
         21   -1    0    0  503  502  0.00000000000E+00  0.00000000000E+00  0.94239518600E+02  0.94239518600E+02  0.00000000000E+00 0.  1.
         21   -1    0    0  501  503 -0.00000000000E+00 -0.00000000000E+00 -0.40659666754E+03  0.40659666754E+03  0.00000000000E+00 0.  1.
          6    1    1    2  501    0 -0.70170791365E+02 -0.37971507885E+02 -0.21371367550E+03  0.28630108359E+03  0.17300000000E+03 0.  1.
         -6    1    1    2    0  502  0.70170791365E+02  0.37971507885E+02 -0.98643473439E+02  0.21453510254E+03  0.17300000000E+03 0.  1.
<mgrwt>
<rscale>  2 0.19051188E+03</rscale>
<asrwt>0</asrwt>
<pdfrwt beam="1">  1       21 0.14498388E-01 0.19051188E+03</pdfrwt>
<pdfrwt beam="2">  1       21 0.62553333E-01 0.19051188E+03</pdfrwt>
<totfact> 0.98931292E+04</totfact>
</mgrwt>
</event>
<event>
 4    3  0.4009700E+000  0.1853294E+03  0.7546771E-02  0.1162743E+00
         21   -1    0    0  503  502  0.00000000000E+00  0.00000000000E+00  0.94917971261E+03  0.94917971261E+03  0.00000000000E+00 0.  1.
         21   -1    0    0  501  503 -0.00000000000E+00 -0.00000000000E+00 -0.64141542702E+02  0.64141542702E+02  0.00000000000E+00 0.  1.
          6    1    1    2  501    0 -0.64150054967E+02 -0.17399873353E+02  0.10803020722E+03  0.21451692432E+03  0.17300000000E+03 0.  1.
         -6    1    1    2    0  502  0.64150054967E+02  0.17399873353E+02  0.77700796269E+03  0.79880433100E+03  0.17300000000E+03 0.  1.
<mgrwt>
<rscale>  2 0.18532940E+03</rscale>
<asrwt>0</asrwt>
<pdfrwt beam="1">  1       21 0.14602764E+00 0.18532940E+03</pdfrwt>
<pdfrwt beam="2">  1       21 0.98679304E-02 0.18532940E+03</pdfrwt>
<totfact> 0.26764352E+04</totfact>
</mgrwt>
</event>
<event>
 4    3  0.4009700E+000  0.2910304E+03  0.7546771E-02  0.1089812E+00
         21   -1    0    0  503  502  0.00000000000E+00  0.00000000000E+00  0.11136591158E+03  0.11136591158E+03  0.00000000000E+00 0.  1.
         21   -1    0    0  501  503 -0.00000000000E+00 -0.00000000000E+00 -0.77867644715E+03  0.77867644715E+03  0.00000000000E+00 0. -1.
          6    1    1    2  501    0  0.16352518118E+03 -0.16741917450E+03 -0.40156492719E+03  0.49593654395E+03  0.17300000000E+03 0. -1.
         -6    1    1    2    0  502 -0.16352518118E+03  0.16741917450E+03 -0.26574560838E+03  0.39410581478E+03  0.17300000000E+03 0.  1.
<mgrwt>
<rscale>  2 0.29103035E+03</rscale>
<asrwt>0</asrwt>
<pdfrwt beam="1">  1       21 0.17133217E-01 0.29103035E+03</pdfrwt>
<pdfrwt beam="2">  1       21 0.11979637E+00 0.29103035E+03</pdfrwt>
<totfact> 0.15438111E+04</totfact>
</mgrwt>
</event>
<event>
 4    3  0.4009700E+000  0.2229567E+03  0.7546771E-02  0.1131698E+00
         21   -1    0    0  501  502  0.00000000000E+00  0.00000000000E+00  0.39962366555E+03  0.39962366555E+03  0.00000000000E+00 0. -1.
         21   -1    0    0  502  503 -0.00000000000E+00 -0.00000000000E+00 -0.22393675891E+03  0.22393675891E+03  0.00000000000E+00 0.  1.
          6    1    1    2  501    0 -0.24601873786E+02  0.13847545587E+03  0.29571574225E+03  0.37034781528E+03  0.17300000000E+03 0. -1.
         -6    1    1    2    0  503  0.24601873786E+02 -0.13847545587E+03 -0.12002883560E+03  0.25321260918E+03  0.17300000000E+03 0.  1.
<mgrwt>
<rscale>  2 0.22295673E+03</rscale>
<asrwt>0</asrwt>
<pdfrwt beam="1">  1       21 0.61480564E-01 0.22295673E+03</pdfrwt>
<pdfrwt beam="2">  1       21 0.34451809E-01 0.22295673E+03</pdfrwt>
<totfact> 0.19615058E+04</totfact>
</mgrwt>
</event>
<event>
 4    3  0.4009700E+000  0.1838147E+03  0.7546771E-02  0.1164161E+00
         21   -1    0    0  501  502  0.00000000000E+00  0.00000000000E+00  0.20764979946E+03  0.20764979946E+03  0.00000000000E+00 0.  1.
         21   -1    0    0  502  503 -0.00000000000E+00 -0.00000000000E+00 -0.27015000819E+03  0.27015000819E+03  0.00000000000E+00 0.  1.
          6    1    1    2  501    0  0.21761219245E+02 -0.58183234172E+02  0.11940553658E+03  0.21919288667E+03  0.17300000000E+03 0.  1.
         -6    1    1    2    0  503 -0.21761219245E+02  0.58183234172E+02 -0.18190574531E+03  0.25860692098E+03  0.17300000000E+03 0.  1.
<mgrwt>
<rscale>  2 0.18381469E+03</rscale>
<asrwt>0</asrwt>
<pdfrwt beam="1">  1       21 0.31946123E-01 0.18381469E+03</pdfrwt>
<pdfrwt beam="2">  1       21 0.41561540E-01 0.18381469E+03</pdfrwt>
<totfact> 0.52738836E+04</totfact>
</mgrwt>
</event>
<event>
 4    3  0.4009700E+000  0.1955530E+03  0.7546771E-02  0.1153546E+00
         21   -1    0    0  501  502  0.00000000000E+00  0.00000000000E+00  0.22687388165E+03  0.22687388165E+03  0.00000000000E+00 0. -1.
         21   -1    0    0  502  503 -0.00000000000E+00 -0.00000000000E+00 -0.56038238521E+03  0.56038238521E+03  0.00000000000E+00 0.  1.
          6    1    1    2  501    0 -0.81505381644E+02  0.40851735558E+02  0.16239330839E+03  0.25419004336E+03  0.17300000000E+03 0. -1.
         -6    1    1    2    0  503  0.81505381644E+02 -0.40851735558E+02 -0.49590181195E+03  0.53306622350E+03  0.17300000000E+03 0.  1.
<mgrwt>
<rscale>  2 0.19555304E+03</rscale>
<asrwt>0</asrwt>
<pdfrwt beam="1">  1       21 0.34903674E-01 0.19555304E+03</pdfrwt>
<pdfrwt beam="2">  1       21 0.86212674E-01 0.19555304E+03</pdfrwt>
<totfact> 0.91598704E+03</totfact>
</mgrwt>
</event>
<event>
 4    3  0.4009700E+000  0.1960761E+03  0.7546771E-02  0.1153092E+00
         21   -1    0    0  501  502  0.00000000000E+00  0.00000000000E+00  0.57742644721E+03  0.57742644721E+03  0.00000000000E+00 0. -1.
         21   -1    0    0  502  503 -0.00000000000E+00 -0.00000000000E+00 -0.66631941476E+02  0.66631941476E+02  0.00000000000E+00 0. -1.
          6    1    1    2  501    0 -0.68926530719E+02 -0.61367613278E+02  0.24652656608E+03  0.31499396563E+03  0.17300000000E+03 0. -1.
         -6    1    1    2    0  503  0.68926530719E+02  0.61367613278E+02  0.26426793965E+03  0.32906442306E+03  0.17300000000E+03 0. -1.
<mgrwt>
<rscale>  2 0.19607613E+03</rscale>
<asrwt>0</asrwt>
<pdfrwt beam="1">  1       21 0.88834835E-01 0.19607613E+03</pdfrwt>
<pdfrwt beam="2">  1       21 0.10251068E-01 0.19607613E+03</pdfrwt>
<totfact> 0.83962195E+04</totfact>
</mgrwt>
</event>
<event>
 4    3  0.4009700E+000  0.2083331E+03  0.7546771E-02  0.1142893E+00
         21   -1    0    0  503  502  0.00000000000E+00  0.00000000000E+00  0.38353604778E+03  0.38353604778E+03  0.00000000000E+00 0. -1.
         21   -1    0    0  501  503 -0.00000000000E+00 -0.00000000000E+00 -0.15080669755E+03  0.15080669755E+03  0.00000000000E+00 0. -1.
          6    1    1    2  501    0 -0.10809067749E+03 -0.42309506083E+02 -0.17115489619E+02  0.20903499432E+03  0.17300000000E+03 0. -1.
         -6    1    1    2    0  502  0.10809067749E+03  0.42309506083E+02  0.24984483986E+03  0.32530775101E+03  0.17300000000E+03 0. -1.
<mgrwt>
<rscale>  2 0.20833312E+03</rscale>
<asrwt>0</asrwt>
<pdfrwt beam="1">  1       21 0.59005546E-01 0.20833312E+03</pdfrwt>
<pdfrwt beam="2">  1       21 0.23201030E-01 0.20833312E+03</pdfrwt>
<totfact> 0.46525319E+04</totfact>
</mgrwt>
</event>
<event>
 4    3  0.4009700E+000  0.2125443E+03  0.7546771E-02  0.1139567E+00
         21   -1    0    0  503  502  0.00000000000E+00  0.00000000000E+00  0.82755383931E+03  0.82755383931E+03  0.00000000000E+00 0. -1.
         21   -1    0    0  501  503 -0.00000000000E+00 -0.00000000000E+00 -0.54604479986E+02  0.54604479986E+02  0.00000000000E+00 0. -1.
          6    1    1    2  501    0  0.21293825199E+02 -0.12162512621E+03  0.37897938777E+03  0.43451176586E+03  0.17300000000E+03 0. -1.
         -6    1    1    2    0  502 -0.21293825199E+02  0.12162512621E+03  0.39396997156E+03  0.44764655344E+03  0.17300000000E+03 0. -1.
<mgrwt>
<rscale>  2 0.21254434E+03</rscale>
<asrwt>0</asrwt>
<pdfrwt beam="1">  1       21 0.12731597E+00 0.21254434E+03</pdfrwt>
<pdfrwt beam="2">  1       21 0.84006898E-02 0.21254434E+03</pdfrwt>
<totfact> 0.49675138E+04</totfact>
</mgrwt>
</event>
<event>
 4    3  0.4009700E+000  0.2220237E+03  0.7546771E-02  0.1132383E+00
         21   -1    0    0  503  502  0.00000000000E+00  0.00000000000E+00  0.77255119517E+03  0.77255119517E+03  0.00000000000E+00 0. -1.
         21   -1    0    0  501  503 -0.00000000000E+00 -0.00000000000E+00 -0.64478419684E+02  0.64478419684E+02  0.00000000000E+00 0.  1.
          6    1    1    2  501    0  0.13782332863E+03 -0.19241904274E+02  0.31134350426E+03  0.38239939649E+03  0.17300000000E+03 0.  1.
         -6    1    1    2    0  502 -0.13782332863E+03  0.19241904274E+02  0.39672927123E+03  0.45463021836E+03  0.17300000000E+03 0. -1.
<mgrwt>
<rscale>  2 0.22202369E+03</rscale>
<asrwt>0</asrwt>
<pdfrwt beam="1">  1       21 0.11885402E+00 0.22202369E+03</pdfrwt>
<pdfrwt beam="2">  1       21 0.99197574E-02 0.22202369E+03</pdfrwt>
<totfact> 0.43828369E+04</totfact>
</mgrwt>
</event>
<event>
 4    3  0.4009700E+000  0.2019787E+03  0.7546771E-02  0.1148080E+00
         21   -1    0    0  501  502  0.00000000000E+00  0.00000000000E+00  0.15865054161E+03  0.15865054161E+03  0.00000000000E+00 0. -1.
         21   -1    0    0  502  503 -0.00000000000E+00 -0.00000000000E+00 -0.25871789360E+03  0.25871789360E+03  0.00000000000E+00 0.  1.
          6    1    1    2  501    0 -0.54664302934E+02  0.88759216815E+02 -0.66331470333E+02  0.21259174147E+03  0.17300000000E+03 0.  1.
         -6    1    1    2    0  503  0.54664302934E+02 -0.88759216815E+02 -0.33735881657E+02  0.20477669373E+03  0.17300000000E+03 0.  1.
<mgrwt>
<rscale>  2 0.20197867E+03</rscale>
<asrwt>0</asrwt>
<pdfrwt beam="1">  1       21 0.24407776E-01 0.20197867E+03</pdfrwt>
<pdfrwt beam="2">  1       21 0.39802753E-01 0.20197867E+03</pdfrwt>
<totfact> 0.96096398E+04</totfact>
</mgrwt>
</event>
<event>
 4    3  0.4009700E+000  0.2105336E+03  0.7546771E-02  0.1141144E+00
         21   -1    0    0  501  502  0.00000000000E+00  0.00000000000E+00  0.11483484902E+04  0.11483484902E+04  0.00000000000E+00 0.  1.
         21   -1    0    0  502  503 -0.00000000000E+00 -0.00000000000E+00 -0.87535480241E+02  0.87535480241E+02  0.00000000000E+00 0.  1.
          6    1    1    2  501    0  0.11751085895E+03 -0.24220025407E+02  0.99244129944E+03  0.10145265617E+04  0.17300000000E+03 0.  1.
         -6    1    1    2    0  503 -0.11751085895E+03  0.24220025407E+02  0.68371710541E+02  0.22135740874E+03  0.17300000000E+03 0.  1.
<mgrwt>
<rscale>  2 0.21053364E+03</rscale>
<asrwt>0</asrwt>
<pdfrwt beam="1">  1       21 0.17666899E+00 0.21053364E+03</pdfrwt>
<pdfrwt beam="2">  1       21 0.13466998E-01 0.21053364E+03</pdfrwt>
<totfact> 0.90174827E+03</totfact>
</mgrwt>
</event>
<event>
 4    3  0.4009700E+000  0.1828625E+03  0.7546771E-02  0.1165061E+00
         21   -1    0    0  501  502  0.00000000000E+00  0.00000000000E+00  0.12536200041E+03  0.12536200041E+03  0.00000000000E+00 0.  1.
         21   -1    0    0  502  503 -0.00000000000E+00 -0.00000000000E+00 -0.49070933769E+03  0.49070933769E+03  0.00000000000E+00 0.  1.
          6    1    1    2  501    0 -0.52801812322E+02  0.26863836525E+02  0.25432971167E+02  0.18462267770E+03  0.17300000000E+03 0.  1.
         -6    1    1    2    0  503  0.52801812322E+02 -0.26863836525E+02 -0.39078030844E+03  0.43144866040E+03  0.17300000000E+03 0.  1.
<mgrwt>
<rscale>  2 0.18286251E+03</rscale>
<asrwt>0</asrwt>
<pdfrwt beam="1">  1       21 0.19286462E-01 0.18286251E+03</pdfrwt>
<pdfrwt beam="2">  1       21 0.75493744E-01 0.18286251E+03</pdfrwt>
<totfact> 0.38895701E+04</totfact>
</mgrwt>
</event>
<event>
 4    3  0.4009700E+000  0.1769366E+03  0.7546771E-02  0.1170801E+00
         21   -1    0    0  503  502  0.00000000000E+00  0.00000000000E+00  0.41506142702E+03  0.41506142702E+03  0.00000000000E+00 0.  1.
         21   -1    0    0  501  503 -0.00000000000E+00 -0.00000000000E+00 -0.12547537869E+03  0.12547537869E+03  0.00000000000E+00 0.  1.
          6    1    1    2  501    0  0.36288029110E+02 -0.77924514463E+01 -0.25899345218E+02  0.17882203287E+03  0.17300000000E+03 0.  1.
         -6    1    1    2    0  502 -0.36288029110E+02  0.77924514463E+01  0.31548539354E+03  0.36171477285E+03  0.17300000000E+03 0.  1.
<mgrwt>
<rscale>  2 0.17693655E+03</rscale>
<asrwt>0</asrwt>
<pdfrwt beam="1">  1       21 0.63855603E-01 0.17693655E+03</pdfrwt>
<pdfrwt beam="2">  1       21 0.19303905E-01 0.17693655E+03</pdfrwt>
<totfact> 0.56268241E+04</totfact>
</mgrwt>
</event>
<event>
 4    3  0.4009700E+000  0.1832568E+03  0.7546771E-02  0.1164688E+00
         21   -1    0    0  503  502  0.00000000000E+00  0.00000000000E+00  0.10200371782E+03  0.10200371782E+03  0.00000000000E+00 0.  1.
         21   -1    0    0  501  503 -0.00000000000E+00 -0.00000000000E+00 -0.39472795002E+03  0.39472795002E+03  0.00000000000E+00 0.  1.
          6    1    1    2  501    0 -0.44820045081E+02  0.40561425427E+02 -0.24753039500E+03  0.30798435370E+03  0.17300000000E+03 0.  1.
         -6    1    1    2    0  502  0.44820045081E+02 -0.40561425427E+02 -0.45193837201E+02  0.18874731414E+03  0.17300000000E+03 0.  1.
<mgrwt>
<rscale>  2 0.18325683E+03</rscale>
<asrwt>0</asrwt>
<pdfrwt beam="1">  1       21 0.15692880E-01 0.18325683E+03</pdfrwt>
<pdfrwt beam="2">  1       21 0.60727376E-01 0.18325683E+03</pdfrwt>
<totfact> 0.91554726E+04</totfact>
</mgrwt>
</event>
<event>
 4    3  0.4009700E+000  0.1989467E+03  0.7546771E-02  0.1150631E+00
         21   -1    0    0  501  502  0.00000000000E+00  0.00000000000E+00  0.17730983490E+03  0.17730983490E+03  0.00000000000E+00 0. -1.
         21   -1    0    0  502  503 -0.00000000000E+00 -0.00000000000E+00 -0.35896147667E+03  0.35896147667E+03  0.00000000000E+00 0.  1.
          6    1    1    2  501    0  0.96752338478E+02  0.17023183339E+02  0.74058968753E+02  0.21228408943E+03  0.17300000000E+03 0. -1.
         -6    1    1    2    0  503 -0.96752338478E+02 -0.17023183339E+02 -0.25571061053E+03  0.32398722214E+03  0.17300000000E+03 0.  1.
<mgrwt>
<rscale>  2 0.19894674E+03</rscale>
<asrwt>0</asrwt>
<pdfrwt beam="1">  1       21 0.27278437E-01 0.19894674E+03</pdfrwt>
<pdfrwt beam="2">  1       21 0.55224842E-01 0.19894674E+03</pdfrwt>
<totfact> 0.39495057E+04</totfact>
</mgrwt>
</event>
<event>
 4    3  0.4009700E+000  0.1893753E+03  0.7546771E-02  0.1159026E+00
         21   -1    0    0  501  502  0.00000000000E+00  0.00000000000E+00  0.12212108294E+03  0.12212108294E+03  0.00000000000E+00 0. -1.
         21   -1    0    0  502  503 -0.00000000000E+00 -0.00000000000E+00 -0.31085215077E+03  0.31085215077E+03  0.00000000000E+00 0.  1.
          6    1    1    2  501    0  0.76973842633E+02  0.30021448432E+01 -0.43464655412E+02  0.19429915490E+03  0.17300000000E+03 0. -1.
         -6    1    1    2    0  503 -0.76973842633E+02 -0.30021448432E+01 -0.14526641241E+03  0.23867407882E+03  0.17300000000E+03 0.  1.
<mgrwt>
<rscale>  2 0.18937525E+03</rscale>
<asrwt>0</asrwt>
<pdfrwt beam="1">  1       21 0.18787859E-01 0.18937525E+03</pdfrwt>
<pdfrwt beam="2">  1       21 0.47823408E-01 0.18937525E+03</pdfrwt>
<totfact> 0.10852809E+05</totfact>
</mgrwt>
</event>
<event>
 4    3  0.4009700E+000  0.2248930E+03  0.7546771E-02  0.1130287E+00
         21   -1    0    0  501  502  0.00000000000E+00  0.00000000000E+00  0.11125813756E+03  0.11125813756E+03  0.00000000000E+00 0.  1.
         21   -1    0    0  502  503 -0.00000000000E+00 -0.00000000000E+00 -0.55911470461E+03  0.55911470461E+03  0.00000000000E+00 0.  1.
          6    1    1    2  501    0  0.36406917612E+02 -0.13900508345E+03 -0.79002824530E+02  0.23836594379E+03  0.17300000000E+03 0.  1.
         -6    1    1    2    0  503 -0.36406917612E+02  0.13900508345E+03 -0.36885374252E+03  0.43200689838E+03  0.17300000000E+03 0.  1.
<mgrwt>
<rscale>  2 0.22489303E+03</rscale>
<asrwt>0</asrwt>
<pdfrwt beam="1">  1       21 0.17116637E-01 0.22489303E+03</pdfrwt>
<pdfrwt beam="2">  1       21 0.86017646E-01 0.22489303E+03</pdfrwt>
<totfact> 0.35321322E+04</totfact>
</mgrwt>
</event>
<event>
 4    3  0.4009700E+000  0.2004199E+03  0.7546771E-02  0.1149385E+00
         21   -1    0    0  501  502  0.00000000000E+00  0.00000000000E+00  0.18589005928E+04  0.18589005928E+04  0.00000000000E+00 0. -1.
         21   -1    0    0  502  503 -0.00000000000E+00 -0.00000000000E+00 -0.24909870894E+02  0.24909870894E+02  0.00000000000E+00 0.  1.
          6    1    1    2  501    0  0.10117513799E+03  0.16474280538E+01  0.12598943342E+04  0.12757358096E+04  0.17300000000E+03 0. -1.
         -6    1    1    2    0  503 -0.10117513799E+03 -0.16474280538E+01  0.57409638772E+03  0.60807465410E+03  0.17300000000E+03 0.  1.
<mgrwt>
<rscale>  2 0.20041987E+03</rscale>
<asrwt>0</asrwt>
<pdfrwt beam="1">  1       21 0.28598460E+00 0.20041987E+03</pdfrwt>
<pdfrwt beam="2">  1       21 0.38322893E-02 0.20041987E+03</pdfrwt>
<totfact> 0.17174994E+04</totfact>
</mgrwt>
</event>
<event>
 4    3  0.4009700E+000  0.2263960E+03  0.7546771E-02  0.1129202E+00
         21   -1    0    0  503  502  0.00000000000E+00  0.00000000000E+00  0.34227066343E+03  0.34227066343E+03  0.00000000000E+00 0.  1.
         21   -1    0    0  501  503 -0.00000000000E+00 -0.00000000000E+00 -0.15800461951E+03  0.15800461951E+03  0.00000000000E+00 0.  1.
          6    1    1    2  501    0 -0.14587750473E+03 -0.67765142943E+01  0.34961170127E+02  0.22907957340E+03  0.17300000000E+03 0.  1.
         -6    1    1    2    0  502  0.14587750473E+03  0.67765142943E+01  0.14930487379E+03  0.27119570953E+03  0.17300000000E+03 0.  1.
<mgrwt>
<rscale>  2 0.22639604E+03</rscale>
<asrwt>0</asrwt>
<pdfrwt beam="1">  1       21 0.52657025E-01 0.22639604E+03</pdfrwt>
<pdfrwt beam="2">  1       21 0.24308403E-01 0.22639604E+03</pdfrwt>
<totfact> 0.53790214E+04</totfact>
</mgrwt>
</event>
<event>
 4    3  0.4009700E+000  0.3774302E+03  0.7546771E-02  0.1051888E+00
         21   -1    0    0  501  502  0.00000000000E+00  0.00000000000E+00  0.12605594541E+04  0.12605594541E+04  0.00000000000E+00 0.  1.
         21   -1    0    0  502  503 -0.00000000000E+00 -0.00000000000E+00 -0.11337599293E+03  0.11337599293E+03  0.00000000000E+00 0. -1.
          6    1    1    2  501    0 -0.33538489556E+03 -0.64446348008E+01  0.61271853584E+03  0.71963710691E+03  0.17300000000E+03 0.  1.
         -6    1    1    2    0  503  0.33538489556E+03  0.64446348008E+01  0.53446492537E+03  0.65429834016E+03  0.17300000000E+03 0. -1.
<mgrwt>
<rscale>  2 0.37743021E+03</rscale>
<asrwt>0</asrwt>
<pdfrwt beam="1">  1       21 0.19393221E+00 0.37743021E+03</pdfrwt>
<pdfrwt beam="2">  1       21 0.17442461E-01 0.37743021E+03</pdfrwt>
<totfact> 0.38676756E+03</totfact>
</mgrwt>
</event>
<event>
 4    3  0.4009700E+000  0.3193103E+03  0.7546771E-02  0.1075967E+00
         21   -1    0    0  503  502  0.00000000000E+00  0.00000000000E+00  0.89016009278E+03  0.89016009278E+03  0.00000000000E+00 0.  1.
         21   -1    0    0  501  503 -0.00000000000E+00 -0.00000000000E+00 -0.22561018169E+03  0.22561018169E+03  0.00000000000E+00 0.  1.
          6    1    1    2  501    0 -0.78781129688E+02 -0.25656105191E+03 -0.59163923707E+02  0.32474514565E+03  0.17300000000E+03 0.  1.
         -6    1    1    2    0  502  0.78781129688E+02  0.25656105191E+03  0.72371383480E+03  0.79102512883E+03  0.17300000000E+03 0.  1.
<mgrwt>
<rscale>  2 0.31931026E+03</rscale>
<asrwt>0</asrwt>
<pdfrwt beam="1">  1       21 0.13694770E+00 0.31931026E+03</pdfrwt>
<pdfrwt beam="2">  1       21 0.34709259E-01 0.31931026E+03</pdfrwt>
<totfact> 0.27729364E+03</totfact>
</mgrwt>
</event>
<event>
 4    3  0.4009700E+000  0.1944692E+03  0.7546771E-02  0.1154491E+00
         21   -1    0    0  503  502  0.00000000000E+00  0.00000000000E+00  0.64440251024E+03  0.64440251024E+03  0.00000000000E+00 0. -1.
         21   -1    0    0  501  503 -0.00000000000E+00 -0.00000000000E+00 -0.70217187616E+02  0.70217187616E+02  0.00000000000E+00 0. -1.
          6    1    1    2  501    0  0.79992852877E+02 -0.38605920267E+02  0.14230387497E+03  0.24097441031E+03  0.17300000000E+03 0. -1.
         -6    1    1    2    0  502 -0.79992852877E+02  0.38605920267E+02  0.43188144765E+03  0.47364528754E+03  0.17300000000E+03 0. -1.
<mgrwt>
<rscale>  2 0.19446921E+03</rscale>
<asrwt>0</asrwt>
<pdfrwt beam="1">  1       21 0.99138844E-01 0.19446921E+03</pdfrwt>
<pdfrwt beam="2">  1       21 0.10802645E-01 0.19446921E+03</pdfrwt>
<totfact> 0.59254021E+04</totfact>
</mgrwt>
</event>
<event>
 4    3  0.4009700E+000  0.2017010E+03  0.7546771E-02  0.1148312E+00
         21   -1    0    0  501  502  0.00000000000E+00  0.00000000000E+00  0.62732946084E+03  0.62732946084E+03  0.00000000000E+00 0. -1.
         21   -1    0    0  502  503 -0.00000000000E+00 -0.00000000000E+00 -0.69358927795E+02  0.69358927795E+02  0.00000000000E+00 0. -1.
          6    1    1    2  501    0  0.62026348223E+02 -0.83108572535E+02  0.36778634386E+03  0.41946405976E+03  0.17300000000E+03 0. -1.
         -6    1    1    2    0  503 -0.62026348223E+02  0.83108572535E+02  0.19018418918E+03  0.27722432887E+03  0.17300000000E+03 0. -1.
<mgrwt>
<rscale>  2 0.20170102E+03</rscale>
<asrwt>0</asrwt>
<pdfrwt beam="1">  1       21 0.96512221E-01 0.20170102E+03</pdfrwt>
<pdfrwt beam="2">  1       21 0.10670605E-01 0.20170102E+03</pdfrwt>
<totfact> 0.64290968E+04</totfact>
</mgrwt>
</event>
<event>
 4    3  0.4009700E+000  0.1930038E+03  0.7546771E-02  0.1155780E+00
         21   -1    0    0  501  502  0.00000000000E+00  0.00000000000E+00  0.52331172820E+03  0.52331172820E+03  0.00000000000E+00 0.  1.
         21   -1    0    0  502  503 -0.00000000000E+00 -0.00000000000E+00 -0.71653499221E+02  0.71653499221E+02  0.00000000000E+00 0. -1.
          6    1    1    2  501    0  0.43705849598E+02 -0.73561180277E+02  0.20170124151E+03  0.27916632920E+03  0.17300000000E+03 0. -1.
         -6    1    1    2    0  503 -0.43705849598E+02  0.73561180277E+02  0.24995698747E+03  0.31579889822E+03  0.17300000000E+03 0.  1.
<mgrwt>
<rscale>  2 0.19300375E+03</rscale>
<asrwt>0</asrwt>
<pdfrwt beam="1">  1       21 0.80509494E-01 0.19300375E+03</pdfrwt>
<pdfrwt beam="2">  1       21 0.11023616E-01 0.19300375E+03</pdfrwt>
<totfact> 0.92553107E+04</totfact>
</mgrwt>
</event>
<event>
 4    3  0.4009700E+000  0.2195706E+03  0.7546771E-02  0.1134204E+00
         21   -1    0    0  503  502  0.00000000000E+00  0.00000000000E+00  0.57360532471E+03  0.57360532471E+03  0.00000000000E+00 0. -1.
         21   -1    0    0  501  503 -0.00000000000E+00 -0.00000000000E+00 -0.87863970649E+02  0.87863970649E+02  0.00000000000E+00 0. -1.
          6    1    1    2  501    0 -0.11954599624E+03  0.63174279202E+02  0.17395912799E+03  0.28013034998E+03  0.17300000000E+03 0. -1.
         -6    1    1    2    0  502  0.11954599624E+03 -0.63174279202E+02  0.31178222607E+03  0.38133894538E+03  0.17300000000E+03 0. -1.
<mgrwt>
<rscale>  2 0.21957057E+03</rscale>
<asrwt>0</asrwt>
<pdfrwt beam="1">  1       21 0.88246971E-01 0.21957057E+03</pdfrwt>
<pdfrwt beam="2">  1       21 0.13517534E-01 0.21957057E+03</pdfrwt>
<totfact> 0.51406536E+04</totfact>
</mgrwt>
</event>
<event>
 4    3  0.4009700E+000  0.2713901E+03  0.7546771E-02  0.1100487E+00
         21   -1    0    0  503  502  0.00000000000E+00  0.00000000000E+00  0.53756097979E+03  0.53756097979E+03  0.00000000000E+00 0.  1.
         21   -1    0    0  501  503 -0.00000000000E+00 -0.00000000000E+00 -0.15492515375E+03  0.15492515375E+03  0.00000000000E+00 0. -1.
          6    1    1    2  501    0 -0.31017309478E+02  0.20678851530E+03  0.30905148304E+03  0.41129719513E+03  0.17300000000E+03 0.  1.
         -6    1    1    2    0  502  0.31017309478E+02 -0.20678851530E+03  0.73584342994E+02  0.28118893841E+03  0.17300000000E+03 0. -1.
<mgrwt>
<rscale>  2 0.27139006E+03</rscale>
<asrwt>0</asrwt>
<pdfrwt beam="1">  1       21 0.82701688E-01 0.27139006E+03</pdfrwt>
<pdfrwt beam="2">  1       21 0.23834639E-01 0.27139006E+03</pdfrwt>
<totfact> 0.20297641E+04</totfact>
</mgrwt>
</event>
<event>
 4    3  0.4009700E+000  0.1835073E+03  0.7546771E-02  0.1164451E+00
         21   -1    0    0  503  502  0.00000000000E+00  0.00000000000E+00  0.50044799312E+02  0.50044799312E+02  0.00000000000E+00 0.  1.
         21   -1    0    0  501  503 -0.00000000000E+00 -0.00000000000E+00 -0.69334572288E+03  0.69334572288E+03  0.00000000000E+00 0.  1.
          6    1    1    2  501    0  0.58987504185E+02  0.16322428569E+02 -0.38548495032E+03  0.42693511714E+03  0.17300000000E+03 0.  1.
         -6    1    1    2    0  502 -0.58987504185E+02 -0.16322428569E+02 -0.25781597325E+03  0.31645540505E+03  0.17300000000E+03 0.  1.
<mgrwt>
<rscale>  2 0.18350735E+03</rscale>
<asrwt>0</asrwt>
<pdfrwt beam="1">  1       21 0.76991995E-02 0.18350735E+03</pdfrwt>
<pdfrwt beam="2">  1       21 0.10666858E+00 0.18350735E+03</pdfrwt>
<totfact> 0.90584915E+04</totfact>
</mgrwt>
</event>
<event>
 4    3  0.4009700E+000  0.2139888E+03  0.7546771E-02  0.1138446E+00
         21   -1    0    0  501  502  0.00000000000E+00  0.00000000000E+00  0.15138555589E+03  0.15138555589E+03  0.00000000000E+00 0. -1.
         21   -1    0    0  502  503 -0.00000000000E+00 -0.00000000000E+00 -0.40859663192E+03  0.40859663192E+03  0.00000000000E+00 0.  1.
          6    1    1    2  501    0 -0.50718559292E+02  0.11528151876E+03  0.14082390049E+02  0.21445166013E+03  0.17300000000E+03 0. -1.
         -6    1    1    2    0  503  0.50718559292E+02 -0.11528151876E+03 -0.27129346608E+03  0.34553052768E+03  0.17300000000E+03 0.  1.
<mgrwt>
<rscale>  2 0.21398879E+03</rscale>
<asrwt>0</asrwt>
<pdfrwt beam="1">  1       21 0.23290086E-01 0.21398879E+03</pdfrwt>
<pdfrwt beam="2">  1       21 0.62861019E-01 0.21398879E+03</pdfrwt>
<totfact> 0.40181203E+04</totfact>
</mgrwt>
</event>
<event>
 4    3  0.4009700E+000  0.2137784E+03  0.7546771E-02  0.1138608E+00
         21   -1    0    0  503  502  0.00000000000E+00  0.00000000000E+00  0.40079081369E+03  0.40079081369E+03  0.00000000000E+00 0.  1.
         21   -1    0    0  501  503 -0.00000000000E+00 -0.00000000000E+00 -0.12109713808E+03  0.12109713808E+03  0.00000000000E+00 0. -1.
          6    1    1    2  501    0 -0.49567089913E+02  0.11539200233E+03  0.76798134387E+02  0.22715449379E+03  0.17300000000E+03 0. -1.
         -6    1    1    2    0  502  0.49567089913E+02 -0.11539200233E+03  0.20289554123E+03  0.29473345798E+03  0.17300000000E+03 0.  1.
<mgrwt>
<rscale>  2 0.21377841E+03</rscale>
<asrwt>0</asrwt>
<pdfrwt beam="1">  1       21 0.61660125E-01 0.21377841E+03</pdfrwt>
<pdfrwt beam="2">  1       21 0.18630329E-01 0.21377841E+03</pdfrwt>
<totfact> 0.63748014E+04</totfact>
</mgrwt>
</event>
<event>
 4    3  0.4009700E+000  0.2176728E+03  0.7546771E-02  0.1135630E+00
         21   -1    0    0  501  502  0.00000000000E+00  0.00000000000E+00  0.61200827756E+02  0.61200827756E+02  0.00000000000E+00 0. -1.
         21   -1    0    0  502  503 -0.00000000000E+00 -0.00000000000E+00 -0.78106834477E+03  0.78106834477E+03  0.00000000000E+00 0.  1.
          6    1    1    2  501    0  0.12065756208E+02 -0.13155561477E+03 -0.32043209992E+03  0.38737345406E+03  0.17300000000E+03 0.  1.
         -6    1    1    2    0  503 -0.12065756208E+02  0.13155561477E+03 -0.39943541709E+03  0.45489571846E+03  0.17300000000E+03 0. -1.
<mgrwt>
<rscale>  2 0.21767283E+03</rscale>
<asrwt>0</asrwt>
<pdfrwt beam="1">  1       21 0.94155124E-02 0.21767283E+03</pdfrwt>
<pdfrwt beam="2">  1       21 0.12016435E+00 0.21767283E+03</pdfrwt>
<totfact> 0.46871102E+04</totfact>
</mgrwt>
</event>
<event>
 4    3  0.4009700E+000  0.2424091E+03  0.7546771E-02  0.1118198E+00
         21   -1    0    0  501  502  0.00000000000E+00  0.00000000000E+00  0.28742986950E+03  0.28742986950E+03  0.00000000000E+00 0.  1.
         21   -1    0    0  502  503 -0.00000000000E+00 -0.00000000000E+00 -0.23617498683E+03  0.23617498683E+03  0.00000000000E+00 0.  1.
          6    1    1    2  501    0  0.31796764760E+02  0.16679971565E+03  0.12159522829E+03  0.27119656881E+03  0.17300000000E+03 0.  1.
         -6    1    1    2    0  503 -0.31796764760E+02 -0.16679971565E+03 -0.70340345620E+02  0.25240828753E+03  0.17300000000E+03 0.  1.
<mgrwt>
<rscale>  2 0.24240912E+03</rscale>
<asrwt>0</asrwt>
<pdfrwt beam="1">  1       21 0.44219980E-01 0.24240912E+03</pdfrwt>
<pdfrwt beam="2">  1       21 0.36334613E-01 0.24240912E+03</pdfrwt>
<totfact> 0.35013100E+04</totfact>
</mgrwt>
</event>
<event>
 4    3  0.4009700E+000  0.1774195E+03  0.7546771E-02  0.1170324E+00
         21   -1    0    0  503  502  0.00000000000E+00  0.00000000000E+00  0.66583389590E+03  0.66583389590E+03  0.00000000000E+00 0. -1.
         21   -1    0    0  501  503 -0.00000000000E+00 -0.00000000000E+00 -0.11255326325E+03  0.11255326325E+03  0.00000000000E+00 0. -1.
          6    1    1    2  501    0 -0.30931218389E+02  0.24329929409E+02 -0.19753389929E+02  0.17851577563E+03  0.17300000000E+03 0. -1.
         -6    1    1    2    0  502  0.30931218389E+02 -0.24329929409E+02  0.57303402258E+03  0.59987138352E+03  0.17300000000E+03 0. -1.
<mgrwt>
<rscale>  2 0.17741952E+03</rscale>
<asrwt>0</asrwt>
<pdfrwt beam="1">  1       21 0.10243598E+00 0.17741952E+03</pdfrwt>
<pdfrwt beam="2">  1       21 0.17315887E-01 0.17741952E+03</pdfrwt>
<totfact> 0.23593192E+04</totfact>
</mgrwt>
</event>
<event>
 4    3  0.4009700E+000  0.2223215E+03  0.7546771E-02  0.1132164E+00
         21   -1    0    0  503  502  0.00000000000E+00  0.00000000000E+00  0.31472151914E+03  0.31472151914E+03  0.00000000000E+00 0. -1.
         21   -1    0    0  501  503 -0.00000000000E+00 -0.00000000000E+00 -0.19594653497E+03  0.19594653497E+03  0.00000000000E+00 0.  1.
          6    1    1    2  501    0 -0.10132438030E+03 -0.96079281625E+02 -0.54374746274E+02  0.22887435731E+03  0.17300000000E+03 0.  1.
         -6    1    1    2    0  502  0.10132438030E+03  0.96079281625E+02  0.17314973045E+03  0.28179369680E+03  0.17300000000E+03 0. -1.
<mgrwt>
<rscale>  2 0.22232152E+03</rscale>
<asrwt>0</asrwt>
<pdfrwt beam="1">  1       21 0.48418696E-01 0.22232152E+03</pdfrwt>
<pdfrwt beam="2">  1       21 0.30145621E-01 0.22232152E+03</pdfrwt>
<totfact> 0.42381974E+04</totfact>
</mgrwt>
</event>
<event>
 4    3  0.4009700E+000  0.1878564E+03  0.7546771E-02  0.1160409E+00
         21   -1    0    0  501  502  0.00000000000E+00  0.00000000000E+00  0.10416552179E+03  0.10416552179E+03  0.00000000000E+00 0.  1.
         21   -1    0    0  502  503 -0.00000000000E+00 -0.00000000000E+00 -0.38688760534E+03  0.38688760534E+03  0.00000000000E+00 0.  1.
          6    1    1    2  501    0  0.70177455653E+02 -0.20884067525E+02 -0.22793299856E+03  0.29537005839E+03  0.17300000000E+03 0.  1.
         -6    1    1    2    0  503 -0.70177455653E+02  0.20884067525E+02 -0.54789084990E+02  0.19568306874E+03  0.17300000000E+03 0.  1.
<mgrwt>
<rscale>  2 0.18785638E+03</rscale>
<asrwt>0</asrwt>
<pdfrwt beam="1">  1       21 0.16025465E-01 0.18785638E+03</pdfrwt>
<pdfrwt beam="2">  1       21 0.59521171E-01 0.18785638E+03</pdfrwt>
<totfact> 0.91823334E+04</totfact>
</mgrwt>
</event>
<event>
 4    3  0.4009700E+000  0.2297216E+03  0.7546771E-02  0.1126836E+00
         21   -1    0    0  503  502  0.00000000000E+00  0.00000000000E+00  0.12107300141E+03  0.12107300141E+03  0.00000000000E+00 0. -1.
         21   -1    0    0  501  503 -0.00000000000E+00 -0.00000000000E+00 -0.56669466634E+03  0.56669466634E+03  0.00000000000E+00 0. -1.
          6    1    1    2  501    0  0.14798522792E+03  0.30714368132E+02 -0.57582988510E+02  0.23682863141E+03  0.17300000000E+03 0. -1.
         -6    1    1    2    0  502 -0.14798522792E+03 -0.30714368132E+02 -0.38803867643E+03  0.45093903634E+03  0.17300000000E+03 0. -1.
<mgrwt>
<rscale>  2 0.22972157E+03</rscale>
<asrwt>0</asrwt>
<pdfrwt beam="1">  1       21 0.18626615E-01 0.22972157E+03</pdfrwt>
<pdfrwt beam="2">  1       21 0.87183796E-01 0.22972157E+03</pdfrwt>
<totfact> 0.29201536E+04</totfact>
</mgrwt>
</event>
<event>
 4    3  0.4009700E+000  0.1884633E+03  0.7546771E-02  0.1159855E+00
         21   -1    0    0  503  502  0.00000000000E+00  0.00000000000E+00  0.53101184979E+03  0.53101184979E+03  0.00000000000E+00 0.  1.
         21   -1    0    0  501  503 -0.00000000000E+00 -0.00000000000E+00 -0.67470032246E+02  0.67470032246E+02  0.00000000000E+00 0. -1.
          6    1    1    2  501    0 -0.67713321298E+02 -0.31690942372E+02  0.20398168183E+03  0.27771736754E+03  0.17300000000E+03 0. -1.
         -6    1    1    2    0  502  0.67713321298E+02  0.31690942372E+02  0.25956013571E+03  0.32076451450E+03  0.17300000000E+03 0. -1.
<mgrwt>
<rscale>  2 0.18846328E+03</rscale>
<asrwt>0</asrwt>
<pdfrwt beam="1">  1       21 0.81694128E-01 0.18846328E+03</pdfrwt>
<pdfrwt beam="2">  1       21 0.10380005E-01 0.18846328E+03</pdfrwt>
<totfact> 0.99801372E+04</totfact>
</mgrwt>
</event>
<event>
 4    3  0.4009700E+000  0.1902034E+03  0.7546771E-02  0.1158278E+00
         21   -1    0    0  503  502  0.00000000000E+00  0.00000000000E+00  0.46696265263E+03  0.46696265263E+03  0.00000000000E+00 0.  1.
         21   -1    0    0  501  503 -0.00000000000E+00 -0.00000000000E+00 -0.26609757815E+03  0.26609757815E+03  0.00000000000E+00 0.  1.
          6    1    1    2  501    0 -0.71653556774E+02 -0.33377901183E+02 -0.20816151917E+03  0.28197257766E+03  0.17300000000E+03 0.  1.
         -6    1    1    2    0  502  0.71653556774E+02  0.33377901183E+02  0.40902659365E+03  0.45108765312E+03  0.17300000000E+03 0.  1.
<mgrwt>
<rscale>  2 0.19020336E+03</rscale>
<asrwt>0</asrwt>
<pdfrwt beam="1">  1       21 0.71840408E-01 0.19020336E+03</pdfrwt>
<pdfrwt beam="2">  1       21 0.40938089E-01 0.19020336E+03</pdfrwt>
<totfact> 0.10073130E+04</totfact>
</mgrwt>
</event>
<event>
 4    3  0.4009700E+000  0.2173685E+03  0.7546771E-02  0.1135860E+00
         21   -1    0    0  503  502  0.00000000000E+00  0.00000000000E+00  0.48228655060E+03  0.48228655060E+03  0.00000000000E+00 0. -1.
         21   -1    0    0  501  503 -0.00000000000E+00 -0.00000000000E+00 -0.12396955920E+03  0.12396955920E+03  0.00000000000E+00 0.  1.
          6    1    1    2  501    0  0.12213584006E+03  0.49019270436E+02  0.40335531744E+02  0.22107918813E+03  0.17300000000E+03 0.  1.
         -6    1    1    2    0  502 -0.12213584006E+03 -0.49019270436E+02  0.31798145966E+03  0.38517692167E+03  0.17300000000E+03 0. -1.
<mgrwt>
<rscale>  2 0.21736847E+03</rscale>
<asrwt>0</asrwt>
<pdfrwt beam="1">  1       21 0.74197930E-01 0.21736847E+03</pdfrwt>
<pdfrwt beam="2">  1       21 0.19072240E-01 0.21736847E+03</pdfrwt>
<totfact> 0.40557171E+04</totfact>
</mgrwt>
</event>
<event>
 4    3  0.4009700E+000  0.1849449E+03  0.7546771E-02  0.1163101E+00
         21   -1    0    0  503  502  0.00000000000E+00  0.00000000000E+00  0.32224098186E+03  0.32224098186E+03  0.00000000000E+00 0.  1.
         21   -1    0    0  501  503 -0.00000000000E+00 -0.00000000000E+00 -0.10901585615E+03  0.10901585615E+03  0.00000000000E+00 0. -1.
          6    1    1    2  501    0 -0.23457364990E+01  0.65346038736E+02  0.14159801344E+03  0.23292617858E+03  0.17300000000E+03 0.  1.
         -6    1    1    2    0  502  0.23457364990E+01 -0.65346038736E+02  0.71627112271E+02  0.19833065943E+03  0.17300000000E+03 0. -1.
<mgrwt>
<rscale>  2 0.18494488E+03</rscale>
<asrwt>0</asrwt>
<pdfrwt beam="1">  1       21 0.49575535E-01 0.18494488E+03</pdfrwt>
<pdfrwt beam="2">  1       21 0.16771670E-01 0.18494488E+03</pdfrwt>
<totfact> 0.12438462E+05</totfact>
</mgrwt>
</event>
<event>
 4    3  0.4009700E+000  0.1795203E+03  0.7546771E-02  0.1168268E+00
         21   -1    0    0  501  502  0.00000000000E+00  0.00000000000E+00  0.11486720747E+03  0.11486720747E+03  0.00000000000E+00 0. -1.
         21   -1    0    0  502  503 -0.00000000000E+00 -0.00000000000E+00 -0.51573693359E+03  0.51573693359E+03  0.00000000000E+00 0. -1.
          6    1    1    2  501    0 -0.26930400723E+02  0.39664774355E+02  0.12480439340E+02  0.17995361117E+03  0.17300000000E+03 0. -1.
         -6    1    1    2    0  503  0.26930400723E+02 -0.39664774355E+02 -0.41335016546E+03  0.45065052989E+03  0.17300000000E+03 0. -1.
<mgrwt>
<rscale>  2 0.17952031E+03</rscale>
<asrwt>0</asrwt>
<pdfrwt beam="1">  1       21 0.17671878E-01 0.17952031E+03</pdfrwt>
<pdfrwt beam="2">  1       21 0.79344145E-01 0.17952031E+03</pdfrwt>
<totfact> 0.40972242E+04</totfact>
</mgrwt>
</event>
<event>
 4    3  0.4009700E+000  0.2068291E+03  0.7546771E-02  0.1144102E+00
         21   -1    0    0  501  502  0.00000000000E+00  0.00000000000E+00  0.31742843822E+03  0.31742843822E+03  0.00000000000E+00 0.  1.
         21   -1    0    0  502  503 -0.00000000000E+00 -0.00000000000E+00 -0.23260204133E+03  0.23260204133E+03  0.00000000000E+00 0.  1.
          6    1    1    2  501    0 -0.82817165398E+02 -0.77399051803E+02  0.22077476872E+03  0.30252238695E+03  0.17300000000E+03 0.  1.
         -6    1    1    2    0  503  0.82817165398E+02  0.77399051803E+02 -0.13594837183E+03  0.24750809261E+03  0.17300000000E+03 0.  1.
<mgrwt>
<rscale>  2 0.20682915E+03</rscale>
<asrwt>0</asrwt>
<pdfrwt beam="1">  1       21 0.48835144E-01 0.20682915E+03</pdfrwt>
<pdfrwt beam="2">  1       21 0.35784929E-01 0.20682915E+03</pdfrwt>
<totfact> 0.29902124E+04</totfact>
</mgrwt>
</event>
<event>
 4    3  0.4009700E+000  0.1854895E+03  0.7546771E-02  0.1162594E+00
         21   -1    0    0  501  502  0.00000000000E+00  0.00000000000E+00  0.12123194720E+03  0.12123194720E+03  0.00000000000E+00 0.  1.
         21   -1    0    0  502  503 -0.00000000000E+00 -0.00000000000E+00 -0.29140568854E+03  0.29140568854E+03  0.00000000000E+00 0. -1.
          6    1    1    2  501    0 -0.61668020305E+02 -0.25969474733E+02 -0.51768273899E+02  0.19257806866E+03  0.17300000000E+03 0. -1.
         -6    1    1    2    0  503  0.61668020305E+02  0.25969474733E+02 -0.11840546744E+03  0.22005956708E+03  0.17300000000E+03 0.  1.
<mgrwt>
<rscale>  2 0.18548951E+03</rscale>
<asrwt>0</asrwt>
<pdfrwt beam="1">  1       21 0.18651069E-01 0.18548951E+03</pdfrwt>
<pdfrwt beam="2">  1       21 0.44831644E-01 0.18548951E+03</pdfrwt>
<totfact> 0.12584244E+05</totfact>
</mgrwt>
</event>
<event>
 4    3  0.4009700E+000  0.1753012E+03  0.7546771E-02  0.1172430E+00
         21   -1    0    0  501  502  0.00000000000E+00  0.00000000000E+00  0.24946529184E+03  0.24946529184E+03  0.00000000000E+00 0.  1.
         21   -1    0    0  502  503 -0.00000000000E+00 -0.00000000000E+00 -0.12476505790E+03  0.12476505790E+03  0.00000000000E+00 0.  1.
          6    1    1    2  501    0  0.86774449810E+01 -0.26948198972E+02  0.83403993805E+02  0.19413070252E+03  0.17300000000E+03 0.  1.
         -6    1    1    2    0  503 -0.86774449810E+01  0.26948198972E+02  0.41296240126E+02  0.18009964722E+03  0.17300000000E+03 0.  1.
<mgrwt>
<rscale>  2 0.17530118E+03</rscale>
<asrwt>0</asrwt>
<pdfrwt beam="1">  1       21 0.38379276E-01 0.17530118E+03</pdfrwt>
<pdfrwt beam="2">  1       21 0.19194624E-01 0.17530118E+03</pdfrwt>
<totfact> 0.16404313E+05</totfact>
</mgrwt>
</event>
<event>
 4    3  0.4009700E+000  0.1816920E+03  0.7546771E-02  0.1166176E+00
         21   -1    0    0  501  502  0.00000000000E+00  0.00000000000E+00  0.29296690410E+03  0.29296690410E+03  0.00000000000E+00 0. -1.
         21   -1    0    0  502  503 -0.00000000000E+00 -0.00000000000E+00 -0.61272084442E+03  0.61272084442E+03  0.00000000000E+00 0. -1.
          6    1    1    2  501    0  0.54982710666E+02  0.77382720380E+01  0.24921336109E+03  0.30841413500E+03  0.17300000000E+03 0. -1.
         -6    1    1    2    0  503 -0.54982710666E+02 -0.77382720380E+01 -0.56896730141E+03  0.59727361352E+03  0.17300000000E+03 0. -1.
<mgrwt>
<rscale>  2 0.18169199E+03</rscale>
<asrwt>0</asrwt>
<pdfrwt beam="1">  1       21 0.45071831E-01 0.18169199E+03</pdfrwt>
<pdfrwt beam="2">  1       21 0.94264745E-01 0.18169199E+03</pdfrwt>
<totfact> 0.44954751E+03</totfact>
</mgrwt>
</event>
<event>
 4    3  0.4009700E+000  0.1797880E+03  0.7546771E-02  0.1168008E+00
         21   -1    0    0  501  502  0.00000000000E+00  0.00000000000E+00  0.48293525366E+03  0.48293525366E+03  0.00000000000E+00 0.  1.
         21   -1    0    0  502  503 -0.00000000000E+00 -0.00000000000E+00 -0.67660196497E+02  0.67660196497E+02  0.00000000000E+00 0.  1.
          6    1    1    2  501    0  0.21408684263E+02 -0.44004416511E+02  0.23620180575E+03  0.29684173136E+03  0.17300000000E+03 0.  1.
         -6    1    1    2    0  503 -0.21408684263E+02  0.44004416511E+02  0.17907325141E+03  0.25375371880E+03  0.17300000000E+03 0.  1.
<mgrwt>
<rscale>  2 0.17978799E+03</rscale>
<asrwt>0</asrwt>
<pdfrwt beam="1">  1       21 0.74297729E-01 0.17978799E+03</pdfrwt>
<pdfrwt beam="2">  1       21 0.10409261E-01 0.17978799E+03</pdfrwt>
<totfact> 0.12330168E+05</totfact>
</mgrwt>
</event>
<event>
 4    3  0.4009700E+000  0.1948613E+03  0.7546771E-02  0.1154148E+00
         21   -1    0    0  503  502  0.00000000000E+00  0.00000000000E+00  0.50411051561E+02  0.50411051561E+02  0.00000000000E+00 0. -1.
         21   -1    0    0  501  503 -0.00000000000E+00 -0.00000000000E+00 -0.86261816350E+03  0.86261816350E+03  0.00000000000E+00 0. -1.
          6    1    1    2  501    0  0.53400034520E+02  0.72044101856E+02 -0.56867281383E+03  0.60113200338E+03  0.17300000000E+03 0. -1.
         -6    1    1    2    0  502 -0.53400034520E+02 -0.72044101856E+02 -0.24353429811E+03  0.31189721168E+03  0.17300000000E+03 0. -1.
<mgrwt>
<rscale>  2 0.19486127E+03</rscale>
<asrwt>0</asrwt>
<pdfrwt beam="1">  1       21 0.77555468E-02 0.19486127E+03</pdfrwt>
<pdfrwt beam="2">  1       21 0.13271048E+00 0.19486127E+03</pdfrwt>
<totfact> 0.51903673E+04</totfact>
</mgrwt>
</event>
<event>
 4    3  0.4009700E+000  0.2801167E+03  0.7546771E-02  0.1095625E+00
         21   -1    0    0  501  502  0.00000000000E+00  0.00000000000E+00  0.34078726379E+03  0.34078726379E+03  0.00000000000E+00 0. -1.
         21   -1    0    0  502  503 -0.00000000000E+00 -0.00000000000E+00 -0.74330286143E+03  0.74330286143E+03  0.00000000000E+00 0. -1.
          6    1    1    2  501    0  0.10660386185E+03 -0.19280031760E+03  0.24907615455E+03  0.37483900090E+03  0.17300000000E+03 0. -1.
         -6    1    1    2    0  503 -0.10660386185E+03  0.19280031760E+03 -0.65159175219E+03  0.70925112432E+03  0.17300000000E+03 0. -1.
<mgrwt>
<rscale>  2 0.28011666E+03</rscale>
<asrwt>0</asrwt>
<pdfrwt beam="1">  1       21 0.52428810E-01 0.28011666E+03</pdfrwt>
<pdfrwt beam="2">  1       21 0.11435429E+00 0.28011666E+03</pdfrwt>
<totfact> 0.19158495E+03</totfact>
</mgrwt>
</event>
<event>
 4    3  0.4009700E+000  0.1790536E+03  0.7546771E-02  0.1168722E+00
         21   -1    0    0  503  502  0.00000000000E+00  0.00000000000E+00  0.23419961413E+03  0.23419961413E+03  0.00000000000E+00 0.  1.
         21   -1    0    0  501  503 -0.00000000000E+00 -0.00000000000E+00 -0.16484848322E+03  0.16484848322E+03  0.00000000000E+00 0.  1.
          6    1    1    2  501    0  0.30149611091E+02  0.34959941597E+02 -0.47489895871E+02  0.18524439742E+03  0.17300000000E+03 0.  1.
         -6    1    1    2    0  502 -0.30149611091E+02 -0.34959941597E+02  0.11684102678E+03  0.21380369993E+03  0.17300000000E+03 0.  1.
<mgrwt>
<rscale>  2 0.17905361E+03</rscale>
<asrwt>0</asrwt>
<pdfrwt beam="1">  1       21 0.36030710E-01 0.17905361E+03</pdfrwt>
<pdfrwt beam="2">  1       21 0.25361305E-01 0.17905361E+03</pdfrwt>
<totfact> 0.11001122E+05</totfact>
</mgrwt>
</event>
<event>
 4    3  0.4009700E+000  0.2371461E+03  0.7546771E-02  0.1121709E+00
         21   -1    0    0  503  502  0.00000000000E+00  0.00000000000E+00  0.62912079728E+02  0.62912079728E+02  0.00000000000E+00 0.  1.
         21   -1    0    0  501  503 -0.00000000000E+00 -0.00000000000E+00 -0.12736863898E+04  0.12736863898E+04  0.00000000000E+00 0. -1.
          6    1    1    2  501    0  0.13406688225E+03  0.91298206835E+02 -0.97030798408E+03  0.99886729622E+03  0.17300000000E+03 0. -1.
         -6    1    1    2    0  502 -0.13406688225E+03 -0.91298206835E+02 -0.24046632598E+03  0.33773117330E+03  0.17300000000E+03 0.  1.
<mgrwt>
<rscale>  2 0.23714614E+03</rscale>
<asrwt>0</asrwt>
<pdfrwt beam="1">  1       21 0.96787812E-02 0.23714614E+03</pdfrwt>
<pdfrwt beam="2">  1       21 0.19595176E+00 0.23714614E+03</pdfrwt>
<totfact> 0.11852031E+04</totfact>
</mgrwt>
</event>
<event>
 4    3  0.4009700E+000  0.2091659E+03  0.7546771E-02  0.1142228E+00
         21   -1    0    0  501  502  0.00000000000E+00  0.00000000000E+00  0.96159044133E+02  0.96159044133E+02  0.00000000000E+00 0.  1.
         21   -1    0    0  502  503 -0.00000000000E+00 -0.00000000000E+00 -0.61073572537E+03  0.61073572537E+03  0.00000000000E+00 0.  1.
          6    1    1    2  501    0  0.10203174938E+03  0.58402898562E+02 -0.78795389960E+02  0.22351530131E+03  0.17300000000E+03 0.  1.
         -6    1    1    2    0  503 -0.10203174938E+03 -0.58402898562E+02 -0.43578129127E+03  0.48337946819E+03  0.17300000000E+03 0.  1.
<mgrwt>
<rscale>  2 0.20916591E+03</rscale>
<asrwt>0</asrwt>
<pdfrwt beam="1">  1       21 0.14793699E-01 0.20916591E+03</pdfrwt>
<pdfrwt beam="2">  1       21 0.93959342E-01 0.20916591E+03</pdfrwt>
<totfact> 0.37901593E+04</totfact>
</mgrwt>
</event>
<event>
 4    3  0.4009700E+000  0.1779859E+03  0.7546771E-02  0.1169767E+00
         21   -1    0    0  501  502  0.00000000000E+00  0.00000000000E+00  0.34291143096E+03  0.34291143096E+03  0.00000000000E+00 0. -1.
         21   -1    0    0  502  503 -0.00000000000E+00 -0.00000000000E+00 -0.96450907819E+02  0.96450907819E+02  0.00000000000E+00 0. -1.
          6    1    1    2  501    0 -0.36631557144E+02  0.20201548661E+02  0.78111371632E+02  0.19437170557E+03  0.17300000000E+03 0. -1.
         -6    1    1    2    0  503  0.36631557144E+02 -0.20201548661E+02  0.16834915151E+03  0.24499063321E+03  0.17300000000E+03 0. -1.
<mgrwt>
<rscale>  2 0.17798588E+03</rscale>
<asrwt>0</asrwt>
<pdfrwt beam="1">  1       21 0.52755604E-01 0.17798588E+03</pdfrwt>
<pdfrwt beam="2">  1       21 0.14838601E-01 0.17798588E+03</pdfrwt>
<totfact> 0.13693431E+05</totfact>
</mgrwt>
</event>
<event>
 4    3  0.4009700E+000  0.1747239E+03  0.7546771E-02  0.1173009E+00
         21   -1    0    0  501  502  0.00000000000E+00  0.00000000000E+00  0.60916579847E+03  0.60916579847E+03  0.00000000000E+00 0.  1.
         21   -1    0    0  502  503 -0.00000000000E+00 -0.00000000000E+00 -0.50584366069E+02  0.50584366069E+02  0.00000000000E+00 0.  1.
          6    1    1    2  501    0  0.10450956752E+02 -0.22140623696E+02  0.24751962826E+03  0.30297590017E+03  0.17300000000E+03 0. -1.
         -6    1    1    2    0  503 -0.10450956752E+02  0.22140623696E+02  0.31106180414E+03  0.35677426436E+03  0.17300000000E+03 0. -1.
<mgrwt>
<rscale>  2 0.17472387E+03</rscale>
<asrwt>0</asrwt>
<pdfrwt beam="1">  1       21 0.93717810E-01 0.17472387E+03</pdfrwt>
<pdfrwt beam="2">  1       21 0.77822106E-02 0.17472387E+03</pdfrwt>
<totfact> 0.12122849E+05</totfact>
</mgrwt>
</event>
<event>
 4    3  0.4009700E+000  0.1937993E+03  0.7546771E-02  0.1155079E+00
         21   -1    0    0  501  502  0.00000000000E+00  0.00000000000E+00  0.16080287820E+03  0.16080287820E+03  0.00000000000E+00 0. -1.
         21   -1    0    0  502  503 -0.00000000000E+00 -0.00000000000E+00 -0.37390087492E+03  0.37390087492E+03  0.00000000000E+00 0. -1.
          6    1    1    2  501    0  0.79985115079E+02 -0.35093438820E+02  0.57240858383E+02  0.20207593610E+03  0.17300000000E+03 0. -1.
         -6    1    1    2    0  503 -0.79985115079E+02  0.35093438820E+02 -0.27033885509E+03  0.33262781702E+03  0.17300000000E+03 0. -1.
<mgrwt>
<rscale>  2 0.19379930E+03</rscale>
<asrwt>0</asrwt>
<pdfrwt beam="1">  1       21 0.24738904E-01 0.19379930E+03</pdfrwt>
<pdfrwt beam="2">  1       21 0.57523211E-01 0.19379930E+03</pdfrwt>
<totfact> 0.43799888E+04</totfact>
</mgrwt>
</event>
<event>
 4    3  0.4009700E+000  0.1982856E+03  0.7546771E-02  0.1151194E+00
         21   -1    0    0  501  502  0.00000000000E+00  0.00000000000E+00  0.23741705237E+03  0.23741705237E+03  0.00000000000E+00 0. -1.
         21   -1    0    0  502  503 -0.00000000000E+00 -0.00000000000E+00 -0.20216362389E+03  0.20216362389E+03  0.00000000000E+00 0. -1.
          6    1    1    2  501    0  0.94575476671E+02  0.21063638369E+02  0.11109372370E+03  0.22728619204E+03  0.17300000000E+03 0. -1.
         -6    1    1    2    0  503 -0.94575476671E+02 -0.21063638369E+02 -0.75840295213E+02  0.21229448421E+03  0.17300000000E+03 0. -1.
<mgrwt>
<rscale>  2 0.19828565E+03</rscale>
<asrwt>0</asrwt>
<pdfrwt beam="1">  1       21 0.36525700E-01 0.19828565E+03</pdfrwt>
<pdfrwt beam="2">  1       21 0.31102096E-01 0.19828565E+03</pdfrwt>
<totfact> 0.71611837E+04</totfact>
</mgrwt>
</event>
<event>
 4    3  0.4009700E+000  0.1799682E+03  0.7546771E-02  0.1167834E+00
         21   -1    0    0  503  502  0.00000000000E+00  0.00000000000E+00  0.70425207731E+03  0.70425207731E+03  0.00000000000E+00 0. -1.
         21   -1    0    0  501  503 -0.00000000000E+00 -0.00000000000E+00 -0.71424563337E+02  0.71424563337E+02  0.00000000000E+00 0. -1.
          6    1    1    2  501    0  0.33107178668E+02 -0.36925322375E+02  0.84973489930E+02  0.19902024697E+03  0.17300000000E+03 0. -1.
         -6    1    1    2    0  502 -0.33107178668E+02  0.36925322375E+02  0.54785402405E+03  0.57665639368E+03  0.17300000000E+03 0. -1.
<mgrwt>
<rscale>  2 0.17996823E+03</rscale>
<asrwt>0</asrwt>
<pdfrwt beam="1">  1       21 0.10834647E+00 0.17996823E+03</pdfrwt>
<pdfrwt beam="2">  1       21 0.10988395E-01 0.17996823E+03</pdfrwt>
<totfact> 0.46821135E+04</totfact>
</mgrwt>
</event>
<event>
 4    3  0.4009700E+000  0.1807172E+03  0.7546771E-02  0.1167111E+00
         21   -1    0    0  503  502  0.00000000000E+00  0.00000000000E+00  0.23597213105E+04  0.23597213105E+04  0.00000000000E+00 0. -1.
         21   -1    0    0  501  503 -0.00000000000E+00 -0.00000000000E+00 -0.30138397878E+02  0.30138397878E+02  0.00000000000E+00 0.  1.
          6    1    1    2  501    0 -0.50198246233E+02 -0.14485378184E+02  0.28606448316E+03  0.33836604238E+03  0.17300000000E+03 0.  1.
         -6    1    1    2    0  502  0.50198246233E+02  0.14485378184E+02  0.20435184295E+04  0.20514936660E+04  0.17300000000E+03 0. -1.
<mgrwt>
<rscale>  2 0.18071715E+03</rscale>
<asrwt>0</asrwt>
<pdfrwt beam="1">  1       21 0.36303390E+00 0.18071715E+03</pdfrwt>
<pdfrwt beam="2">  1       21 0.46366785E-02 0.18071715E+03</pdfrwt>
<totfact> 0.45453790E+03</totfact>
</mgrwt>
</event>
<event>
 4    3  0.4009700E+000  0.1850582E+03  0.7546771E-02  0.1162996E+00
         21   -1    0    0  501  502  0.00000000000E+00  0.00000000000E+00  0.28197438884E+03  0.28197438884E+03  0.00000000000E+00 0. -1.
         21   -1    0    0  502  503 -0.00000000000E+00 -0.00000000000E+00 -0.25940900195E+03  0.25940900195E+03  0.00000000000E+00 0. -1.
          6    1    1    2  501    0  0.52576952566E+02  0.39410518415E+02  0.20868550219E+03  0.27891963668E+03  0.17300000000E+03 0. -1.
         -6    1    1    2    0  503 -0.52576952566E+02 -0.39410518415E+02 -0.18612011530E+03  0.26246375411E+03  0.17300000000E+03 0. -1.
<mgrwt>
<rscale>  2 0.18505817E+03</rscale>
<asrwt>0</asrwt>
<pdfrwt beam="1">  1       21 0.43380675E-01 0.18505817E+03</pdfrwt>
<pdfrwt beam="2">  1       21 0.39909077E-01 0.18505817E+03</pdfrwt>
<totfact> 0.31035353E+04</totfact>
</mgrwt>
</event>
<event>
 4    3  0.4009700E+000  0.1835349E+03  0.7546771E-02  0.1164425E+00
         21   -1    0    0  501  502  0.00000000000E+00  0.00000000000E+00  0.33314518273E+03  0.33314518273E+03  0.00000000000E+00 0. -1.
         21   -1    0    0  502  503 -0.00000000000E+00 -0.00000000000E+00 -0.12297965078E+03  0.12297965078E+03  0.00000000000E+00 0.  1.
          6    1    1    2  501    0 -0.22517219076E+02  0.57000404812E+02  0.20125181247E+03  0.27237357311E+03  0.17300000000E+03 0.  1.
         -6    1    1    2    0  503  0.22517219076E+02 -0.57000404812E+02  0.89137194758E+01  0.18375126040E+03  0.17300000000E+03 0.  1.
<mgrwt>
<rscale>  2 0.18353493E+03</rscale>
<asrwt>0</asrwt>
<pdfrwt beam="1">  1       21 0.51253104E-01 0.18353493E+03</pdfrwt>
<pdfrwt beam="2">  1       21 0.18919946E-01 0.18353493E+03</pdfrwt>
<totfact> 0.92952895E+04</totfact>
</mgrwt>
</event>
<event>
 4    3  0.4009700E+000  0.1751910E+03  0.7546771E-02  0.1172540E+00
         21   -1    0    0  501  502  0.00000000000E+00  0.00000000000E+00  0.47900423205E+02  0.47900423205E+02  0.00000000000E+00 0. -1.
         21   -1    0    0  502  503 -0.00000000000E+00 -0.00000000000E+00 -0.65217130104E+03  0.65217130104E+03  0.00000000000E+00 0. -1.
          6    1    1    2  501    0 -0.25278933665E+02  0.11129006840E+02 -0.34847108579E+03  0.39003073842E+03  0.17300000000E+03 0.  1.
         -6    1    1    2    0  503  0.25278933665E+02 -0.11129006840E+02 -0.25579979204E+03  0.31004098582E+03  0.17300000000E+03 0.  1.
<mgrwt>
<rscale>  2 0.17519098E+03</rscale>
<asrwt>0</asrwt>
<pdfrwt beam="1">  1       21 0.73692964E-02 0.17519098E+03</pdfrwt>
<pdfrwt beam="2">  1       21 0.10033404E+00 0.17519098E+03</pdfrwt>
<totfact> 0.11350900E+05</totfact>
</mgrwt>
</event>
<event>
 4    3  0.4009700E+000  0.1854674E+03  0.7546771E-02  0.1162614E+00
         21   -1    0    0  503  502  0.00000000000E+00  0.00000000000E+00  0.96855587392E+02  0.96855587392E+02  0.00000000000E+00 0.  1.
         21   -1    0    0  501  503 -0.00000000000E+00 -0.00000000000E+00 -0.37571151229E+03  0.37571151229E+03  0.00000000000E+00 0.  1.
          6    1    1    2  501    0 -0.65661903520E+02  0.12556937823E+02 -0.19470498250E+03  0.26890182683E+03  0.17300000000E+03 0.  1.
         -6    1    1    2    0  502  0.65661903520E+02 -0.12556937823E+02 -0.84150942407E+02  0.20366527286E+03  0.17300000000E+03 0.  1.
<mgrwt>
<rscale>  2 0.18546742E+03</rscale>
<asrwt>0</asrwt>
<pdfrwt beam="1">  1       21 0.14900860E-01 0.18546742E+03</pdfrwt>
<pdfrwt beam="2">  1       21 0.57801771E-01 0.18546742E+03</pdfrwt>
<totfact> 0.11173393E+05</totfact>
</mgrwt>
</event>
<event>
 4    3  0.4009700E+000  0.1929345E+03  0.7546771E-02  0.1155841E+00
         21   -1    0    0  501  502  0.00000000000E+00  0.00000000000E+00  0.50955434339E+03  0.50955434339E+03  0.00000000000E+00 0. -1.
         21   -1    0    0  502  503 -0.00000000000E+00 -0.00000000000E+00 -0.11330145369E+03  0.11330145369E+03  0.00000000000E+00 0. -1.
          6    1    1    2  501    0 -0.50912889983E+02 -0.68575520948E+02  0.12507497913E+02  0.19333949918E+03  0.17300000000E+03 0. -1.
         -6    1    1    2    0  503  0.50912889983E+02  0.68575520948E+02  0.38374539179E+03  0.42951629790E+03  0.17300000000E+03 0. -1.
<mgrwt>
<rscale>  2 0.19293451E+03</rscale>
<asrwt>0</asrwt>
<pdfrwt beam="1">  1       21 0.78392975E-01 0.19293451E+03</pdfrwt>
<pdfrwt beam="2">  1       21 0.17430993E-01 0.19293451E+03</pdfrwt>
<totfact> 0.42889314E+04</totfact>
</mgrwt>
</event>
<event>
 4    3  0.4009700E+000  0.3336545E+03  0.7546771E-02  0.1069531E+00
         21   -1    0    0  503  502  0.00000000000E+00  0.00000000000E+00  0.14283619781E+04  0.14283619781E+04  0.00000000000E+00 0. -1.
         21   -1    0    0  501  503 -0.00000000000E+00 -0.00000000000E+00 -0.12062734636E+03  0.12062734636E+03  0.00000000000E+00 0.  1.
          6    1    1    2  501    0 -0.28324235630E+03 -0.34206977363E+02  0.19313430121E+03  0.38552069725E+03  0.17300000000E+03 0.  1.
         -6    1    1    2    0  502  0.28324235630E+03  0.34206977363E+02  0.11146003305E+04  0.11634686272E+04  0.17300000000E+03 0. -1.
<mgrwt>
<rscale>  2 0.33365454E+03</rscale>
<asrwt>0</asrwt>
<pdfrwt beam="1">  1       21 0.21974798E+00 0.33365454E+03</pdfrwt>
<pdfrwt beam="2">  1       21 0.18558054E-01 0.33365454E+03</pdfrwt>
<totfact> 0.23942659E+03</totfact>
</mgrwt>
</event>
<event>
 4    3  0.4009700E+000  0.3029333E+03  0.7546771E-02  0.1083783E+00
         21   -1    0    0  503  502  0.00000000000E+00  0.00000000000E+00  0.29970054172E+03  0.29970054172E+03  0.00000000000E+00 0. -1.
         21   -1    0    0  501  503 -0.00000000000E+00 -0.00000000000E+00 -0.31635834915E+03  0.31635834915E+03  0.00000000000E+00 0.  1.
          6    1    1    2  501    0 -0.24773125328E+03  0.21652370340E+02 -0.63523078419E+02  0.30952185784E+03  0.17300000000E+03 0.  1.
         -6    1    1    2    0  502  0.24773125328E+03 -0.21652370340E+02  0.46865270991E+02  0.30653703303E+03  0.17300000000E+03 0. -1.
<mgrwt>
<rscale>  2 0.30293332E+03</rscale>
<asrwt>0</asrwt>
<pdfrwt beam="1">  1       21 0.46107775E-01 0.30293332E+03</pdfrwt>
<pdfrwt beam="2">  1       21 0.48670516E-01 0.30293332E+03</pdfrwt>
<totfact> 0.17182255E+04</totfact>
</mgrwt>
</event>
<event>
 4    3  0.4009700E+000  0.3463215E+03  0.7546771E-02  0.1064135E+00
         21   -1    0    0  501  502  0.00000000000E+00  0.00000000000E+00  0.86175139165E+03  0.86175139165E+03  0.00000000000E+00 0.  1.
         21   -1    0    0  502  503 -0.00000000000E+00 -0.00000000000E+00 -0.14233081287E+03  0.14233081287E+03  0.00000000000E+00 0.  1.
          6    1    1    2  501    0 -0.25320169259E+03  0.16093014055E+03  0.28501430935E+03  0.44852175399E+03  0.17300000000E+03 0.  1.
         -6    1    1    2    0  503  0.25320169259E+03 -0.16093014055E+03  0.43440626943E+03  0.55556045053E+03  0.17300000000E+03 0.  1.
<mgrwt>
<rscale>  2 0.34632154E+03</rscale>
<asrwt>0</asrwt>
<pdfrwt beam="1">  1       21 0.13257713E+00 0.34632154E+03</pdfrwt>
<pdfrwt beam="2">  1       21 0.21897049E-01 0.34632154E+03</pdfrwt>
<totfact> 0.73281912E+03</totfact>
</mgrwt>
</event>
<event>
 4    3  0.4009700E+000  0.1746539E+03  0.7546771E-02  0.1173080E+00
         21   -1    0    0  501  502  0.00000000000E+00  0.00000000000E+00  0.84841262252E+03  0.84841262252E+03  0.00000000000E+00 0. -1.
         21   -1    0    0  502  503 -0.00000000000E+00 -0.00000000000E+00 -0.79559397955E+02  0.79559397955E+02  0.00000000000E+00 0. -1.
          6    1    1    2  501    0 -0.78680708749E+01  0.22651118274E+02  0.72792790485E+03  0.74858734585E+03  0.17300000000E+03 0. -1.
         -6    1    1    2    0  503  0.78680708749E+01 -0.22651118274E+02  0.40925319715E+02  0.17938467463E+03  0.17300000000E+03 0. -1.
<mgrwt>
<rscale>  2 0.17465389E+03</rscale>
<asrwt>0</asrwt>
<pdfrwt beam="1">  1       21 0.13052501E+00 0.17465389E+03</pdfrwt>
<pdfrwt beam="2">  1       21 0.12239908E-01 0.17465389E+03</pdfrwt>
<totfact> 0.24511430E+04</totfact>
</mgrwt>
</event>
<event>
 4    3  0.4009700E+000  0.2836939E+03  0.7546771E-02  0.1093688E+00
         21   -1    0    0  503  502  0.00000000000E+00  0.00000000000E+00  0.48001054191E+03  0.48001054191E+03  0.00000000000E+00 0.  1.
         21   -1    0    0  501  503 -0.00000000000E+00 -0.00000000000E+00 -0.18739503275E+03  0.18739503275E+03  0.00000000000E+00 0. -1.
          6    1    1    2  501    0  0.14075844972E+03  0.17532913078E+03  0.38035943642E+02  0.28623238509E+03  0.17300000000E+03 0.  1.
         -6    1    1    2    0  502 -0.14075844972E+03 -0.17532913078E+03  0.25457956552E+03  0.38117318957E+03  0.17300000000E+03 0.  1.
<mgrwt>
<rscale>  2 0.28369393E+03</rscale>
<asrwt>0</asrwt>
<pdfrwt beam="1">  1       21 0.73847775E-01 0.28369393E+03</pdfrwt>
<pdfrwt beam="2">  1       21 0.28830005E-01 0.28369393E+03</pdfrwt>
<totfact> 0.18065567E+04</totfact>
</mgrwt>
</event>
<event>
 4    3  0.4009700E+000  0.3480168E+03  0.7546771E-02  0.1063432E+00
         21   -1    0    0  501  502  0.00000000000E+00  0.00000000000E+00  0.39254275258E+03  0.39254275258E+03  0.00000000000E+00 0. -1.
         21   -1    0    0  502  503 -0.00000000000E+00 -0.00000000000E+00 -0.30863481148E+03  0.30863481148E+03  0.00000000000E+00 0.  1.
          6    1    1    2  501    0 -0.70959015464E+02  0.29351583125E+03  0.48050329655E+02  0.35131831613E+03  0.17300000000E+03 0. -1.
         -6    1    1    2    0  503  0.70959015464E+02 -0.29351583125E+03  0.35857611448E+02  0.34985924794E+03  0.17300000000E+03 0.  1.
<mgrwt>
<rscale>  2 0.34801685E+03</rscale>
<asrwt>0</asrwt>
<pdfrwt beam="1">  1       21 0.60391193E-01 0.34801685E+03</pdfrwt>
<pdfrwt beam="2">  1       21 0.47482278E-01 0.34801685E+03</pdfrwt>
<totfact> 0.10004894E+04</totfact>
</mgrwt>
</event>
<event>
 4    3  0.4009700E+000  0.2655612E+03  0.7546771E-02  0.1103847E+00
         21   -1    0    0  501  502  0.00000000000E+00  0.00000000000E+00  0.79909507652E+03  0.79909507652E+03  0.00000000000E+00 0.  1.
         21   -1    0    0  502  503 -0.00000000000E+00 -0.00000000000E+00 -0.90446902260E+02  0.90446902260E+02  0.00000000000E+00 0.  1.
          6    1    1    2  501    0  0.22342659540E+02  0.20023626284E+03  0.28505789919E+03  0.38959050461E+03  0.17300000000E+03 0.  1.
         -6    1    1    2    0  503 -0.22342659540E+02 -0.20023626284E+03  0.42359027507E+03  0.49995147417E+03  0.17300000000E+03 0.  1.
<mgrwt>
<rscale>  2 0.26556121E+03</rscale>
<asrwt>0</asrwt>
<pdfrwt beam="1">  1       21 0.12293770E+00 0.26556121E+03</pdfrwt>
<pdfrwt beam="2">  1       21 0.13914909E-01 0.26556121E+03</pdfrwt>
<totfact> 0.21467817E+04</totfact>
</mgrwt>
</event>
<event>
 4    3  0.4009700E+000  0.2080846E+03  0.7546771E-02  0.1143092E+00
         21   -1    0    0  501  502  0.00000000000E+00  0.00000000000E+00  0.37505334468E+03  0.37505334468E+03  0.00000000000E+00 0.  1.
         21   -1    0    0  502  503 -0.00000000000E+00 -0.00000000000E+00 -0.96114892140E+03  0.96114892140E+03  0.00000000000E+00 0.  1.
          6    1    1    2  501    0  0.17850932695E+02  0.11424329999E+03  0.33364579632E+03  0.39321585013E+03  0.17300000000E+03 0.  1.
         -6    1    1    2    0  503 -0.17850932695E+02 -0.11424329999E+03 -0.91974137304E+03  0.94298641595E+03  0.17300000000E+03 0.  1.
<mgrwt>
<rscale>  2 0.20808457E+03</rscale>
<asrwt>0</asrwt>
<pdfrwt beam="1">  1       21 0.57700515E-01 0.20808457E+03</pdfrwt>
<pdfrwt beam="2">  1       21 0.14786906E+00 0.20808457E+03</pdfrwt>
<totfact> 0.86038505E+02</totfact>
</mgrwt>
</event>
<event>
 4    3  0.4009700E+000  0.2430875E+03  0.7546771E-02  0.1117753E+00
         21   -1    0    0  503  502  0.00000000000E+00  0.00000000000E+00  0.59951790040E+02  0.59951790040E+02  0.00000000000E+00 0. -1.
         21   -1    0    0  501  503 -0.00000000000E+00 -0.00000000000E+00 -0.11745799046E+04  0.11745799046E+04  0.00000000000E+00 0. -1.
          6    1    1    2  501    0  0.15426923300E+03 -0.73236172631E+02 -0.30975413766E+03  0.39375012258E+03  0.17300000000E+03 0. -1.
         -6    1    1    2    0  502 -0.15426923300E+03  0.73236172631E+02 -0.80487397689E+03  0.84078157206E+03  0.17300000000E+03 0. -1.
<mgrwt>
<rscale>  2 0.24308750E+03</rscale>
<asrwt>0</asrwt>
<pdfrwt beam="1">  1       21 0.92233526E-02 0.24308750E+03</pdfrwt>
<pdfrwt beam="2">  1       21 0.18070460E+00 0.24308750E+03</pdfrwt>
<totfact> 0.16265946E+04</totfact>
</mgrwt>
</event>
<event>
 4    3  0.4009700E+000  0.1857189E+03  0.7546771E-02  0.1162380E+00
         21   -1    0    0  503  502  0.00000000000E+00  0.00000000000E+00  0.10483978476E+03  0.10483978476E+03  0.00000000000E+00 0. -1.
         21   -1    0    0  501  503 -0.00000000000E+00 -0.00000000000E+00 -0.53670547191E+03  0.53670547191E+03  0.00000000000E+00 0. -1.
          6    1    1    2  501    0  0.13571658626E+02  0.66168971947E+02 -0.41548705730E+03  0.45510550156E+03  0.17300000000E+03 0. -1.
         -6    1    1    2    0  502 -0.13571658626E+02 -0.66168971947E+02 -0.16378629850E+02  0.18643975510E+03  0.17300000000E+03 0. -1.
<mgrwt>
<rscale>  2 0.18571893E+03</rscale>
<asrwt>0</asrwt>
<pdfrwt beam="1">  1       21 0.16129198E-01 0.18571893E+03</pdfrwt>
<pdfrwt beam="2">  1       21 0.82570073E-01 0.18571893E+03</pdfrwt>
<totfact> 0.44138328E+04</totfact>
</mgrwt>
</event>
<event>
 4    3  0.4009700E+000  0.2561770E+03  0.7546771E-02  0.1109462E+00
         21   -1    0    0  503  502  0.00000000000E+00  0.00000000000E+00  0.53856967084E+03  0.53856967084E+03  0.00000000000E+00 0. -1.
         21   -1    0    0  501  503 -0.00000000000E+00 -0.00000000000E+00 -0.13212633123E+03  0.13212633123E+03  0.00000000000E+00 0. -1.
          6    1    1    2  501    0  0.18875052937E+03  0.84209611094E+01  0.10971488035E+03  0.27868266880E+03  0.17300000000E+03 0. -1.
         -6    1    1    2    0  502 -0.18875052937E+03 -0.84209611094E+01  0.29672845926E+03  0.39201333327E+03  0.17300000000E+03 0. -1.
<mgrwt>
<rscale>  2 0.25617704E+03</rscale>
<asrwt>0</asrwt>
<pdfrwt beam="1">  1       21 0.82856871E-01 0.25617704E+03</pdfrwt>
<pdfrwt beam="2">  1       21 0.20327128E-01 0.25617704E+03</pdfrwt>
<totfact> 0.27531339E+04</totfact>
</mgrwt>
</event>
<event>
 4    3  0.4009700E+000  0.2323801E+03  0.7546771E-02  0.1124976E+00
         21   -1    0    0  503  502  0.00000000000E+00  0.00000000000E+00  0.86717009550E+03  0.86717009550E+03  0.00000000000E+00 0. -1.
         21   -1    0    0  501  503 -0.00000000000E+00 -0.00000000000E+00 -0.10848579926E+03  0.10848579926E+03  0.00000000000E+00 0.  1.
          6    1    1    2  501    0 -0.19526731016E+02 -0.15391619350E+03  0.60947558599E+02  0.24023965690E+03  0.17300000000E+03 0. -1.
         -6    1    1    2    0  502  0.19526731016E+02  0.15391619350E+03  0.69773673764E+03  0.73541623786E+03  0.17300000000E+03 0. -1.
<mgrwt>
<rscale>  2 0.23238005E+03</rscale>
<asrwt>0</asrwt>
<pdfrwt beam="1">  1       21 0.13341078E+00 0.23238005E+03</pdfrwt>
<pdfrwt beam="2">  1       21 0.16690124E-01 0.23238005E+03</pdfrwt>
<totfact> 0.12722550E+04</totfact>
</mgrwt>
</event>
<event>
 4    3  0.4009700E+000  0.5690697E+03  0.7546771E-02  0.9971739E-01
         21   -1    0    0  501  502  0.00000000000E+00  0.00000000000E+00  0.11307064492E+04  0.11307064492E+04  0.00000000000E+00 0.  1.
         21   -1    0    0  502  503 -0.00000000000E+00 -0.00000000000E+00 -0.28715224026E+03  0.28715224026E+03  0.00000000000E+00 0. -1.
          6    1    1    2  501    0 -0.53969646361E+03 -0.51372164782E+02  0.38562144242E+03  0.68741855445E+03  0.17300000000E+03 0. -1.
         -6    1    1    2    0  503  0.53969646361E+03  0.51372164782E+02  0.45793276648E+03  0.73044013496E+03  0.17300000000E+03 0.  1.
<mgrwt>
<rscale>  2 0.56906974E+03</rscale>
<asrwt>0</asrwt>
<pdfrwt beam="1">  1       21 0.17395484E+00 0.56906974E+03</pdfrwt>
<pdfrwt beam="2">  1       21 0.44177268E-01 0.56906974E+03</pdfrwt>
<totfact> 0.78675321E+02</totfact>
</mgrwt>
</event>
<event>
 4    3  0.4009700E+000  0.2190166E+03  0.7546771E-02  0.1134618E+00
         21   -1    0    0  501  502  0.00000000000E+00  0.00000000000E+00  0.11741263590E+03  0.11741263590E+03  0.00000000000E+00 0. -1.
         21   -1    0    0  502  503 -0.00000000000E+00 -0.00000000000E+00 -0.67756571189E+03  0.67756571189E+03  0.00000000000E+00 0.  1.
          6    1    1    2  501    0 -0.11394745575E+03  0.71100275646E+02 -0.29613895538E+02  0.22100962576E+03  0.17300000000E+03 0. -1.
         -6    1    1    2    0  503  0.11394745575E+03 -0.71100275646E+02 -0.53053918045E+03  0.57396872202E+03  0.17300000000E+03 0.  1.
<mgrwt>
<rscale>  2 0.21901660E+03</rscale>
<asrwt>0</asrwt>
<pdfrwt beam="1">  1       21 0.18063482E-01 0.21901660E+03</pdfrwt>
<pdfrwt beam="2">  1       21 0.10424088E+00 0.21901660E+03</pdfrwt>
<totfact> 0.20409431E+04</totfact>
</mgrwt>
</event>
<event>
 4    3  0.4009700E+000  0.1824619E+03  0.7546771E-02  0.1165441E+00
         21   -1    0    0  503  502  0.00000000000E+00  0.00000000000E+00  0.89182408092E+02  0.89182408092E+02  0.00000000000E+00 0. -1.
         21   -1    0    0  501  503 -0.00000000000E+00 -0.00000000000E+00 -0.40258937039E+03  0.40258937039E+03  0.00000000000E+00 0. -1.
          6    1    1    2  501    0 -0.55968237079E+02  0.15196001662E+02 -0.22301823445E+03  0.28814839046E+03  0.17300000000E+03 0. -1.
         -6    1    1    2    0  502  0.55968237079E+02 -0.15196001662E+02 -0.90388727852E+02  0.20362338803E+03  0.17300000000E+03 0. -1.
<mgrwt>
<rscale>  2 0.18246195E+03</rscale>
<asrwt>0</asrwt>
<pdfrwt beam="1">  1       21 0.13720370E-01 0.18246195E+03</pdfrwt>
<pdfrwt beam="2">  1       21 0.61936827E-01 0.18246195E+03</pdfrwt>
<totfact> 0.11201815E+05</totfact>
</mgrwt>
</event>
<event>
 4    3  0.4009700E+000  0.2013350E+03  0.7546771E-02  0.1148618E+00
         21   -1    0    0  501  502  0.00000000000E+00  0.00000000000E+00  0.39606005554E+03  0.39606005554E+03  0.00000000000E+00 0. -1.
         21   -1    0    0  502  503 -0.00000000000E+00 -0.00000000000E+00 -0.12107243348E+03  0.12107243348E+03  0.00000000000E+00 0.  1.
          6    1    1    2  501    0  0.22121114884E+02  0.10058552168E+03  0.23917914694E+03  0.31263789794E+03  0.17300000000E+03 0. -1.
         -6    1    1    2    0  503 -0.22121114884E+02 -0.10058552168E+03  0.35808475122E+02  0.20449459109E+03  0.17300000000E+03 0.  1.
<mgrwt>
<rscale>  2 0.20133502E+03</rscale>
<asrwt>0</asrwt>
<pdfrwt beam="1">  1       21 0.60932316E-01 0.20133502E+03</pdfrwt>
<pdfrwt beam="2">  1       21 0.18626528E-01 0.20133502E+03</pdfrwt>
<totfact> 0.65794321E+04</totfact>
</mgrwt>
</event>
<event>
 4    3  0.4009700E+000  0.2294039E+03  0.7546771E-02  0.1127060E+00
         21   -1    0    0  501  502  0.00000000000E+00  0.00000000000E+00  0.32088215940E+03  0.32088215940E+03  0.00000000000E+00 0. -1.
         21   -1    0    0  502  503 -0.00000000000E+00 -0.00000000000E+00 -0.20381888984E+03  0.20381888984E+03  0.00000000000E+00 0. -1.
          6    1    1    2  501    0 -0.26550892445E+02  0.14829768442E+03  0.17448387901E+03  0.28822001514E+03  0.17300000000E+03 0. -1.
         -6    1    1    2    0  503  0.26550892445E+02 -0.14829768442E+03 -0.57420609449E+02  0.23648103409E+03  0.17300000000E+03 0. -1.
<mgrwt>
<rscale>  2 0.22940391E+03</rscale>
<asrwt>0</asrwt>
<pdfrwt beam="1">  1       21 0.49366486E-01 0.22940391E+03</pdfrwt>
<pdfrwt beam="2">  1       21 0.31356752E-01 0.22940391E+03</pdfrwt>
<totfact> 0.37551756E+04</totfact>
</mgrwt>
</event>
<event>
 4    3  0.4009700E+000  0.2719654E+03  0.7546771E-02  0.1100160E+00
         21   -1    0    0  503  502  0.00000000000E+00  0.00000000000E+00  0.41629195635E+03  0.41629195635E+03  0.00000000000E+00 0. -1.
         21   -1    0    0  501  503 -0.00000000000E+00 -0.00000000000E+00 -0.23144133671E+03  0.23144133671E+03  0.00000000000E+00 0.  1.
          6    1    1    2  501    0  0.20488069083E+03  0.45388028149E+02 -0.63672266383E+02  0.27931940155E+03  0.17300000000E+03 0.  1.
         -6    1    1    2    0  502 -0.20488069083E+03 -0.45388028149E+02  0.24852288602E+03  0.36841389150E+03  0.17300000000E+03 0. -1.
<mgrwt>
<rscale>  2 0.27196538E+03</rscale>
<asrwt>0</asrwt>
<pdfrwt beam="1">  1       21 0.64044916E-01 0.27196538E+03</pdfrwt>
<pdfrwt beam="2">  1       21 0.35606360E-01 0.27196538E+03</pdfrwt>
<totfact> 0.16395761E+04</totfact>
</mgrwt>
</event>
<event>
 4    3  0.4009700E+000  0.1794654E+03  0.7546771E-02  0.1168321E+00
         21   -1    0    0  503  502  0.00000000000E+00  0.00000000000E+00  0.15368155802E+03  0.15368155802E+03  0.00000000000E+00 0. -1.
         21   -1    0    0  501  503 -0.00000000000E+00 -0.00000000000E+00 -0.27140823502E+03  0.27140823502E+03  0.00000000000E+00 0. -1.
          6    1    1    2  501    0  0.44609662081E+02 -0.16994595586E+02 -0.16031275837E+03  0.24064085008E+03  0.17300000000E+03 0. -1.
         -6    1    1    2    0  502 -0.44609662081E+02  0.16994595586E+02  0.42586081376E+02  0.18444894295E+03  0.17300000000E+03 0. -1.
<mgrwt>
<rscale>  2 0.17946542E+03</rscale>
<asrwt>0</asrwt>
<pdfrwt beam="1">  1       21 0.23643317E-01 0.17946542E+03</pdfrwt>
<pdfrwt beam="2">  1       21 0.41755112E-01 0.17946542E+03</pdfrwt>
<totfact> 0.93479359E+04</totfact>
</mgrwt>
</event>
<event>
 4    3  0.4009700E+000  0.1938230E+03  0.7546771E-02  0.1155058E+00
         21   -1    0    0  501  502  0.00000000000E+00  0.00000000000E+00  0.46534207896E+02  0.46534207896E+02  0.00000000000E+00 0.  1.
         21   -1    0    0  502  503 -0.00000000000E+00 -0.00000000000E+00 -0.87574850155E+03  0.87574850155E+03  0.00000000000E+00 0. -1.
          6    1    1    2  501    0 -0.53318643254E+02 -0.69249497265E+02 -0.28569151587E+03  0.34523472136E+03  0.17300000000E+03 0.  1.
         -6    1    1    2    0  503  0.53318643254E+02  0.69249497265E+02 -0.54352277778E+03  0.57704798809E+03  0.17300000000E+03 0. -1.
<mgrwt>
<rscale>  2 0.19382304E+03</rscale>
<asrwt>0</asrwt>
<pdfrwt beam="1">  1       21 0.71591095E-02 0.19382304E+03</pdfrwt>
<pdfrwt beam="2">  1       21 0.13473053E+00 0.19382304E+03</pdfrwt>
<totfact> 0.57417022E+04</totfact>
</mgrwt>
</event>
<event>
 4    3  0.4009700E+000  0.1778891E+03  0.7546771E-02  0.1169862E+00
         21   -1    0    0  501  502  0.00000000000E+00  0.00000000000E+00  0.29413766089E+03  0.29413766089E+03  0.00000000000E+00 0.  1.
         21   -1    0    0  502  503 -0.00000000000E+00 -0.00000000000E+00 -0.11798804047E+03  0.11798804047E+03  0.00000000000E+00 0.  1.
          6    1    1    2  501    0  0.41414902284E+02  0.57386808478E+00  0.14926481608E+03  0.23221651271E+03  0.17300000000E+03 0.  1.
         -6    1    1    2    0  503 -0.41414902284E+02 -0.57386808478E+00  0.26884804345E+02  0.17990918865E+03  0.17300000000E+03 0.  1.
<mgrwt>
<rscale>  2 0.17788908E+03</rscale>
<asrwt>0</asrwt>
<pdfrwt beam="1">  1       21 0.45251948E-01 0.17788908E+03</pdfrwt>
<pdfrwt beam="2">  1       21 0.18152006E-01 0.17788908E+03</pdfrwt>
<totfact> 0.13015270E+05</totfact>
</mgrwt>
</event>
<event>
 4    3  0.4009700E+000  0.1797298E+03  0.7546771E-02  0.1168065E+00
         21   -1    0    0  503  502  0.00000000000E+00  0.00000000000E+00  0.29471508519E+03  0.29471508519E+03  0.00000000000E+00 0. -1.
         21   -1    0    0  501  503 -0.00000000000E+00 -0.00000000000E+00 -0.13108589863E+03  0.13108589863E+03  0.00000000000E+00 0.  1.
          6    1    1    2  501    0  0.92927229548E+01  0.47827297876E+02  0.16799444692E+03  0.24601816867E+03  0.17300000000E+03 0. -1.
         -6    1    1    2    0  502 -0.92927229548E+01 -0.47827297876E+02 -0.43652603568E+01  0.17978281514E+03  0.17300000000E+03 0.  1.
<mgrwt>
<rscale>  2 0.17972981E+03</rscale>
<asrwt>0</asrwt>
<pdfrwt beam="1">  1       21 0.45340782E-01 0.17972981E+03</pdfrwt>
<pdfrwt beam="2">  1       21 0.20167061E-01 0.17972981E+03</pdfrwt>
<totfact> 0.10654612E+05</totfact>
</mgrwt>
</event>
<event>
 4    3  0.4009700E+000  0.2008405E+03  0.7546771E-02  0.1149032E+00
         21   -1    0    0  503  502  0.00000000000E+00  0.00000000000E+00  0.24743270968E+03  0.24743270968E+03  0.00000000000E+00 0. -1.
         21   -1    0    0  501  503 -0.00000000000E+00 -0.00000000000E+00 -0.26305956074E+03  0.26305956074E+03  0.00000000000E+00 0. -1.
          6    1    1    2  501    0  0.91923208058E+02 -0.44249707686E+02 -0.16521686708E+03  0.26006446504E+03  0.17300000000E+03 0. -1.
         -6    1    1    2    0  502 -0.91923208058E+02  0.44249707686E+02  0.14959001603E+03  0.25042780538E+03  0.17300000000E+03 0. -1.
<mgrwt>
<rscale>  2 0.20084052E+03</rscale>
<asrwt>0</asrwt>
<pdfrwt beam="1">  1       21 0.38066571E-01 0.20084052E+03</pdfrwt>
<pdfrwt beam="2">  1       21 0.40470701E-01 0.20084052E+03</pdfrwt>
<totfact> 0.38984597E+04</totfact>
</mgrwt>
</event>
<event>
 4    3  0.4009700E+000  0.1872567E+03  0.7546771E-02  0.1160959E+00
         21   -1    0    0  503  502  0.00000000000E+00  0.00000000000E+00  0.55267863329E+02  0.55267863329E+02  0.00000000000E+00 0.  1.
         21   -1    0    0  501  503 -0.00000000000E+00 -0.00000000000E+00 -0.73201377589E+03  0.73201377589E+03  0.00000000000E+00 0.  1.
          6    1    1    2  501    0  0.36033448632E+02  0.61948803089E+02 -0.48207733144E+03  0.51716884778E+03  0.17300000000E+03 0.  1.
         -6    1    1    2    0  502 -0.36033448632E+02 -0.61948803089E+02 -0.19466858112E+03  0.27011279144E+03  0.17300000000E+03 0.  1.
<mgrwt>
<rscale>  2 0.18725668E+03</rscale>
<asrwt>0</asrwt>
<pdfrwt beam="1">  1       21 0.85027483E-02 0.18725668E+03</pdfrwt>
<pdfrwt beam="2">  1       21 0.11261750E+00 0.18725668E+03</pdfrwt>
<totfact> 0.66734779E+04</totfact>
</mgrwt>
</event>
<event>
 4    3  0.4009700E+000  0.1739726E+03  0.7546771E-02  0.1173767E+00
         21   -1    0    0  503  502  0.00000000000E+00  0.00000000000E+00  0.55775831382E+02  0.55775831382E+02  0.00000000000E+00 0. -1.
         21   -1    0    0  501  503 -0.00000000000E+00 -0.00000000000E+00 -0.78902913644E+03  0.78902913644E+03  0.00000000000E+00 0. -1.
          6    1    1    2  501    0 -0.11222635525E+02  0.14543307415E+02 -0.60266721502E+03  0.62727524055E+03  0.17300000000E+03 0. -1.
         -6    1    1    2    0  502  0.11222635525E+02 -0.14543307415E+02 -0.13058609004E+03  0.21752972728E+03  0.17300000000E+03 0. -1.
<mgrwt>
<rscale>  2 0.17397257E+03</rscale>
<asrwt>0</asrwt>
<pdfrwt beam="1">  1       21 0.85808980E-02 0.17397257E+03</pdfrwt>
<pdfrwt beam="2">  1       21 0.12138909E+00 0.17397257E+03</pdfrwt>
<totfact> 0.55025986E+04</totfact>
</mgrwt>
</event>
<event>
 4    3  0.4009700E+000  0.2276414E+03  0.7546771E-02  0.1128311E+00
         21   -1    0    0  503  502  0.00000000000E+00  0.00000000000E+00  0.17080316513E+03  0.17080316513E+03  0.00000000000E+00 0.  1.
         21   -1    0    0  501  503 -0.00000000000E+00 -0.00000000000E+00 -0.47516892792E+03  0.47516892792E+03  0.00000000000E+00 0.  1.
          6    1    1    2  501    0 -0.10780699304E+03 -0.10133741060E+03 -0.34637871349E+03  0.41448622618E+03  0.17300000000E+03 0.  1.
         -6    1    1    2    0  502  0.10780699304E+03  0.10133741060E+03  0.42012950694E+02  0.23148586688E+03  0.17300000000E+03 0.  1.
<mgrwt>
<rscale>  2 0.22764143E+03</rscale>
<asrwt>0</asrwt>
<pdfrwt beam="1">  1       21 0.26277411E-01 0.22764143E+03</pdfrwt>
<pdfrwt beam="2">  1       21 0.73102910E-01 0.22764143E+03</pdfrwt>
<totfact> 0.22724202E+04</totfact>
</mgrwt>
</event>
<event>
 4    3  0.4009700E+000  0.2621629E+03  0.7546771E-02  0.1105851E+00
         21   -1    0    0  503  502  0.00000000000E+00  0.00000000000E+00  0.52184348428E+03  0.52184348428E+03  0.00000000000E+00 0.  1.
         21   -1    0    0  501  503 -0.00000000000E+00 -0.00000000000E+00 -0.17268532420E+03  0.17268532420E+03  0.00000000000E+00 0. -1.
          6    1    1    2  501    0  0.40917442481E+02  0.19268147551E+03  0.54102561729E+01  0.26221872354E+03  0.17300000000E+03 0. -1.
         -6    1    1    2    0  502 -0.40917442481E+02 -0.19268147551E+03  0.34374790391E+03  0.43231008494E+03  0.17300000000E+03 0.  1.
<mgrwt>
<rscale>  2 0.26216290E+03</rscale>
<asrwt>0</asrwt>
<pdfrwt beam="1">  1       21 0.80283612E-01 0.26216290E+03</pdfrwt>
<pdfrwt beam="2">  1       21 0.26566973E-01 0.26216290E+03</pdfrwt>
<totfact> 0.17703140E+04</totfact>
</mgrwt>
</event>
<event>
 4    3  0.4009700E+000  0.1820125E+03  0.7546771E-02  0.1165869E+00
         21   -1    0    0  501  502  0.00000000000E+00  0.00000000000E+00  0.19029488724E+03  0.19029488724E+03  0.00000000000E+00 0. -1.
         21   -1    0    0  502  503 -0.00000000000E+00 -0.00000000000E+00 -0.22051402045E+03  0.22051402045E+03  0.00000000000E+00 0.  1.
          6    1    1    2  501    0  0.52406412873E+01 -0.56321262153E+02  0.79135879547E+02  0.19847175195E+03  0.17300000000E+03 0. -1.
         -6    1    1    2    0  503 -0.52406412873E+01  0.56321262153E+02 -0.10935501275E+03  0.21233715574E+03  0.17300000000E+03 0. -1.
<mgrwt>
<rscale>  2 0.18201250E+03</rscale>
<asrwt>0</asrwt>
<pdfrwt beam="1">  1       21 0.29276136E-01 0.18201250E+03</pdfrwt>
<pdfrwt beam="2">  1       21 0.33925234E-01 0.18201250E+03</pdfrwt>
<totfact> 0.93927152E+04</totfact>
</mgrwt>
</event>
<event>
 4    3  0.4009700E+000  0.1967675E+03  0.7546771E-02  0.1152495E+00
         21   -1    0    0  501  502  0.00000000000E+00  0.00000000000E+00  0.19629218252E+03  0.19629218252E+03  0.00000000000E+00 0.  1.
         21   -1    0    0  502  503 -0.00000000000E+00 -0.00000000000E+00 -0.21536199143E+03  0.21536199143E+03  0.00000000000E+00 0.  1.
          6    1    1    2  501    0  0.37707820303E+02  0.85828828528E+02  0.50164812784E+02  0.20306150782E+03  0.17300000000E+03 0. -1.
         -6    1    1    2    0  503 -0.37707820303E+02 -0.85828828528E+02 -0.69234621701E+02  0.20859266612E+03  0.17300000000E+03 0. -1.
<mgrwt>
<rscale>  2 0.19676755E+03</rscale>
<asrwt>0</asrwt>
<pdfrwt beam="1">  1       21 0.30198797E-01 0.19676755E+03</pdfrwt>
<pdfrwt beam="2">  1       21 0.33132614E-01 0.19676755E+03</pdfrwt>
<totfact> 0.92115498E+04</totfact>
</mgrwt>
</event>
<event>
 4    3  0.4009700E+000  0.1889749E+03  0.7546771E-02  0.1159389E+00
         21   -1    0    0  503  502  0.00000000000E+00  0.00000000000E+00  0.18961737025E+02  0.18961737025E+02  0.00000000000E+00 0.  1.
         21   -1    0    0  501  503 -0.00000000000E+00 -0.00000000000E+00 -0.20689077912E+04  0.20689077912E+04  0.00000000000E+00 0.  1.
          6    1    1    2  501    0 -0.31713404752E+02 -0.69114190600E+02 -0.13376148561E+04  0.13508978550E+04  0.17300000000E+03 0.  1.
         -6    1    1    2    0  502  0.31713404752E+02  0.69114190600E+02 -0.71233119804E+03  0.73697167319E+03  0.17300000000E+03 0.  1.
<mgrwt>
<rscale>  2 0.18897490E+03</rscale>
<asrwt>0</asrwt>
<pdfrwt beam="1">  1       21 0.29171880E-02 0.18897490E+03</pdfrwt>
<pdfrwt beam="2">  1       21 0.31829376E+00 0.18897490E+03</pdfrwt>
<totfact> 0.17813920E+04</totfact>
</mgrwt>
</event>
<event>
 4    3  0.4009700E+000  0.2131612E+03  0.7546771E-02  0.1139087E+00
         21   -1    0    0  501  502  0.00000000000E+00  0.00000000000E+00  0.16360912284E+03  0.16360912284E+03  0.00000000000E+00 0.  1.
         21   -1    0    0  502  503 -0.00000000000E+00 -0.00000000000E+00 -0.30264470917E+03  0.30264470917E+03  0.00000000000E+00 0. -1.
          6    1    1    2  501    0 -0.95547245790E+02 -0.79871304151E+02 -0.13641863201E+03  0.25307655870E+03  0.17300000000E+03 0. -1.
         -6    1    1    2    0  503  0.95547245790E+02  0.79871304151E+02 -0.26169543209E+01  0.21317727331E+03  0.17300000000E+03 0.  1.
<mgrwt>
<rscale>  2 0.21316121E+03</rscale>
<asrwt>0</asrwt>
<pdfrwt beam="1">  1       21 0.25170634E-01 0.21316121E+03</pdfrwt>
<pdfrwt beam="2">  1       21 0.46560725E-01 0.21316121E+03</pdfrwt>
<totfact> 0.65441691E+04</totfact>
</mgrwt>
</event>
<event>
 4    3  0.4009700E+000  0.1737076E+03  0.7546771E-02  0.1174036E+00
         21   -1    0    0  503  502  0.00000000000E+00  0.00000000000E+00  0.11024830070E+03  0.11024830070E+03  0.00000000000E+00 0. -1.
         21   -1    0    0  501  503 -0.00000000000E+00 -0.00000000000E+00 -0.82003013001E+03  0.82003013001E+03  0.00000000000E+00 0. -1.
          6    1    1    2  501    0 -0.15397919393E+02 -0.28672584792E+01 -0.73455362580E+03  0.75481345131E+03  0.17300000000E+03 0. -1.
         -6    1    1    2    0  502  0.15397919393E+02  0.28672584792E+01  0.24771796493E+02  0.17546497940E+03  0.17300000000E+03 0. -1.
<mgrwt>
<rscale>  2 0.17370756E+03</rscale>
<asrwt>0</asrwt>
<pdfrwt beam="1">  1       21 0.16961277E-01 0.17370756E+03</pdfrwt>
<pdfrwt beam="2">  1       21 0.12615848E+00 0.17370756E+03</pdfrwt>
<totfact> 0.14796308E+04</totfact>
</mgrwt>
</event>
<event>
 4    3  0.4009700E+000  0.2113581E+03  0.7546771E-02  0.1140495E+00
         21   -1    0    0  501  502  0.00000000000E+00  0.00000000000E+00  0.30855120988E+02  0.30855120988E+02  0.00000000000E+00 0.  1.
         21   -1    0    0  502  503 -0.00000000000E+00 -0.00000000000E+00 -0.14718368400E+04  0.14718368400E+04  0.00000000000E+00 0. -1.
          6    1    1    2  501    0  0.84131712156E+02  0.87550519262E+02 -0.62448628233E+03  0.65928397162E+03  0.17300000000E+03 0.  1.
         -6    1    1    2    0  503 -0.84131712156E+02 -0.87550519262E+02 -0.81649543673E+03  0.84340798941E+03  0.17300000000E+03 0. -1.
<mgrwt>
<rscale>  2 0.21135808E+03</rscale>
<asrwt>0</asrwt>
<pdfrwt beam="1">  1       21 0.47469414E-02 0.21135808E+03</pdfrwt>
<pdfrwt beam="2">  1       21 0.22643645E+00 0.21135808E+03</pdfrwt>
<totfact> 0.26609045E+04</totfact>
</mgrwt>
</event>
<event>
 4    3  0.4009700E+000  0.2183603E+03  0.7546771E-02  0.1135111E+00
         21   -1    0    0  503  502  0.00000000000E+00  0.00000000000E+00  0.17444806743E+04  0.17444806743E+04  0.00000000000E+00 0. -1.
         21   -1    0    0  501  503 -0.00000000000E+00 -0.00000000000E+00 -0.27658831577E+02  0.27658831577E+02  0.00000000000E+00 0.  1.
          6    1    1    2  501    0 -0.68588901362E+02 -0.11422692539E+03  0.95463870610E+03  0.97929376954E+03  0.17300000000E+03 0.  1.
         -6    1    1    2    0  502  0.68588901362E+02  0.11422692539E+03  0.76218313660E+03  0.79284573632E+03  0.17300000000E+03 0.  1.
<mgrwt>
<rscale>  2 0.21836032E+03</rscale>
<asrwt>0</asrwt>
<pdfrwt beam="1">  1       21 0.26838156E+00 0.21836032E+03</pdfrwt>
<pdfrwt beam="2">  1       21 0.42552062E-02 0.21836032E+03</pdfrwt>
<totfact> 0.17931098E+04</totfact>
</mgrwt>
</event>
<event>
 4    3  0.4009700E+000  0.2165046E+03  0.7546771E-02  0.1136516E+00
         21   -1    0    0  501  502  0.00000000000E+00  0.00000000000E+00  0.48068469593E+03  0.48068469593E+03  0.00000000000E+00 0.  1.
         21   -1    0    0  502  503 -0.00000000000E+00 -0.00000000000E+00 -0.10130375633E+03  0.10130375633E+03  0.00000000000E+00 0.  1.
          6    1    1    2  501    0  0.66581846079E+02  0.11185755555E+03  0.24596161213E+03  0.32767570799E+03  0.17300000000E+03 0.  1.
         -6    1    1    2    0  503 -0.66581846079E+02 -0.11185755555E+03  0.13341932746E+03  0.25431274427E+03  0.17300000000E+03 0.  1.
<mgrwt>
<rscale>  2 0.21650463E+03</rscale>
<asrwt>0</asrwt>
<pdfrwt beam="1">  1       21 0.73951491E-01 0.21650463E+03</pdfrwt>
<pdfrwt beam="2">  1       21 0.15585193E-01 0.21650463E+03</pdfrwt>
<totfact> 0.59356663E+04</totfact>
</mgrwt>
</event>
<event>
 4    3  0.4009700E+000  0.2050852E+03  0.7546771E-02  0.1145518E+00
         21   -1    0    0  503  502  0.00000000000E+00  0.00000000000E+00  0.19676805744E+02  0.19676805744E+02  0.00000000000E+00 0.  1.
         21   -1    0    0  501  503 -0.00000000000E+00 -0.00000000000E+00 -0.21375461868E+04  0.21375461868E+04  0.00000000000E+00 0. -1.
          6    1    1    2  501    0 -0.18886726700E+02 -0.10850915610E+03 -0.10569974123E+04  0.10767095593E+04  0.17300000000E+03 0.  1.
         -6    1    1    2    0  502  0.18886726700E+02  0.10850915610E+03 -0.10608719688E+04  0.10805134333E+04  0.17300000000E+03 0. -1.
<mgrwt>
<rscale>  2 0.20508521E+03</rscale>
<asrwt>0</asrwt>
<pdfrwt beam="1">  1       21 0.30272008E-02 0.20508521E+03</pdfrwt>
<pdfrwt beam="2">  1       21 0.32885327E+00 0.20508521E+03</pdfrwt>
<totfact> 0.14303462E+04</totfact>
</mgrwt>
</event>
<event>
 4    3  0.4009700E+000  0.1798322E+03  0.7546771E-02  0.1167966E+00
         21   -1    0    0  503  502  0.00000000000E+00  0.00000000000E+00  0.12006566713E+03  0.12006566713E+03  0.00000000000E+00 0. -1.
         21   -1    0    0  501  503 -0.00000000000E+00 -0.00000000000E+00 -0.27000651309E+03  0.27000651309E+03  0.00000000000E+00 0. -1.
          6    1    1    2  501    0 -0.16325918420E+02  0.46304276986E+02 -0.84591654002E+02  0.19873441978E+03  0.17300000000E+03 0. -1.
         -6    1    1    2    0  502  0.16325918420E+02 -0.46304276986E+02 -0.65349191961E+02  0.19133776044E+03  0.17300000000E+03 0. -1.
<mgrwt>
<rscale>  2 0.17983220E+03</rscale>
<asrwt>0</asrwt>
<pdfrwt beam="1">  1       21 0.18471641E-01 0.17983220E+03</pdfrwt>
<pdfrwt beam="2">  1       21 0.41539463E-01 0.17983220E+03</pdfrwt>
<totfact> 0.14995489E+05</totfact>
</mgrwt>
</event>
<event>
 4    3  0.4009700E+000  0.2234807E+03  0.7546771E-02  0.1131314E+00
         21   -1    0    0  501  502  0.00000000000E+00  0.00000000000E+00  0.64105126001E+03  0.64105126001E+03  0.00000000000E+00 0.  1.
         21   -1    0    0  502  503 -0.00000000000E+00 -0.00000000000E+00 -0.16637673842E+03  0.16637673842E+03  0.00000000000E+00 0.  1.
          6    1    1    2  501    0  0.13878579848E+03  0.27443306169E+02  0.53172524680E+03  0.57678017563E+03  0.17300000000E+03 0.  1.
         -6    1    1    2    0  503 -0.13878579848E+03 -0.27443306169E+02 -0.57050725213E+02  0.23064782280E+03  0.17300000000E+03 0.  1.
<mgrwt>
<rscale>  2 0.22348072E+03</rscale>
<asrwt>0</asrwt>
<pdfrwt beam="1">  1       21 0.98623270E-01 0.22348072E+03</pdfrwt>
<pdfrwt beam="2">  1       21 0.25596421E-01 0.22348072E+03</pdfrwt>
<totfact> 0.12037533E+04</totfact>
</mgrwt>
</event>
<event>
 4    3  0.4009700E+000  0.1822080E+03  0.7546771E-02  0.1165683E+00
         21   -1    0    0  503  502  0.00000000000E+00  0.00000000000E+00  0.24989329066E+04  0.24989329066E+04  0.00000000000E+00 0.  1.
         21   -1    0    0  501  503 -0.00000000000E+00 -0.00000000000E+00 -0.53358901303E+02  0.53358901303E+02  0.00000000000E+00 0.  1.
          6    1    1    2  501    0  0.31092691672E+02  0.47999843876E+02  0.11686466165E+03  0.21646498477E+03  0.17300000000E+03 0.  1.
         -6    1    1    2    0  502 -0.31092691672E+02 -0.47999843876E+02  0.23287093436E+04  0.23358268231E+04  0.17300000000E+03 0.  1.
<mgrwt>
<rscale>  2 0.18220796E+03</rscale>
<asrwt>0</asrwt>
<pdfrwt beam="1">  1       21 0.38445113E+00 0.18220796E+03</pdfrwt>
<pdfrwt beam="2">  1       21 0.82090637E-02 0.18220796E+03</pdfrwt>
<totfact> 0.12668124E+03</totfact>
</mgrwt>
</event>
<event>
 4    3  0.4009700E+000  0.2054508E+03  0.7546771E-02  0.1145220E+00
         21   -1    0    0  503  502  0.00000000000E+00  0.00000000000E+00  0.70345312910E+03  0.70345312910E+03  0.00000000000E+00 0.  1.
         21   -1    0    0  501  503 -0.00000000000E+00 -0.00000000000E+00 -0.64071614449E+02  0.64071614449E+02  0.00000000000E+00 0. -1.
          6    1    1    2  501    0  0.72107951839E+02 -0.84151394222E+02  0.22299698307E+03  0.30321224963E+03  0.17300000000E+03 0. -1.
         -6    1    1    2    0  502 -0.72107951839E+02  0.84151394222E+02  0.41638453159E+03  0.46431249392E+03  0.17300000000E+03 0. -1.
<mgrwt>
<rscale>  2 0.20545076E+03</rscale>
<asrwt>0</asrwt>
<pdfrwt beam="1">  1       21 0.10822355E+00 0.20545076E+03</pdfrwt>
<pdfrwt beam="2">  1       21 0.98571720E-02 0.20545076E+03</pdfrwt>
<totfact> 0.56176657E+04</totfact>
</mgrwt>
</event>
<event>
 4    3  0.4009700E+000  0.2011781E+03  0.7546771E-02  0.1148749E+00
         21   -1    0    0  501  502  0.00000000000E+00  0.00000000000E+00  0.57020187340E+02  0.57020187340E+02  0.00000000000E+00 0.  1.
         21   -1    0    0  502  503 -0.00000000000E+00 -0.00000000000E+00 -0.70999660389E+03  0.70999660389E+03  0.00000000000E+00 0.  1.
          6    1    1    2  501    0  0.10118374375E+03 -0.17477971405E+02 -0.33295468643E+03  0.38901343512E+03  0.17300000000E+03 0.  1.
         -6    1    1    2    0  503 -0.10118374375E+03  0.17477971405E+02 -0.32002173011E+03  0.37800335611E+03  0.17300000000E+03 0.  1.
<mgrwt>
<rscale>  2 0.20117810E+03</rscale>
<asrwt>0</asrwt>
<pdfrwt beam="1">  1       21 0.87723368E-02 0.20117810E+03</pdfrwt>
<pdfrwt beam="2">  1       21 0.10923024E+00 0.20117810E+03</pdfrwt>
<totfact> 0.67588565E+04</totfact>
</mgrwt>
</event>
<event>
 4    3  0.4009700E+000  0.4826594E+03  0.7546771E-02  0.1018407E+00
         21   -1    0    0  503  502  0.00000000000E+00  0.00000000000E+00  0.19483421735E+04  0.19483421735E+04  0.00000000000E+00 0. -1.
         21   -1    0    0  501  503 -0.00000000000E+00 -0.00000000000E+00 -0.26745552456E+03  0.26745552456E+03  0.00000000000E+00 0.  1.
          6    1    1    2  501    0 -0.44228735488E+03 -0.86098645346E+02  0.16609604650E+02  0.48294509003E+03  0.17300000000E+03 0.  1.
         -6    1    1    2    0  502  0.44228735488E+03  0.86098645346E+02  0.16642770443E+04  0.17328526081E+04  0.17300000000E+03 0. -1.
<mgrwt>
<rscale>  2 0.48265938E+03</rscale>
<asrwt>0</asrwt>
<pdfrwt beam="1">  1       21 0.29974494E+00 0.48265938E+03</pdfrwt>
<pdfrwt beam="2">  1       21 0.41147005E-01 0.48265938E+03</pdfrwt>
<totfact> 0.14885258E+02</totfact>
</mgrwt>
</event>
<event>
 4    3  0.4009700E+000  0.1790487E+03  0.7546771E-02  0.1168727E+00
         21   -1    0    0  503  502  0.00000000000E+00  0.00000000000E+00  0.18200185516E+03  0.18200185516E+03  0.00000000000E+00 0. -1.
         21   -1    0    0  501  503 -0.00000000000E+00 -0.00000000000E+00 -0.39792017515E+03  0.39792017515E+03  0.00000000000E+00 0. -1.
          6    1    1    2  501    0 -0.46067404737E+02  0.26891939352E+01 -0.32443009833E+03  0.37055812802E+03  0.17300000000E+03 0. -1.
         -6    1    1    2    0  502  0.46067404737E+02 -0.26891939352E+01  0.10851177834E+03  0.20936390229E+03  0.17300000000E+03 0. -1.
<mgrwt>
<rscale>  2 0.17904870E+03</rscale>
<asrwt>0</asrwt>
<pdfrwt beam="1">  1       21 0.28000286E-01 0.17904870E+03</pdfrwt>
<pdfrwt beam="2">  1       21 0.61218488E-01 0.17904870E+03</pdfrwt>
<totfact> 0.30457101E+04</totfact>
</mgrwt>
</event>
<event>
 4    3  0.4009700E+000  0.2014865E+03  0.7546771E-02  0.1148491E+00
         21   -1    0    0  501  502  0.00000000000E+00  0.00000000000E+00  0.17332723401E+03  0.17332723401E+03  0.00000000000E+00 0.  1.
         21   -1    0    0  502  503 -0.00000000000E+00 -0.00000000000E+00 -0.28673598023E+03  0.28673598023E+03  0.00000000000E+00 0. -1.
          6    1    1    2  501    0 -0.87010041097E+02  0.55651400755E+02  0.41739631273E+02  0.20576448303E+03  0.17300000000E+03 0.  1.
         -6    1    1    2    0  503  0.87010041097E+02 -0.55651400755E+02 -0.15514837749E+03  0.25429873121E+03  0.17300000000E+03 0. -1.
<mgrwt>
<rscale>  2 0.20148654E+03</rscale>
<asrwt>0</asrwt>
<pdfrwt beam="1">  1       21 0.26665729E-01 0.20148654E+03</pdfrwt>
<pdfrwt beam="2">  1       21 0.44113227E-01 0.20148654E+03</pdfrwt>
<totfact> 0.65810338E+04</totfact>
</mgrwt>
</event>
<event>
 4    3  0.4009700E+000  0.1758074E+03  0.7546771E-02  0.1171923E+00
         21   -1    0    0  503  502  0.00000000000E+00  0.00000000000E+00  0.13770141925E+03  0.13770141925E+03  0.00000000000E+00 0.  1.
         21   -1    0    0  501  503 -0.00000000000E+00 -0.00000000000E+00 -0.61000600789E+03  0.61000600789E+03  0.00000000000E+00 0.  1.
          6    1    1    2  501    0  0.28133744468E+02 -0.13702062011E+02 -0.53336925761E+03  0.56159684743E+03  0.17300000000E+03 0.  1.
         -6    1    1    2    0  502 -0.28133744468E+02  0.13702062011E+02  0.61064668973E+02  0.18611057970E+03  0.17300000000E+03 0.  1.
<mgrwt>
<rscale>  2 0.17580743E+03</rscale>
<asrwt>0</asrwt>
<pdfrwt beam="1">  1       21 0.21184833E-01 0.17580743E+03</pdfrwt>
<pdfrwt beam="2">  1       21 0.93847081E-01 0.17580743E+03</pdfrwt>
<totfact> 0.19961366E+04</totfact>
</mgrwt>
</event>
<event>
 4    3  0.4009700E+000  0.2278267E+03  0.7546771E-02  0.1128179E+00
         21   -1    0    0  503  502  0.00000000000E+00  0.00000000000E+00  0.73223556606E+02  0.73223556606E+02  0.00000000000E+00 0. -1.
         21   -1    0    0  501  503 -0.00000000000E+00 -0.00000000000E+00 -0.71538926773E+03  0.71538926773E+03  0.00000000000E+00 0. -1.
          6    1    1    2  501    0 -0.94121615453E+02  0.11453006712E+03 -0.35876206945E+03  0.42498851425E+03  0.17300000000E+03 0. -1.
         -6    1    1    2    0  502  0.94121615453E+02 -0.11453006712E+03 -0.28340364168E+03  0.36362431009E+03  0.17300000000E+03 0. -1.
<mgrwt>
<rscale>  2 0.22782672E+03</rscale>
<asrwt>0</asrwt>
<pdfrwt beam="1">  1       21 0.11265163E-01 0.22782672E+03</pdfrwt>
<pdfrwt beam="2">  1       21 0.11005988E+00 0.22782672E+03</pdfrwt>
<totfact> 0.42071446E+04</totfact>
</mgrwt>
</event>
<event>
 4    3  0.4009700E+000  0.1744720E+03  0.7546771E-02  0.1173263E+00
         21   -1    0    0  503  502  0.00000000000E+00  0.00000000000E+00  0.52615369448E+03  0.52615369448E+03  0.00000000000E+00 0. -1.
         21   -1    0    0  501  503 -0.00000000000E+00 -0.00000000000E+00 -0.76027309126E+02  0.76027309126E+02  0.00000000000E+00 0. -1.
          6    1    1    2  501    0 -0.21493102301E+02  0.70375441796E+01  0.77858885475E+02  0.19105623916E+03  0.17300000000E+03 0. -1.
         -6    1    1    2    0  502  0.21493102301E+02 -0.70375441796E+01  0.37226749988E+03  0.41112476445E+03  0.17300000000E+03 0. -1.
<mgrwt>
<rscale>  2 0.17447200E+03</rscale>
<asrwt>0</asrwt>
<pdfrwt beam="1">  1       21 0.80946720E-01 0.17447200E+03</pdfrwt>
<pdfrwt beam="2">  1       21 0.11696509E-01 0.17447200E+03</pdfrwt>
<totfact> 0.82906445E+04</totfact>
</mgrwt>
</event>
<event>
 4    3  0.4009700E+000  0.2196207E+03  0.7546771E-02  0.1134166E+00
         21   -1    0    0  501  502  0.00000000000E+00  0.00000000000E+00  0.14296479056E+04  0.14296479056E+04  0.00000000000E+00 0.  1.
         21   -1    0    0  502  503 -0.00000000000E+00 -0.00000000000E+00 -0.37046593561E+02  0.37046593561E+02  0.00000000000E+00 0.  1.
          6    1    1    2  501    0 -0.15019197557E+02 -0.13445694599E+03  0.91546357717E+03  0.94143869038E+03  0.17300000000E+03 0.  1.
         -6    1    1    2    0  503  0.15019197557E+02  0.13445694599E+03  0.47713773487E+03  0.52525580878E+03  0.17300000000E+03 0.  1.
<mgrwt>
<rscale>  2 0.21962069E+03</rscale>
<asrwt>0</asrwt>
<pdfrwt beam="1">  1       21 0.21994579E+00 0.21962069E+03</pdfrwt>
<pdfrwt beam="2">  1       21 0.56994770E-02 0.21962069E+03</pdfrwt>
<totfact> 0.21229879E+04</totfact>
</mgrwt>
</event>
<event>
 4    3  0.4009700E+000  0.1807311E+03  0.7546771E-02  0.1167097E+00
         21   -1    0    0  501  502  0.00000000000E+00  0.00000000000E+00  0.41245932893E+03  0.41245932893E+03  0.00000000000E+00 0.  1.
         21   -1    0    0  502  503 -0.00000000000E+00 -0.00000000000E+00 -0.79208306664E+02  0.79208306664E+02  0.00000000000E+00 0.  1.
          6    1    1    2  501    0 -0.51131788459E+02 -0.10966737814E+02  0.16316440279E+03  0.24348788772E+03  0.17300000000E+03 0.  1.
         -6    1    1    2    0  503  0.51131788459E+02  0.10966737814E+02  0.17008661948E+03  0.24817974787E+03  0.17300000000E+03 0.  1.
<mgrwt>
<rscale>  2 0.18073110E+03</rscale>
<asrwt>0</asrwt>
<pdfrwt beam="1">  1       21 0.63455280E-01 0.18073110E+03</pdfrwt>
<pdfrwt beam="2">  1       21 0.12185894E-01 0.18073110E+03</pdfrwt>
<totfact> 0.13164396E+05</totfact>
</mgrwt>
</event>
<event>
 4    3  0.4009700E+000  0.1917522E+03  0.7546771E-02  0.1156890E+00
         21   -1    0    0  503  502  0.00000000000E+00  0.00000000000E+00  0.14748492065E+03  0.14748492065E+03  0.00000000000E+00 0. -1.
         21   -1    0    0  501  503 -0.00000000000E+00 -0.00000000000E+00 -0.34462720337E+03  0.34462720337E+03  0.00000000000E+00 0. -1.
          6    1    1    2  501    0  0.57813067661E+02 -0.59139977552E+02 -0.22797697724E+03  0.29789660939E+03  0.17300000000E+03 0.  1.
         -6    1    1    2    0  502 -0.57813067661E+02  0.59139977552E+02  0.30834694508E+02  0.19421551463E+03  0.17300000000E+03 0.  1.
<mgrwt>
<rscale>  2 0.19175215E+03</rscale>
<asrwt>0</asrwt>
<pdfrwt beam="1">  1       21 0.22689988E-01 0.19175215E+03</pdfrwt>
<pdfrwt beam="2">  1       21 0.53019570E-01 0.19175215E+03</pdfrwt>
<totfact> 0.61396511E+04</totfact>
</mgrwt>
</event>
<event>
 4    3  0.4009700E+000  0.1939834E+03  0.7546771E-02  0.1154917E+00
         21   -1    0    0  501  502  0.00000000000E+00  0.00000000000E+00  0.42358643567E+02  0.42358643567E+02  0.00000000000E+00 0. -1.
         21   -1    0    0  502  503 -0.00000000000E+00 -0.00000000000E+00 -0.16517380954E+04  0.16517380954E+04  0.00000000000E+00 0. -1.
          6    1    1    2  501    0  0.87552461054E+02 -0.59275930382E+01 -0.22884087484E+03  0.29999619296E+03  0.17300000000E+03 0. -1.
         -6    1    1    2    0  503 -0.87552461054E+02  0.59275930382E+01 -0.13805385770E+04  0.13941005460E+04  0.17300000000E+03 0. -1.
<mgrwt>
<rscale>  2 0.19398343E+03</rscale>
<asrwt>0</asrwt>
<pdfrwt beam="1">  1       21 0.65167148E-02 0.19398343E+03</pdfrwt>
<pdfrwt beam="2">  1       21 0.25411354E+00 0.19398343E+03</pdfrwt>
<totfact> 0.10749095E+04</totfact>
</mgrwt>
</event>
<event>
 4    3  0.4009700E+000  0.2084116E+03  0.7546771E-02  0.1142830E+00
         21   -1    0    0  501  502  0.00000000000E+00  0.00000000000E+00  0.82121509568E+03  0.82121509568E+03  0.00000000000E+00 0. -1.
         21   -1    0    0  502  503 -0.00000000000E+00 -0.00000000000E+00 -0.56779902338E+02  0.56779902338E+02  0.00000000000E+00 0. -1.
          6    1    1    2  501    0 -0.58717184727E+02  0.10029306466E+03  0.49709720699E+03  0.53901858947E+03  0.17300000000E+03 0. -1.
         -6    1    1    2    0  503  0.58717184727E+02 -0.10029306466E+03  0.26733798635E+03  0.33897640854E+03  0.17300000000E+03 0. -1.
<mgrwt>
<rscale>  2 0.20841163E+03</rscale>
<asrwt>0</asrwt>
<pdfrwt beam="1">  1       21 0.12634078E+00 0.20841163E+03</pdfrwt>
<pdfrwt beam="2">  1       21 0.87353702E-02 0.20841163E+03</pdfrwt>
<totfact> 0.47398243E+04</totfact>
</mgrwt>
</event>
<event>
 4    3  0.4009700E+000  0.2257934E+03  0.7546771E-02  0.1129636E+00
         21   -1    0    0  503  502  0.00000000000E+00  0.00000000000E+00  0.50356540059E+03  0.50356540059E+03  0.00000000000E+00 0. -1.
         21   -1    0    0  501  503 -0.00000000000E+00 -0.00000000000E+00 -0.10299217993E+03  0.10299217993E+03  0.00000000000E+00 0.  1.
          6    1    1    2  501    0 -0.12137208491E+03  0.79513938833E+02  0.16076693522E+03  0.27717982777E+03  0.17300000000E+03 0.  1.
         -6    1    1    2    0  502  0.12137208491E+03 -0.79513938833E+02  0.23980628545E+03  0.32937775275E+03  0.17300000000E+03 0.  1.
<mgrwt>
<rscale>  2 0.22579338E+03</rscale>
<asrwt>0</asrwt>
<pdfrwt beam="1">  1       21 0.77471598E-01 0.22579338E+03</pdfrwt>
<pdfrwt beam="2">  1       21 0.15844951E-01 0.22579338E+03</pdfrwt>
<totfact> 0.51662614E+04</totfact>
</mgrwt>
</event>
<event>
 4    3  0.4009700E+000  0.1827302E+03  0.7546771E-02  0.1165187E+00
         21   -1    0    0  501  502  0.00000000000E+00  0.00000000000E+00  0.72367883268E+03  0.72367883268E+03  0.00000000000E+00 0.  1.
         21   -1    0    0  502  503 -0.00000000000E+00 -0.00000000000E+00 -0.48938958667E+02  0.48938958667E+02  0.00000000000E+00 0.  1.
          6    1    1    2  501    0  0.58692196509E+02 -0.40679428389E+01  0.24497905935E+03  0.30562241673E+03  0.17300000000E+03 0.  1.
         -6    1    1    2    0  503 -0.58692196509E+02  0.40679428389E+01  0.42976081467E+03  0.46699537462E+03  0.17300000000E+03 0.  1.
<mgrwt>
<rscale>  2 0.18273019E+03</rscale>
<asrwt>0</asrwt>
<pdfrwt beam="1">  1       21 0.11133520E+00 0.18273019E+03</pdfrwt>
<pdfrwt beam="2">  1       21 0.75290711E-02 0.18273019E+03</pdfrwt>
<totfact> 0.84950563E+04</totfact>
</mgrwt>
</event>
<event>
 4    3  0.4009700E+000  0.1802616E+03  0.7546771E-02  0.1167550E+00
         21   -1    0    0  503  502  0.00000000000E+00  0.00000000000E+00  0.78213334773E+02  0.78213334773E+02  0.00000000000E+00 0. -1.
         21   -1    0    0  501  503 -0.00000000000E+00 -0.00000000000E+00 -0.41593251514E+03  0.41593251514E+03  0.00000000000E+00 0. -1.
          6    1    1    2  501    0  0.38123582600E+02  0.33344010196E+02 -0.17721887865E+03  0.25278599945E+03  0.17300000000E+03 0. -1.
         -6    1    1    2    0  502 -0.38123582600E+02 -0.33344010196E+02 -0.16050030172E+03  0.24135985047E+03  0.17300000000E+03 0. -1.
<mgrwt>
<rscale>  2 0.18026156E+03</rscale>
<asrwt>0</asrwt>
<pdfrwt beam="1">  1       21 0.12032821E-01 0.18026156E+03</pdfrwt>
<pdfrwt beam="2">  1       21 0.63989618E-01 0.18026156E+03</pdfrwt>
<totfact> 0.13225153E+05</totfact>
</mgrwt>
</event>
<event>
 4    3  0.4009700E+000  0.2126019E+03  0.7546771E-02  0.1139522E+00
         21   -1    0    0  503  502  0.00000000000E+00  0.00000000000E+00  0.12329480869E+03  0.12329480869E+03  0.00000000000E+00 0. -1.
         21   -1    0    0  501  503 -0.00000000000E+00 -0.00000000000E+00 -0.40039258883E+03  0.40039258883E+03  0.00000000000E+00 0. -1.
          6    1    1    2  501    0 -0.12348345948E+03 -0.47327513593E+01 -0.62476656984E+02  0.22159173353E+03  0.17300000000E+03 0. -1.
         -6    1    1    2    0  502  0.12348345948E+03  0.47327513593E+01 -0.21462112315E+03  0.30209566399E+03  0.17300000000E+03 0. -1.
<mgrwt>
<rscale>  2 0.21260189E+03</rscale>
<asrwt>0</asrwt>
<pdfrwt beam="1">  1       21 0.18968432E-01 0.21260189E+03</pdfrwt>
<pdfrwt beam="2">  1       21 0.61598859E-01 0.21260189E+03</pdfrwt>
<totfact> 0.61813985E+04</totfact>
</mgrwt>
</event>
<event>
 4    3  0.4009700E+000  0.1755957E+03  0.7546771E-02  0.1172135E+00
         21   -1    0    0  501  502  0.00000000000E+00  0.00000000000E+00  0.35196004976E+02  0.35196004976E+02  0.00000000000E+00 0.  1.
         21   -1    0    0  502  503 -0.00000000000E+00 -0.00000000000E+00 -0.15425563319E+04  0.15425563319E+04  0.00000000000E+00 0.  1.
          6    1    1    2  501    0  0.30025630140E+02  0.18200701169E+01 -0.23513469803E+03  0.29346580267E+03  0.17300000000E+03 0.  1.
         -6    1    1    2    0  503 -0.30025630140E+02 -0.18200701169E+01 -0.12722256289E+04  0.12842865343E+04  0.17300000000E+03 0.  1.
<mgrwt>
<rscale>  2 0.17559570E+03</rscale>
<asrwt>0</asrwt>
<pdfrwt beam="1">  1       21 0.54147707E-02 0.17559570E+03</pdfrwt>
<pdfrwt beam="2">  1       21 0.23731633E+00 0.17559570E+03</pdfrwt>
<totfact> 0.18849926E+04</totfact>
</mgrwt>
</event>
<event>
 4    3  0.4009700E+000  0.2180428E+03  0.7546771E-02  0.1135351E+00
         21   -1    0    0  503  502  0.00000000000E+00  0.00000000000E+00  0.15049995394E+03  0.15049995394E+03  0.00000000000E+00 0.  1.
         21   -1    0    0  501  503 -0.00000000000E+00 -0.00000000000E+00 -0.31616915827E+03  0.31616915827E+03  0.00000000000E+00 0.  1.
          6    1    1    2  501    0  0.12150715219E+03 -0.53382531039E+02 -0.89663869298E+02  0.23575897037E+03  0.17300000000E+03 0.  1.
         -6    1    1    2    0  502 -0.12150715219E+03  0.53382531039E+02 -0.76005335033E+02  0.23091014185E+03  0.17300000000E+03 0.  1.
<mgrwt>
<rscale>  2 0.21804285E+03</rscale>
<asrwt>0</asrwt>
<pdfrwt beam="1">  1       21 0.23153839E-01 0.21804285E+03</pdfrwt>
<pdfrwt beam="2">  1       21 0.48641409E-01 0.21804285E+03</pdfrwt>
<totfact> 0.69940284E+04</totfact>
</mgrwt>
</event>
<event>
 4    3  0.4009700E+000  0.2934944E+03  0.7546771E-02  0.1088539E+00
         21   -1    0    0  503  502  0.00000000000E+00  0.00000000000E+00  0.69106516405E+03  0.69106516405E+03  0.00000000000E+00 0.  1.
         21   -1    0    0  501  503 -0.00000000000E+00 -0.00000000000E+00 -0.15348819170E+03  0.15348819170E+03  0.00000000000E+00 0.  1.
          6    1    1    2  501    0 -0.97301742050E+02 -0.21619974281E+03  0.85738860379E+02  0.30576152468E+03  0.17300000000E+03 0.  1.
         -6    1    1    2    0  502  0.97301742050E+02  0.21619974281E+03  0.45183811197E+03  0.53879183107E+03  0.17300000000E+03 0.  1.
<mgrwt>
<rscale>  2 0.29349439E+03</rscale>
<asrwt>0</asrwt>
<pdfrwt beam="1">  1       21 0.10631772E+00 0.29349439E+03</pdfrwt>
<pdfrwt beam="2">  1       21 0.23613568E-01 0.29349439E+03</pdfrwt>
<totfact> 0.11296610E+04</totfact>
</mgrwt>
</event>
<event>
 4    3  0.4009700E+000  0.1859364E+03  0.7546771E-02  0.1162178E+00
         21   -1    0    0  501  502  0.00000000000E+00  0.00000000000E+00  0.23999134955E+03  0.23999134955E+03  0.00000000000E+00 0.  1.
         21   -1    0    0  502  503 -0.00000000000E+00 -0.00000000000E+00 -0.14406160654E+03  0.14406160654E+03  0.00000000000E+00 0.  1.
          6    1    1    2  501    0  0.47017908856E+02 -0.49322082805E+02  0.49090395153E+02  0.19230761426E+03  0.17300000000E+03 0.  1.
         -6    1    1    2    0  503 -0.47017908856E+02  0.49322082805E+02  0.46839347863E+02  0.19174534183E+03  0.17300000000E+03 0.  1.
<mgrwt>
<rscale>  2 0.18593642E+03</rscale>
<asrwt>0</asrwt>
<pdfrwt beam="1">  1       21 0.36921746E-01 0.18593642E+03</pdfrwt>
<pdfrwt beam="2">  1       21 0.22163324E-01 0.18593642E+03</pdfrwt>
<totfact> 0.13497638E+05</totfact>
</mgrwt>
</event>
<event>
 4    3  0.4009700E+000  0.3079561E+03  0.7546771E-02  0.1081330E+00
         21   -1    0    0  503  502  0.00000000000E+00  0.00000000000E+00  0.46491872417E+03  0.46491872417E+03  0.00000000000E+00 0.  1.
         21   -1    0    0  501  503 -0.00000000000E+00 -0.00000000000E+00 -0.50652950645E+03  0.50652950645E+03  0.00000000000E+00 0.  1.
          6    1    1    2  501    0  0.22364985081E+03  0.12201918875E+03 -0.39619406690E+03  0.50180342449E+03  0.17300000000E+03 0.  1.
         -6    1    1    2    0  502 -0.22364985081E+03 -0.12201918875E+03  0.35458328462E+03  0.46964480612E+03  0.17300000000E+03 0.  1.
<mgrwt>
<rscale>  2 0.30795607E+03</rscale>
<asrwt>0</asrwt>
<pdfrwt beam="1">  1       21 0.71525958E-01 0.30795607E+03</pdfrwt>
<pdfrwt beam="2">  1       21 0.77927616E-01 0.30795607E+03</pdfrwt>
<totfact> 0.23780505E+03</totfact>
</mgrwt>
</event>
<event>
 4    3  0.4009700E+000  0.2301688E+03  0.7546771E-02  0.1126521E+00
         21   -1    0    0  503  502  0.00000000000E+00  0.00000000000E+00  0.96394300227E+03  0.96394300227E+03  0.00000000000E+00 0. -1.
         21   -1    0    0  501  503 -0.00000000000E+00 -0.00000000000E+00 -0.59737346134E+02  0.59737346134E+02  0.00000000000E+00 0. -1.
          6    1    1    2  501    0  0.93881012958E+02  0.11931069418E+03  0.30734767068E+03  0.38397952681E+03  0.17300000000E+03 0. -1.
         -6    1    1    2    0  502 -0.93881012958E+02 -0.11931069418E+03  0.59685798546E+03  0.63970082159E+03  0.17300000000E+03 0. -1.
<mgrwt>
<rscale>  2 0.23016882E+03</rscale>
<asrwt>0</asrwt>
<pdfrwt beam="1">  1       21 0.14829891E+00 0.23016882E+03</pdfrwt>
<pdfrwt beam="2">  1       21 0.91903617E-02 0.23016882E+03</pdfrwt>
<totfact> 0.28354926E+04</totfact>
</mgrwt>
</event>
<event>
 4    3  0.4009700E+000  0.2288038E+03  0.7546771E-02  0.1127485E+00
         21   -1    0    0  501  502  0.00000000000E+00  0.00000000000E+00  0.99783222856E+03  0.99783222856E+03  0.00000000000E+00 0. -1.
         21   -1    0    0  502  503 -0.00000000000E+00 -0.00000000000E+00 -0.52766760160E+02  0.52766760160E+02  0.00000000000E+00 0. -1.
          6    1    1    2  501    0  0.13133588606E+03  0.71924050878E+02  0.51226269639E+03  0.56103854963E+03  0.17300000000E+03 0. -1.
         -6    1    1    2    0  503 -0.13133588606E+03 -0.71924050878E+02  0.43280277201E+03  0.48956043909E+03  0.17300000000E+03 0. -1.
<mgrwt>
<rscale>  2 0.22880381E+03</rscale>
<asrwt>0</asrwt>
<pdfrwt beam="1">  1       21 0.15351264E+00 0.22880381E+03</pdfrwt>
<pdfrwt beam="2">  1       21 0.81179639E-02 0.22880381E+03</pdfrwt>
<totfact> 0.32192861E+04</totfact>
</mgrwt>
</event>
<event>
 4    3  0.4009700E+000  0.2114296E+03  0.7546771E-02  0.1140439E+00
         21   -1    0    0  501  502  0.00000000000E+00  0.00000000000E+00  0.20915812896E+03  0.20915812896E+03  0.00000000000E+00 0. -1.
         21   -1    0    0  502  503 -0.00000000000E+00 -0.00000000000E+00 -0.21872351487E+03  0.21872351487E+03  0.00000000000E+00 0. -1.
          6    1    1    2  501    0  0.10228189298E+03  0.65664854975E+02  0.27557143113E+02  0.21321785795E+03  0.17300000000E+03 0. -1.
         -6    1    1    2    0  503 -0.10228189298E+03 -0.65664854975E+02 -0.37122529022E+02  0.21466378589E+03  0.17300000000E+03 0. -1.
<mgrwt>
<rscale>  2 0.21142956E+03</rscale>
<asrwt>0</asrwt>
<pdfrwt beam="1">  1       21 0.32178174E-01 0.21142956E+03</pdfrwt>
<pdfrwt beam="2">  1       21 0.33649771E-01 0.21142956E+03</pdfrwt>
<totfact> 0.78401398E+04</totfact>
</mgrwt>
</event>
<event>
 4    3  0.4009700E+000  0.2014327E+03  0.7546771E-02  0.1148536E+00
         21   -1    0    0  501  502  0.00000000000E+00  0.00000000000E+00  0.21597092548E+04  0.21597092548E+04  0.00000000000E+00 0. -1.
         21   -1    0    0  502  503 -0.00000000000E+00 -0.00000000000E+00 -0.78364545881E+02  0.78364545881E+02  0.00000000000E+00 0. -1.
          6    1    1    2  501    0  0.50964082295E+02 -0.89714999130E+02  0.20163914094E+04  0.20264277521E+04  0.17300000000E+03 0. -1.
         -6    1    1    2    0  503 -0.50964082295E+02  0.89714999130E+02  0.64953299552E+02  0.21164604857E+03  0.17300000000E+03 0. -1.
<mgrwt>
<rscale>  2 0.20143267E+03</rscale>
<asrwt>0</asrwt>
<pdfrwt beam="1">  1       21 0.33226292E+00 0.20143267E+03</pdfrwt>
<pdfrwt beam="2">  1       21 0.12056086E-01 0.20143267E+03</pdfrwt>
<totfact> 0.12774580E+03</totfact>
</mgrwt>
</event>
<event>
 4    3  0.4009700E+000  0.1965338E+03  0.7546771E-02  0.1152697E+00
         21   -1    0    0  503  502  0.00000000000E+00  0.00000000000E+00  0.35484136630E+03  0.35484136630E+03  0.00000000000E+00 0.  1.
         21   -1    0    0  501  503 -0.00000000000E+00 -0.00000000000E+00 -0.85617098010E+03  0.85617098010E+03  0.00000000000E+00 0.  1.
          6    1    1    2  501    0 -0.82852491017E+02  0.42802068252E+02 -0.81637113257E+03  0.83969481266E+03  0.17300000000E+03 0.  1.
         -6    1    1    2    0  502  0.82852491017E+02 -0.42802068252E+02  0.31504151877E+03  0.37131753374E+03  0.17300000000E+03 0.  1.
<mgrwt>
<rscale>  2 0.19653385E+03</rscale>
<asrwt>0</asrwt>
<pdfrwt beam="1">  1       21 0.54590980E-01 0.19653385E+03</pdfrwt>
<pdfrwt beam="2">  1       21 0.13171861E+00 0.19653385E+03</pdfrwt>
<totfact> 0.13199553E+03</totfact>
</mgrwt>
</event>
<event>
 4    3  0.4009700E+000  0.1808459E+03  0.7546771E-02  0.1166987E+00
         21   -1    0    0  503  502  0.00000000000E+00  0.00000000000E+00  0.26967236811E+03  0.26967236811E+03  0.00000000000E+00 0. -1.
         21   -1    0    0  501  503 -0.00000000000E+00 -0.00000000000E+00 -0.13852923406E+03  0.13852923406E+03  0.00000000000E+00 0. -1.
          6    1    1    2  501    0  0.52486925755E+02 -0.46216607273E+01 -0.64542510659E+01  0.18096103028E+03  0.17300000000E+03 0. -1.
         -6    1    1    2    0  502 -0.52486925755E+02  0.46216607273E+01  0.13759738511E+03  0.22724057189E+03  0.17300000000E+03 0. -1.
<mgrwt>
<rscale>  2 0.18084589E+03</rscale>
<asrwt>0</asrwt>
<pdfrwt beam="1">  1       21 0.41488057E-01 0.18084589E+03</pdfrwt>
<pdfrwt beam="2">  1       21 0.21312190E-01 0.18084589E+03</pdfrwt>
<totfact> 0.11511676E+05</totfact>
</mgrwt>
</event>
<event>
 4    3  0.4009700E+000  0.2439826E+03  0.7546771E-02  0.1117168E+00
         21   -1    0    0  501  502  0.00000000000E+00  0.00000000000E+00  0.11931780312E+03  0.11931780312E+03  0.00000000000E+00 0.  1.
         21   -1    0    0  502  503 -0.00000000000E+00 -0.00000000000E+00 -0.51588419116E+03  0.51588419116E+03  0.00000000000E+00 0. -1.
          6    1    1    2  501    0 -0.13426518247E+03 -0.10757029186E+03 -0.14065384344E+03  0.28162210600E+03  0.17300000000E+03 0.  1.
         -6    1    1    2    0  503  0.13426518247E+03  0.10757029186E+03 -0.25591254460E+03  0.35357988828E+03  0.17300000000E+03 0.  1.
<mgrwt>
<rscale>  2 0.24398260E+03</rscale>
<asrwt>0</asrwt>
<pdfrwt beam="1">  1       21 0.18356585E-01 0.24398260E+03</pdfrwt>
<pdfrwt beam="2">  1       21 0.79366798E-01 0.24398260E+03</pdfrwt>
<totfact> 0.36964180E+04</totfact>
</mgrwt>
</event>
<event>
 4    3  0.4009700E+000  0.1853466E+03  0.7546771E-02  0.1162727E+00
         21   -1    0    0  503  502  0.00000000000E+00  0.00000000000E+00  0.69287881932E+03  0.69287881932E+03  0.00000000000E+00 0. -1.
         21   -1    0    0  501  503 -0.00000000000E+00 -0.00000000000E+00 -0.10856147151E+03  0.10856147151E+03  0.00000000000E+00 0. -1.
          6    1    1    2  501    0 -0.47564865674E+02  0.46496680093E+02 -0.32062059342E+01  0.18537431716E+03  0.17300000000E+03 0. -1.
         -6    1    1    2    0  502  0.47564865674E+02 -0.46496680093E+02  0.58752355374E+03  0.61606597367E+03  0.17300000000E+03 0. -1.
<mgrwt>
<rscale>  2 0.18534659E+03</rscale>
<asrwt>0</asrwt>
<pdfrwt beam="1">  1       21 0.10659674E+00 0.18534659E+03</pdfrwt>
<pdfrwt beam="2">  1       21 0.16701765E-01 0.18534659E+03</pdfrwt>
<totfact> 0.22807890E+04</totfact>
</mgrwt>
</event>
<event>
 4    3  0.4009700E+000  0.1999011E+03  0.7546771E-02  0.1149822E+00
         21   -1    0    0  503  502  0.00000000000E+00  0.00000000000E+00  0.44510687798E+03  0.44510687798E+03  0.00000000000E+00 0.  1.
         21   -1    0    0  501  503 -0.00000000000E+00 -0.00000000000E+00 -0.20978692413E+03  0.20978692413E+03  0.00000000000E+00 0. -1.
          6    1    1    2  501    0 -0.69241111424E+02  0.72367884637E+02 -0.13000233569E+03  0.23845555041E+03  0.17300000000E+03 0. -1.
         -6    1    1    2    0  502  0.69241111424E+02 -0.72367884637E+02  0.36532228954E+03  0.41643825170E+03  0.17300000000E+03 0.  1.
<mgrwt>
<rscale>  2 0.19990108E+03</rscale>
<asrwt>0</asrwt>
<pdfrwt beam="1">  1       21 0.68477981E-01 0.19990108E+03</pdfrwt>
<pdfrwt beam="2">  1       21 0.32274911E-01 0.19990108E+03</pdfrwt>
<totfact> 0.17880697E+04</totfact>
</mgrwt>
</event>
<event>
 4    3  0.4009700E+000  0.2421028E+03  0.7546771E-02  0.1118400E+00
         21   -1    0    0  503  502  0.00000000000E+00  0.00000000000E+00  0.41901101485E+03  0.41901101485E+03  0.00000000000E+00 0. -1.
         21   -1    0    0  501  503 -0.00000000000E+00 -0.00000000000E+00 -0.14155290105E+03  0.14155290105E+03  0.00000000000E+00 0.  1.
          6    1    1    2  501    0 -0.34865595983E+02 -0.16573815407E+03  0.16914489457E+03  0.29533665681E+03  0.17300000000E+03 0. -1.
         -6    1    1    2    0  502  0.34865595983E+02  0.16573815407E+03  0.10831321924E+03  0.26522725908E+03  0.17300000000E+03 0.  1.
<mgrwt>
<rscale>  2 0.24210276E+03</rscale>
<asrwt>0</asrwt>
<pdfrwt beam="1">  1       21 0.64463233E-01 0.24210276E+03</pdfrwt>
<pdfrwt beam="2">  1       21 0.21777370E-01 0.24210276E+03</pdfrwt>
<totfact> 0.42654342E+04</totfact>
</mgrwt>
</event>
<event>
 4    3  0.4009700E+000  0.2283486E+03  0.7546771E-02  0.1127808E+00
         21   -1    0    0  503  502  0.00000000000E+00  0.00000000000E+00  0.15917884745E+03  0.15917884745E+03  0.00000000000E+00 0.  1.
         21   -1    0    0  501  503 -0.00000000000E+00 -0.00000000000E+00 -0.38693346386E+03  0.38693346386E+03  0.00000000000E+00 0. -1.
          6    1    1    2  501    0 -0.13106492663E+03  0.70965275166E+02 -0.22082549960E+03  0.31765860062E+03  0.17300000000E+03 0.  1.
         -6    1    1    2    0  502  0.13106492663E+03 -0.70965275166E+02 -0.69291168077E+01  0.22845371070E+03  0.17300000000E+03 0.  1.
<mgrwt>
<rscale>  2 0.22834860E+03</rscale>
<asrwt>0</asrwt>
<pdfrwt beam="1">  1       21 0.24489054E-01 0.22834860E+03</pdfrwt>
<pdfrwt beam="2">  1       21 0.59528224E-01 0.22834860E+03</pdfrwt>
<totfact> 0.40799784E+04</totfact>
</mgrwt>
</event>
<event>
 4    3  0.4009700E+000  0.2714127E+03  0.7546771E-02  0.1100474E+00
         21   -1    0    0  503  502  0.00000000000E+00  0.00000000000E+00  0.16489005717E+04  0.16489005717E+04  0.00000000000E+00 0.  1.
         21   -1    0    0  501  503 -0.00000000000E+00 -0.00000000000E+00 -0.45458879459E+02  0.45458879459E+02  0.00000000000E+00 0. -1.
          6    1    1    2  501    0  0.18608474573E+03  0.95437637053E+02  0.91295807276E+03  0.95244806566E+03  0.17300000000E+03 0.  1.
         -6    1    1    2    0  502 -0.18608474573E+03 -0.95437637053E+02  0.69048361944E+03  0.74191138546E+03  0.17300000000E+03 0. -1.
<mgrwt>
<rscale>  2 0.27141274E+03</rscale>
<asrwt>0</asrwt>
<pdfrwt beam="1">  1       21 0.25367696E+00 0.27141274E+03</pdfrwt>
<pdfrwt beam="2">  1       21 0.69936750E-02 0.27141274E+03</pdfrwt>
<totfact> 0.89780959E+03</totfact>
</mgrwt>
</event>
<event>
 4    3  0.4009700E+000  0.2365555E+03  0.7546771E-02  0.1122109E+00
         21   -1    0    0  501  502  0.00000000000E+00  0.00000000000E+00  0.25208281484E+04  0.25208281484E+04  0.00000000000E+00 0. -1.
         21   -1    0    0  502  503 -0.00000000000E+00 -0.00000000000E+00 -0.24780685357E+02  0.24780685357E+02  0.00000000000E+00 0. -1.
          6    1    1    2  501    0  0.10015876010E+03 -0.12648212721E+03  0.16588914219E+04  0.16756727769E+04  0.17300000000E+03 0. -1.
         -6    1    1    2    0  503 -0.10015876010E+03  0.12648212721E+03  0.83715604117E+03  0.86993605684E+03  0.17300000000E+03 0. -1.
<mgrwt>
<rscale>  2 0.23655550E+03</rscale>
<asrwt>0</asrwt>
<pdfrwt beam="1">  1       21 0.38781951E+00 0.23655550E+03</pdfrwt>
<pdfrwt beam="2">  1       21 0.38124151E-02 0.23655550E+03</pdfrwt>
<totfact> 0.41666878E+03</totfact>
</mgrwt>
</event>
<event>
 4    3  0.4009700E+000  0.1882273E+03  0.7546771E-02  0.1160070E+00
         21   -1    0    0  503  502  0.00000000000E+00  0.00000000000E+00  0.48276808648E+03  0.48276808648E+03  0.00000000000E+00 0.  1.
         21   -1    0    0  501  503 -0.00000000000E+00 -0.00000000000E+00 -0.10201035213E+03  0.10201035213E+03  0.00000000000E+00 0. -1.
          6    1    1    2  501    0  0.14749350208E+02 -0.72684134675E+02  0.35500894839E+02  0.19154592217E+03  0.17300000000E+03 0. -1.
         -6    1    1    2    0  502 -0.14749350208E+02  0.72684134675E+02  0.34525683951E+03  0.39323251645E+03  0.17300000000E+03 0. -1.
<mgrwt>
<rscale>  2 0.18822733E+03</rscale>
<asrwt>0</asrwt>
<pdfrwt beam="1">  1       21 0.74272012E-01 0.18822733E+03</pdfrwt>
<pdfrwt beam="2">  1       21 0.15693901E-01 0.18822733E+03</pdfrwt>
<totfact> 0.58813889E+04</totfact>
</mgrwt>
</event>
<event>
 4    3  0.4009700E+000  0.2789700E+03  0.7546771E-02  0.1096253E+00
         21   -1    0    0  503  502  0.00000000000E+00  0.00000000000E+00  0.16721258484E+04  0.16721258484E+04  0.00000000000E+00 0. -1.
         21   -1    0    0  501  503 -0.00000000000E+00 -0.00000000000E+00 -0.36784442341E+03  0.36784442341E+03  0.00000000000E+00 0.  1.
          6    1    1    2  501    0 -0.22648175323E+02 -0.21767474261E+03 -0.30113536336E+03  0.41049572529E+03  0.17300000000E+03 0.  1.
         -6    1    1    2    0  502  0.22648175323E+02  0.21767474261E+03  0.16054167883E+04  0.16294745465E+04  0.17300000000E+03 0. -1.
<mgrwt>
<rscale>  2 0.27896995E+03</rscale>
<asrwt>0</asrwt>
<pdfrwt beam="1">  1       21 0.25725013E+00 0.27896995E+03</pdfrwt>
<pdfrwt beam="2">  1       21 0.56591451E-01 0.27896995E+03</pdfrwt>
<totfact> 0.15922944E+02</totfact>
</mgrwt>
</event>
<event>
 4    3  0.4009700E+000  0.2880819E+03  0.7546771E-02  0.1091355E+00
         21   -1    0    0  501  502  0.00000000000E+00  0.00000000000E+00  0.68423465279E+03  0.68423465279E+03  0.00000000000E+00 0. -1.
         21   -1    0    0  502  503 -0.00000000000E+00 -0.00000000000E+00 -0.19311244627E+03  0.19311244627E+03  0.00000000000E+00 0.  1.
          6    1    1    2  501    0 -0.12904698761E+03 -0.19081164594E+03  0.51308630320E+03  0.58842906435E+03  0.17300000000E+03 0. -1.
         -6    1    1    2    0  503  0.12904698761E+03  0.19081164594E+03 -0.21964096677E+02  0.28891803471E+03  0.17300000000E+03 0.  1.
<mgrwt>
<rscale>  2 0.28808195E+03</rscale>
<asrwt>0</asrwt>
<pdfrwt beam="1">  1       21 0.10526687E+00 0.28808195E+03</pdfrwt>
<pdfrwt beam="2">  1       21 0.29709607E-01 0.28808195E+03</pdfrwt>
<totfact> 0.74314282E+03</totfact>
</mgrwt>
</event>
<event>
 4    3  0.4009700E+000  0.1834903E+03  0.7546771E-02  0.1164467E+00
         21   -1    0    0  503  502  0.00000000000E+00  0.00000000000E+00  0.13973255078E+03  0.13973255078E+03  0.00000000000E+00 0. -1.
         21   -1    0    0  501  503 -0.00000000000E+00 -0.00000000000E+00 -0.44933515112E+03  0.44933515112E+03  0.00000000000E+00 0. -1.
          6    1    1    2  501    0  0.38203380174E+02 -0.47751465398E+02 -0.35537885826E+03  0.39995353930E+03  0.17300000000E+03 0. -1.
         -6    1    1    2    0  502 -0.38203380174E+02  0.47751465398E+02  0.45776257915E+02  0.18911416259E+03  0.17300000000E+03 0. -1.
<mgrwt>
<rscale>  2 0.18349033E+03</rscale>
<asrwt>0</asrwt>
<pdfrwt beam="1">  1       21 0.21497316E-01 0.18349033E+03</pdfrwt>
<pdfrwt beam="2">  1       21 0.69128483E-01 0.18349033E+03</pdfrwt>
<totfact> 0.38582810E+04</totfact>
</mgrwt>
</event>
<event>
 4    3  0.4009700E+000  0.1770916E+03  0.7546771E-02  0.1170648E+00
         21   -1    0    0  503  502  0.00000000000E+00  0.00000000000E+00  0.46545911242E+02  0.46545911242E+02  0.00000000000E+00 0.  1.
         21   -1    0    0  501  503 -0.00000000000E+00 -0.00000000000E+00 -0.71966896671E+03  0.71966896671E+03  0.00000000000E+00 0. -1.
          6    1    1    2  501    0  0.36214179043E+02 -0.10998372597E+02 -0.23981484110E+03  0.29811505996E+03  0.17300000000E+03 0.  1.
         -6    1    1    2    0  502 -0.36214179043E+02  0.10998372597E+02 -0.43330821438E+03  0.46809981800E+03  0.17300000000E+03 0. -1.
<mgrwt>
<rscale>  2 0.17709159E+03</rscale>
<asrwt>0</asrwt>
<pdfrwt beam="1">  1       21 0.71609098E-02 0.17709159E+03</pdfrwt>
<pdfrwt beam="2">  1       21 0.11071830E+00 0.17709159E+03</pdfrwt>
<totfact> 0.94133236E+04</totfact>
</mgrwt>
</event>
<event>
 4    3  0.4009700E+000  0.2301330E+03  0.7546771E-02  0.1126546E+00
         21   -1    0    0  501  502  0.00000000000E+00  0.00000000000E+00  0.39638166380E+02  0.39638166380E+02  0.00000000000E+00 0.  1.
         21   -1    0    0  502  503 -0.00000000000E+00 -0.00000000000E+00 -0.14381068093E+04  0.14381068093E+04  0.00000000000E+00 0. -1.
          6    1    1    2  501    0 -0.14798859274E+03 -0.33638722176E+02 -0.89600233557E+03  0.92508452185E+03  0.17300000000E+03 0. -1.
         -6    1    1    2    0  503  0.14798859274E+03  0.33638722176E+02 -0.50246630735E+03  0.55266045383E+03  0.17300000000E+03 0.  1.
<mgrwt>
<rscale>  2 0.23013298E+03</rscale>
<asrwt>0</asrwt>
<pdfrwt beam="1">  1       21 0.60981795E-02 0.23013298E+03</pdfrwt>
<pdfrwt beam="2">  1       21 0.22124720E+00 0.23013298E+03</pdfrwt>
<totfact> 0.18416621E+04</totfact>
</mgrwt>
</event>
<event>
 4    3  0.4009700E+000  0.1763974E+03  0.7546771E-02  0.1171336E+00
         21   -1    0    0  503  502  0.00000000000E+00  0.00000000000E+00  0.93066376918E+02  0.93066376918E+02  0.00000000000E+00 0.  1.
         21   -1    0    0  501  503 -0.00000000000E+00 -0.00000000000E+00 -0.85832562442E+03  0.85832562442E+03  0.00000000000E+00 0.  1.
          6    1    1    2  501    0 -0.24529667348E+02 -0.24193621460E+02 -0.75430359864E+03  0.77465473265E+03  0.17300000000E+03 0.  1.
         -6    1    1    2    0  502  0.24529667348E+02  0.24193621460E+02 -0.10955648859E+02  0.17673726868E+03  0.17300000000E+03 0.  1.
<mgrwt>
<rscale>  2 0.17639738E+03</rscale>
<asrwt>0</asrwt>
<pdfrwt beam="1">  1       21 0.14317904E-01 0.17639738E+03</pdfrwt>
<pdfrwt beam="2">  1       21 0.13205010E+00 0.17639738E+03</pdfrwt>
<totfact> 0.17932498E+04</totfact>
</mgrwt>
</event>
<event>
 4    3  0.4009700E+000  0.2283688E+03  0.7546771E-02  0.1127793E+00
         21   -1    0    0  501  502  0.00000000000E+00  0.00000000000E+00  0.11953495727E+04  0.11953495727E+04  0.00000000000E+00 0.  1.
         21   -1    0    0  502  503 -0.00000000000E+00 -0.00000000000E+00 -0.48684031111E+02  0.48684031111E+02  0.00000000000E+00 0. -1.
          6    1    1    2  501    0 -0.26277634432E+02 -0.14674063558E+03  0.77375948748E+03  0.80675651387E+03  0.17300000000E+03 0.  1.
         -6    1    1    2    0  503  0.26277634432E+02  0.14674063558E+03  0.37290605412E+03  0.43727708996E+03  0.17300000000E+03 0. -1.
<mgrwt>
<rscale>  2 0.22836884E+03</rscale>
<asrwt>0</asrwt>
<pdfrwt beam="1">  1       21 0.18389991E+00 0.22836884E+03</pdfrwt>
<pdfrwt beam="2">  1       21 0.74898519E-02 0.22836884E+03</pdfrwt>
<totfact> 0.22488262E+04</totfact>
</mgrwt>
</event>
<event>
 4    3  0.4009700E+000  0.3031875E+03  0.7546771E-02  0.1083658E+00
         21   -1    0    0  501  502  0.00000000000E+00  0.00000000000E+00  0.20299327731E+04  0.20299327731E+04  0.00000000000E+00 0. -1.
         21   -1    0    0  502  503 -0.00000000000E+00 -0.00000000000E+00 -0.57571392420E+02  0.57571392420E+02  0.00000000000E+00 0.  1.
          6    1    1    2  501    0  0.15329904770E+03 -0.19619645688E+03  0.14683849703E+04  0.14993588859E+04  0.17300000000E+03 0. -1.
         -6    1    1    2    0  503 -0.15329904770E+03  0.19619645688E+03  0.50397641035E+03  0.58814527959E+03  0.17300000000E+03 0.  1.
<mgrwt>
<rscale>  2 0.30318748E+03</rscale>
<asrwt>0</asrwt>
<pdfrwt beam="1">  1       21 0.31229729E+00 0.30318748E+03</pdfrwt>
<pdfrwt beam="2">  1       21 0.88571389E-02 0.30318748E+03</pdfrwt>
<totfact> 0.26101376E+03</totfact>
</mgrwt>
</event>
<event>
 4    3  0.4009700E+000  0.1867962E+03  0.7546771E-02  0.1161383E+00
         21   -1    0    0  501  502  0.00000000000E+00  0.00000000000E+00  0.26697412955E+02  0.26697412955E+02  0.00000000000E+00 0. -1.
         21   -1    0    0  502  503 -0.00000000000E+00 -0.00000000000E+00 -0.19283190104E+04  0.19283190104E+04  0.00000000000E+00 0. -1.
          6    1    1    2  501    0  0.65086861812E+02 -0.26972719094E+02 -0.39593300179E+03  0.43778507177E+03  0.17300000000E+03 0. -1.
         -6    1    1    2    0  503 -0.65086861812E+02  0.26972719094E+02 -0.15056885957E+04  0.15172313516E+04  0.17300000000E+03 0. -1.
<mgrwt>
<rscale>  2 0.18679622E+03</rscale>
<asrwt>0</asrwt>
<pdfrwt beam="1">  1       21 0.41072935E-02 0.18679622E+03</pdfrwt>
<pdfrwt beam="2">  1       21 0.29666452E+00 0.18679622E+03</pdfrwt>
<totfact> 0.13456016E+04</totfact>
</mgrwt>
</event>
<event>
 4    3  0.4009700E+000  0.1793706E+03  0.7546771E-02  0.1168414E+00
         21   -1    0    0  501  502  0.00000000000E+00  0.00000000000E+00  0.23640586196E+03  0.23640586196E+03  0.00000000000E+00 0.  1.
         21   -1    0    0  502  503 -0.00000000000E+00 -0.00000000000E+00 -0.38784086706E+03  0.38784086706E+03  0.00000000000E+00 0.  1.
          6    1    1    2  501    0 -0.38552881702E+02  0.27540897837E+02  0.17574894685E+03  0.25112052497E+03  0.17300000000E+03 0.  1.
         -6    1    1    2    0  503  0.38552881702E+02 -0.27540897837E+02 -0.32718395194E+03  0.37312620405E+03  0.17300000000E+03 0.  1.
<mgrwt>
<rscale>  2 0.17937064E+03</rscale>
<asrwt>0</asrwt>
<pdfrwt beam="1">  1       21 0.36370133E-01 0.17937064E+03</pdfrwt>
<pdfrwt beam="2">  1       21 0.59667825E-01 0.17937064E+03</pdfrwt>
<totfact> 0.19271624E+04</totfact>
</mgrwt>
</event>
<event>
 4    3  0.4009700E+000  0.1860575E+03  0.7546771E-02  0.1162066E+00
         21   -1    0    0  503  502  0.00000000000E+00  0.00000000000E+00  0.39997435149E+02  0.39997435149E+02  0.00000000000E+00 0.  1.
         21   -1    0    0  501  503 -0.00000000000E+00 -0.00000000000E+00 -0.89435912369E+03  0.89435912369E+03  0.00000000000E+00 0. -1.
          6    1    1    2  501    0  0.58645850587E+02 -0.35342084160E+02 -0.51111524284E+03  0.54392664043E+03  0.17300000000E+03 0. -1.
         -6    1    1    2    0  502 -0.58645850587E+02  0.35342084160E+02 -0.34324644570E+03  0.39042991841E+03  0.17300000000E+03 0.  1.
<mgrwt>
<rscale>  2 0.18605751E+03</rscale>
<asrwt>0</asrwt>
<pdfrwt beam="1">  1       21 0.61534517E-02 0.18605751E+03</pdfrwt>
<pdfrwt beam="2">  1       21 0.13759371E+00 0.18605751E+03</pdfrwt>
<totfact> 0.70890187E+04</totfact>
</mgrwt>
</event>
<event>
 4    3  0.4009700E+000  0.2374837E+03  0.7546771E-02  0.1121481E+00
         21   -1    0    0  503  502  0.00000000000E+00  0.00000000000E+00  0.16512911388E+04  0.16512911388E+04  0.00000000000E+00 0. -1.
         21   -1    0    0  501  503 -0.00000000000E+00 -0.00000000000E+00 -0.34166769318E+02  0.34166769318E+02  0.00000000000E+00 0.  1.
          6    1    1    2  501    0 -0.35820284828E+02  0.15870222340E+03  0.82474121654E+03  0.85825203920E+03  0.17300000000E+03 0.  1.
         -6    1    1    2    0  502  0.35820284828E+02 -0.15870222340E+03  0.79238315292E+03  0.82720586890E+03  0.17300000000E+03 0. -1.
<mgrwt>
<rscale>  2 0.23748366E+03</rscale>
<asrwt>0</asrwt>
<pdfrwt beam="1">  1       21 0.25404473E+00 0.23748366E+03</pdfrwt>
<pdfrwt beam="2">  1       21 0.52564273E-02 0.23748366E+03</pdfrwt>
<totfact> 0.14977590E+04</totfact>
</mgrwt>
</event>
<event>
 4    3  0.4009700E+000  0.2172763E+03  0.7546771E-02  0.1135930E+00
         21   -1    0    0  501  502  0.00000000000E+00  0.00000000000E+00  0.46320954919E+02  0.46320954919E+02  0.00000000000E+00 0. -1.
         21   -1    0    0  502  503 -0.00000000000E+00 -0.00000000000E+00 -0.10203788111E+04  0.10203788111E+04  0.00000000000E+00 0. -1.
          6    1    1    2  501    0  0.94700239365E+02 -0.91169405323E+02 -0.46868272738E+03  0.51659703324E+03  0.17300000000E+03 0. -1.
         -6    1    1    2    0  503 -0.94700239365E+02  0.91169405323E+02 -0.50537512875E+03  0.55010273273E+03  0.17300000000E+03 0. -1.
<mgrwt>
<rscale>  2 0.21727631E+03</rscale>
<asrwt>0</asrwt>
<pdfrwt beam="1">  1       21 0.71263005E-02 0.21727631E+03</pdfrwt>
<pdfrwt beam="2">  1       21 0.15698136E+00 0.21727631E+03</pdfrwt>
<totfact> 0.38289966E+04</totfact>
</mgrwt>
</event>
<event>
 4    3  0.4009700E+000  0.2184010E+03  0.7546771E-02  0.1135081E+00
         21   -1    0    0  503  502  0.00000000000E+00  0.00000000000E+00  0.10604769404E+04  0.10604769404E+04  0.00000000000E+00 0. -1.
         21   -1    0    0  501  503 -0.00000000000E+00 -0.00000000000E+00 -0.54278409304E+02  0.54278409304E+02  0.00000000000E+00 0. -1.
          6    1    1    2  501    0 -0.10541560941E+03  0.81593790996E+02  0.27238843321E+03  0.34913386542E+03  0.17300000000E+03 0. -1.
         -6    1    1    2    0  502  0.10541560941E+03 -0.81593790996E+02  0.73381009791E+03  0.76562148431E+03  0.17300000000E+03 0. -1.
<mgrwt>
<rscale>  2 0.21840100E+03</rscale>
<asrwt>0</asrwt>
<pdfrwt beam="1">  1       21 0.16315028E+00 0.21840100E+03</pdfrwt>
<pdfrwt beam="2">  1       21 0.83505253E-02 0.21840100E+03</pdfrwt>
<totfact> 0.26151029E+04</totfact>
</mgrwt>
</event>
<event>
 4    3  0.4009700E+000  0.2137425E+03  0.7546771E-02  0.1138636E+00
         21   -1    0    0  503  502  0.00000000000E+00  0.00000000000E+00  0.55033556693E+02  0.55033556693E+02  0.00000000000E+00 0.  1.
         21   -1    0    0  501  503 -0.00000000000E+00 -0.00000000000E+00 -0.10666959805E+04  0.10666959805E+04  0.00000000000E+00 0. -1.
          6    1    1    2  501    0 -0.11888004557E+03 -0.40303515349E+02 -0.76995048655E+03  0.79906795101E+03  0.17300000000E+03 0. -1.
         -6    1    1    2    0  502  0.11888004557E+03  0.40303515349E+02 -0.24171193724E+03  0.32266158617E+03  0.17300000000E+03 0.  1.
<mgrwt>
<rscale>  2 0.21374246E+03</rscale>
<asrwt>0</asrwt>
<pdfrwt beam="1">  1       21 0.84667021E-02 0.21374246E+03</pdfrwt>
<pdfrwt beam="2">  1       21 0.16410705E+00 0.21374246E+03</pdfrwt>
<totfact> 0.25194797E+04</totfact>
</mgrwt>
</event>
<event>
 4    3  0.4009700E+000  0.4038690E+03  0.7546771E-02  0.1042448E+00
         21   -1    0    0  501  502  0.00000000000E+00  0.00000000000E+00  0.14685060977E+04  0.14685060977E+04  0.00000000000E+00 0.  1.
         21   -1    0    0  502  503 -0.00000000000E+00 -0.00000000000E+00 -0.13474648009E+03  0.13474648009E+03  0.00000000000E+00 0. -1.
          6    1    1    2  501    0 -0.25542826528E+03  0.26064833378E+03  0.33087001044E+03  0.52209684582E+03  0.17300000000E+03 0. -1.
         -6    1    1    2    0  503  0.25542826528E+03 -0.26064833378E+03  0.10028896072E+04  0.10811557320E+04  0.17300000000E+03 0.  1.
<mgrwt>
<rscale>  2 0.40386898E+03</rscale>
<asrwt>0</asrwt>
<pdfrwt beam="1">  1       21 0.22592400E+00 0.40386898E+03</pdfrwt>
<pdfrwt beam="2">  1       21 0.20730229E-01 0.40386898E+03</pdfrwt>
<totfact> 0.17076285E+03</totfact>
</mgrwt>
</event>
<event>
 4    3  0.4009700E+000  0.1760731E+03  0.7546771E-02  0.1171659E+00
         21   -1    0    0  503  502  0.00000000000E+00  0.00000000000E+00  0.69315536580E+02  0.69315536580E+02  0.00000000000E+00 0.  1.
         21   -1    0    0  501  503 -0.00000000000E+00 -0.00000000000E+00 -0.51425652123E+03  0.51425652123E+03  0.00000000000E+00 0.  1.
          6    1    1    2  501    0  0.32467961822E+02 -0.43107473229E+01 -0.32779161561E+03  0.37208748213E+03  0.17300000000E+03 0.  1.
         -6    1    1    2    0  502 -0.32467961822E+02  0.43107473229E+01 -0.11714936904E+03  0.21148457569E+03  0.17300000000E+03 0.  1.
<mgrwt>
<rscale>  2 0.17607314E+03</rscale>
<asrwt>0</asrwt>
<pdfrwt beam="1">  1       21 0.10663929E-01 0.17607314E+03</pdfrwt>
<pdfrwt beam="2">  1       21 0.79116387E-01 0.17607314E+03</pdfrwt>
<totfact> 0.10279477E+05</totfact>
</mgrwt>
</event>
<event>
 4    3  0.4009700E+000  0.2569450E+03  0.7546771E-02  0.1108993E+00
         21   -1    0    0  501  502  0.00000000000E+00  0.00000000000E+00  0.53132476694E+03  0.53132476694E+03  0.00000000000E+00 0.  1.
         21   -1    0    0  502  503 -0.00000000000E+00 -0.00000000000E+00 -0.13615562951E+03  0.13615562951E+03  0.00000000000E+00 0.  1.
          6    1    1    2  501    0  0.19096658809E+02 -0.18901604937E+03  0.98924441396E+02  0.27533033687E+03  0.17300000000E+03 0.  1.
         -6    1    1    2    0  503 -0.19096658809E+02  0.18901604937E+03  0.29624469603E+03  0.39215005957E+03  0.17300000000E+03 0.  1.
<mgrwt>
<rscale>  2 0.25694503E+03</rscale>
<asrwt>0</asrwt>
<pdfrwt beam="1">  1       21 0.81742271E-01 0.25694503E+03</pdfrwt>
<pdfrwt beam="2">  1       21 0.20947020E-01 0.25694503E+03</pdfrwt>
<totfact> 0.26825288E+04</totfact>
</mgrwt>
</event>
<event>
 4    3  0.4009700E+000  0.2810040E+03  0.7546771E-02  0.1095142E+00
         21   -1    0    0  503  502  0.00000000000E+00  0.00000000000E+00  0.41891573146E+03  0.41891573146E+03  0.00000000000E+00 0. -1.
         21   -1    0    0  501  503 -0.00000000000E+00 -0.00000000000E+00 -0.23924876197E+03  0.23924876197E+03  0.00000000000E+00 0.  1.
          6    1    1    2  501    0  0.22067208289E+03  0.18386257984E+02 -0.61737742995E+02  0.28770605061E+03  0.17300000000E+03 0.  1.
         -6    1    1    2    0  502 -0.22067208289E+03 -0.18386257984E+02  0.24140471248E+03  0.37045844282E+03  0.17300000000E+03 0.  1.
<mgrwt>
<rscale>  2 0.28100395E+03</rscale>
<asrwt>0</asrwt>
<pdfrwt beam="1">  1       21 0.64448574E-01 0.28100395E+03</pdfrwt>
<pdfrwt beam="2">  1       21 0.36807502E-01 0.28100395E+03</pdfrwt>
<totfact> 0.15065477E+04</totfact>
</mgrwt>
</event>
<event>
 4    3  0.4009700E+000  0.2051370E+03  0.7546771E-02  0.1145476E+00
         21   -1    0    0  501  502  0.00000000000E+00  0.00000000000E+00  0.97153724164E+02  0.97153724164E+02  0.00000000000E+00 0.  1.
         21   -1    0    0  502  503 -0.00000000000E+00 -0.00000000000E+00 -0.47798440985E+03  0.47798440985E+03  0.00000000000E+00 0.  1.
          6    1    1    2  501    0  0.18420561760E+02 -0.10868694245E+03 -0.10233292320E+03  0.22924483795E+03  0.17300000000E+03 0.  1.
         -6    1    1    2    0  503 -0.18420561760E+02  0.10868694245E+03 -0.27849776248E+03  0.34589329607E+03  0.17300000000E+03 0.  1.
<mgrwt>
<rscale>  2 0.20513695E+03</rscale>
<asrwt>0</asrwt>
<pdfrwt beam="1">  1       21 0.14946727E-01 0.20513695E+03</pdfrwt>
<pdfrwt beam="2">  1       21 0.73536063E-01 0.20513695E+03</pdfrwt>
<totfact> 0.65215541E+04</totfact>
</mgrwt>
</event>
<event>
 4    3  0.4009700E+000  0.2076366E+03  0.7546771E-02  0.1143451E+00
         21   -1    0    0  503  502  0.00000000000E+00  0.00000000000E+00  0.11248087003E+03  0.11248087003E+03  0.00000000000E+00 0.  1.
         21   -1    0    0  501  503 -0.00000000000E+00 -0.00000000000E+00 -0.59355010203E+03  0.59355010203E+03  0.00000000000E+00 0. -1.
          6    1    1    2  501    0 -0.22125719238E+02 -0.11266950090E+03 -0.45064229671E+03  0.49617682682E+03  0.17300000000E+03 0. -1.
         -6    1    1    2    0  502  0.22125719238E+02  0.11266950090E+03 -0.30426935279E+02  0.20985414524E+03  0.17300000000E+03 0.  1.
<mgrwt>
<rscale>  2 0.20763661E+03</rscale>
<asrwt>0</asrwt>
<pdfrwt beam="1">  1       21 0.17304749E-01 0.20763661E+03</pdfrwt>
<pdfrwt beam="2">  1       21 0.91315401E-01 0.20763661E+03</pdfrwt>
<totfact> 0.30413989E+04</totfact>
</mgrwt>
</event>
<event>
 4    3  0.4009700E+000  0.1922273E+03  0.7546771E-02  0.1156468E+00
         21   -1    0    0  503  502  0.00000000000E+00  0.00000000000E+00  0.33262491389E+03  0.33262491389E+03  0.00000000000E+00 0.  1.
         21   -1    0    0  501  503 -0.00000000000E+00 -0.00000000000E+00 -0.11180205594E+03  0.11180205594E+03  0.00000000000E+00 0.  1.
          6    1    1    2  501    0 -0.64232526858E+02 -0.53819431533E+02  0.92679358622E+02  0.21340293398E+03  0.17300000000E+03 0.  1.
         -6    1    1    2    0  502  0.64232526858E+02  0.53819431533E+02  0.12814349933E+03  0.23102403584E+03  0.17300000000E+03 0.  1.
<mgrwt>
<rscale>  2 0.19222734E+03</rscale>
<asrwt>0</asrwt>
<pdfrwt beam="1">  1       21 0.51173063E-01 0.19222734E+03</pdfrwt>
<pdfrwt beam="2">  1       21 0.17200316E-01 0.19222734E+03</pdfrwt>
<totfact> 0.11086050E+05</totfact>
</mgrwt>
</event>
<event>
 4    3  0.4009700E+000  0.2700288E+03  0.7546771E-02  0.1101263E+00
         21   -1    0    0  503  502  0.00000000000E+00  0.00000000000E+00  0.18304659632E+03  0.18304659632E+03  0.00000000000E+00 0. -1.
         21   -1    0    0  501  503 -0.00000000000E+00 -0.00000000000E+00 -0.40651474900E+03  0.40651474900E+03  0.00000000000E+00 0.  1.
          6    1    1    2  501    0  0.19952014936E+02 -0.20636979814E+03 -0.15352506282E+03  0.31062118633E+03  0.17300000000E+03 0. -1.
         -6    1    1    2    0  502 -0.19952014936E+02  0.20636979814E+03 -0.69943089857E+02  0.27894015900E+03  0.17300000000E+03 0. -1.
<mgrwt>
<rscale>  2 0.27002884E+03</rscale>
<asrwt>0</asrwt>
<pdfrwt beam="1">  1       21 0.28161015E-01 0.27002884E+03</pdfrwt>
<pdfrwt beam="2">  1       21 0.62540730E-01 0.27002884E+03</pdfrwt>
<totfact> 0.27487130E+04</totfact>
</mgrwt>
</event>
<event>
 4    3  0.4009700E+000  0.2060109E+03  0.7546771E-02  0.1144764E+00
         21   -1    0    0  501  502  0.00000000000E+00  0.00000000000E+00  0.92916821679E+02  0.92916821679E+02  0.00000000000E+00 0. -1.
         21   -1    0    0  502  503 -0.00000000000E+00 -0.00000000000E+00 -0.10993976618E+04  0.10993976618E+04  0.00000000000E+00 0. -1.
          6    1    1    2  501    0  0.20261153726E+02 -0.11000441192E+03 -0.47447848745E+02  0.21140431250E+03  0.17300000000E+03 0. -1.
         -6    1    1    2    0  503 -0.20261153726E+02  0.11000441192E+03 -0.95903299138E+03  0.98091017098E+03  0.17300000000E+03 0. -1.
<mgrwt>
<rscale>  2 0.20601089E+03</rscale>
<asrwt>0</asrwt>
<pdfrwt beam="1">  1       21 0.14294895E-01 0.20601089E+03</pdfrwt>
<pdfrwt beam="2">  1       21 0.16913811E+00 0.20601089E+03</pdfrwt>
<totfact> 0.91674085E+03</totfact>
</mgrwt>
</event>
<event>
 4    3  0.4009700E+000  0.1853960E+03  0.7546771E-02  0.1162681E+00
         21   -1    0    0  503  502  0.00000000000E+00  0.00000000000E+00  0.65492610219E+02  0.65492610219E+02  0.00000000000E+00 0. -1.
         21   -1    0    0  501  503 -0.00000000000E+00 -0.00000000000E+00 -0.60709452173E+03  0.60709452173E+03  0.00000000000E+00 0.  1.
          6    1    1    2  501    0 -0.52235189773E+02 -0.41402504683E+02 -0.39460336582E+03  0.43598566348E+03  0.17300000000E+03 0.  1.
         -6    1    1    2    0  502  0.52235189773E+02  0.41402504683E+02 -0.14699854569E+03  0.23660146846E+03  0.17300000000E+03 0.  1.
<mgrwt>
<rscale>  2 0.18539602E+03</rscale>
<asrwt>0</asrwt>
<pdfrwt beam="1">  1       21 0.10075786E-01 0.18539602E+03</pdfrwt>
<pdfrwt beam="2">  1       21 0.93399155E-01 0.18539602E+03</pdfrwt>
<totfact> 0.77421285E+04</totfact>
</mgrwt>
</event>
<event>
 4    3  0.4009700E+000  0.1843998E+03  0.7546771E-02  0.1163612E+00
         21   -1    0    0  501  502  0.00000000000E+00  0.00000000000E+00  0.13289089774E+04  0.13289089774E+04  0.00000000000E+00 0.  1.
         21   -1    0    0  502  503 -0.00000000000E+00 -0.00000000000E+00 -0.18655624302E+03  0.18655624302E+03  0.00000000000E+00 0.  1.
          6    1    1    2  501    0 -0.59961910750E+02  0.21882501515E+02  0.12750294994E+04  0.12882948028E+04  0.17300000000E+03 0.  1.
         -6    1    1    2    0  503  0.59961910750E+02 -0.21882501515E+02 -0.13267676508E+03  0.22717041754E+03  0.17300000000E+03 0.  1.
<mgrwt>
<rscale>  2 0.18439977E+03</rscale>
<asrwt>0</asrwt>
<pdfrwt beam="1">  1       21 0.20444753E+00 0.18439977E+03</pdfrwt>
<pdfrwt beam="2">  1       21 0.28700961E-01 0.18439977E+03</pdfrwt>
<totfact> 0.14741926E+03</totfact>
</mgrwt>
</event>
<event>
 4    3  0.4009700E+000  0.1876015E+03  0.7546771E-02  0.1160643E+00
         21   -1    0    0  501  502  0.00000000000E+00  0.00000000000E+00  0.41504116556E+03  0.41504116556E+03  0.00000000000E+00 0. -1.
         21   -1    0    0  502  503 -0.00000000000E+00 -0.00000000000E+00 -0.14301160251E+03  0.14301160251E+03  0.00000000000E+00 0.  1.
          6    1    1    2  501    0  0.67315794277E+02  0.27090600733E+02  0.31403730945E+03  0.36580561578E+03  0.17300000000E+03 0. -1.
         -6    1    1    2    0  503 -0.67315794277E+02 -0.27090600733E+02 -0.42007746395E+02  0.19224715229E+03  0.17300000000E+03 0.  1.
<mgrwt>
<rscale>  2 0.18760148E+03</rscale>
<asrwt>0</asrwt>
<pdfrwt beam="1">  1       21 0.63852486E-01 0.18760148E+03</pdfrwt>
<pdfrwt beam="2">  1       21 0.22001785E-01 0.18760148E+03</pdfrwt>
<totfact> 0.43833307E+04</totfact>
</mgrwt>
</event>
<event>
 4    3  0.4009700E+000  0.2402332E+03  0.7546771E-02  0.1119638E+00
         21   -1    0    0  501  502  0.00000000000E+00  0.00000000000E+00  0.17090899442E+03  0.17090899442E+03  0.00000000000E+00 0.  1.
         21   -1    0    0  502  503 -0.00000000000E+00 -0.00000000000E+00 -0.37561543220E+03  0.37561543220E+03  0.00000000000E+00 0. -1.
          6    1    1    2  501    0 -0.14696187616E+03  0.78646164793E+02 -0.18919892876E+03  0.30579118189E+03  0.17300000000E+03 0. -1.
         -6    1    1    2    0  503  0.14696187616E+03 -0.78646164793E+02 -0.15507509028E+02  0.24073324473E+03  0.17300000000E+03 0.  1.
<mgrwt>
<rscale>  2 0.24023325E+03</rscale>
<asrwt>0</asrwt>
<pdfrwt beam="1">  1       21 0.26293691E-01 0.24023325E+03</pdfrwt>
<pdfrwt beam="2">  1       21 0.57786990E-01 0.24023325E+03</pdfrwt>
<totfact> 0.37735518E+04</totfact>
</mgrwt>
</event>
<event>
 4    3  0.4009700E+000  0.2368244E+03  0.7546771E-02  0.1121927E+00
         21   -1    0    0  501  502  0.00000000000E+00  0.00000000000E+00  0.20259882519E+03  0.20259882519E+03  0.00000000000E+00 0. -1.
         21   -1    0    0  502  503 -0.00000000000E+00 -0.00000000000E+00 -0.31588669743E+03  0.31588669743E+03  0.00000000000E+00 0.  1.
          6    1    1    2  501    0  0.14966213721E+03 -0.61302706043E+02  0.34510808752E+02  0.23932566307E+03  0.17300000000E+03 0. -1.
         -6    1    1    2    0  503 -0.14966213721E+03  0.61302706043E+02 -0.14779868099E+03  0.27915985955E+03  0.17300000000E+03 0.  1.
<mgrwt>
<rscale>  2 0.23682436E+03</rscale>
<asrwt>0</asrwt>
<pdfrwt beam="1">  1       21 0.31169050E-01 0.23682436E+03</pdfrwt>
<pdfrwt beam="2">  1       21 0.48597953E-01 0.23682436E+03</pdfrwt>
<totfact> 0.39133021E+04</totfact>
</mgrwt>
</event>
<event>
 4    3  0.4009700E+000  0.3893437E+03  0.7546771E-02  0.1047533E+00
         21   -1    0    0  503  502  0.00000000000E+00  0.00000000000E+00  0.14395781691E+04  0.14395781691E+04  0.00000000000E+00 0. -1.
         21   -1    0    0  501  503 -0.00000000000E+00 -0.00000000000E+00 -0.19432015755E+03  0.19432015755E+03  0.00000000000E+00 0.  1.
          6    1    1    2  501    0  0.33970206359E+03 -0.79132973112E+02  0.69688131507E+02  0.39553123153E+03  0.17300000000E+03 0.  1.
         -6    1    1    2    0  502 -0.33970206359E+03  0.79132973112E+02  0.11755698801E+04  0.12383670952E+04  0.17300000000E+03 0. -1.
<mgrwt>
<rscale>  2 0.38934370E+03</rscale>
<asrwt>0</asrwt>
<pdfrwt beam="1">  1       21 0.22147356E+00 0.38934370E+03</pdfrwt>
<pdfrwt beam="2">  1       21 0.29895410E-01 0.38934370E+03</pdfrwt>
<totfact> 0.90221985E+02</totfact>
</mgrwt>
</event>
<event>
 4    3  0.4009700E+000  0.2300624E+03  0.7546771E-02  0.1126596E+00
         21   -1    0    0  501  502  0.00000000000E+00  0.00000000000E+00  0.26142835723E+03  0.26142835723E+03  0.00000000000E+00 0.  1.
         21   -1    0    0  502  503 -0.00000000000E+00 -0.00000000000E+00 -0.55066130762E+03  0.55066130762E+03  0.00000000000E+00 0.  1.
          6    1    1    2  501    0  0.14409487751E+03  0.47290171414E+02  0.17826796974E+03  0.29104666820E+03  0.17300000000E+03 0.  1.
         -6    1    1    2    0  503 -0.14409487751E+03 -0.47290171414E+02 -0.46750092013E+03  0.52104299665E+03  0.17300000000E+03 0.  1.
<mgrwt>
<rscale>  2 0.23006237E+03</rscale>
<asrwt>0</asrwt>
<pdfrwt beam="1">  1       21 0.40219748E-01 0.23006237E+03</pdfrwt>
<pdfrwt beam="2">  1       21 0.84717124E-01 0.23006237E+03</pdfrwt>
<totfact> 0.70067793E+03</totfact>
</mgrwt>
</event>
<event>
 4    3  0.4009700E+000  0.1732732E+03  0.7546771E-02  0.1174477E+00
         21   -1    0    0  503  502  0.00000000000E+00  0.00000000000E+00  0.28062208018E+03  0.28062208018E+03  0.00000000000E+00 0. -1.
         21   -1    0    0  501  503 -0.00000000000E+00 -0.00000000000E+00 -0.10864439916E+03  0.10864439916E+03  0.00000000000E+00 0. -1.
          6    1    1    2  501    0 -0.68046999123E+01  0.69497539555E+01  0.61967059738E+02  0.18402043233E+03  0.17300000000E+03 0.  1.
         -6    1    1    2    0  502  0.68046999123E+01 -0.69497539555E+01  0.11001062129E+03  0.20524604702E+03  0.17300000000E+03 0.  1.
<mgrwt>
<rscale>  2 0.17327320E+03</rscale>
<asrwt>0</asrwt>
<pdfrwt beam="1">  1       21 0.43172627E-01 0.17327320E+03</pdfrwt>
<pdfrwt beam="2">  1       21 0.16714523E-01 0.17327320E+03</pdfrwt>
<totfact> 0.16702852E+05</totfact>
</mgrwt>
</event>
<event>
 4    3  0.4009700E+000  0.2137116E+03  0.7546771E-02  0.1138660E+00
         21   -1    0    0  501  502  0.00000000000E+00  0.00000000000E+00  0.17397255658E+03  0.17397255658E+03  0.00000000000E+00 0.  1.
         21   -1    0    0  502  503 -0.00000000000E+00 -0.00000000000E+00 -0.26423600948E+03  0.26423600948E+03  0.00000000000E+00 0.  1.
          6    1    1    2  501    0 -0.11068606211E+03  0.59095098005E+02 -0.27515062690E+02  0.21547555228E+03  0.17300000000E+03 0.  1.
         -6    1    1    2    0  503  0.11068606211E+03 -0.59095098005E+02 -0.62748390218E+02  0.22273301378E+03  0.17300000000E+03 0.  1.
<mgrwt>
<rscale>  2 0.21371157E+03</rscale>
<asrwt>0</asrwt>
<pdfrwt beam="1">  1       21 0.26765009E-01 0.21371157E+03</pdfrwt>
<pdfrwt beam="2">  1       21 0.40651694E-01 0.21371157E+03</pdfrwt>
<totfact> 0.76787627E+04</totfact>
</mgrwt>
</event>
<event>
 4    3  0.4009700E+000  0.1917885E+03  0.7546771E-02  0.1156858E+00
         21   -1    0    0  501  502  0.00000000000E+00  0.00000000000E+00  0.85206876803E+02  0.85206876803E+02  0.00000000000E+00 0. -1.
         21   -1    0    0  502  503 -0.00000000000E+00 -0.00000000000E+00 -0.13009628289E+04  0.13009628289E+04  0.00000000000E+00 0. -1.
          6    1    1    2  501    0  0.69604295384E+02 -0.44822822737E+02 -0.41335667199E+02  0.19619245846E+03  0.17300000000E+03 0. -1.
         -6    1    1    2    0  503 -0.69604295384E+02  0.44822822737E+02 -0.11744202849E+04  0.11899772473E+04  0.17300000000E+03 0. -1.
<mgrwt>
<rscale>  2 0.19178854E+03</rscale>
<asrwt>0</asrwt>
<pdfrwt beam="1">  1       21 0.13108750E-01 0.19178854E+03</pdfrwt>
<pdfrwt beam="2">  1       21 0.20014813E+00 0.19178854E+03</pdfrwt>
<totfact> 0.67140116E+03</totfact>
</mgrwt>
</event>
<event>
 4    3  0.4009700E+000  0.1997732E+03  0.7546771E-02  0.1149930E+00
         21   -1    0    0  501  502  0.00000000000E+00  0.00000000000E+00  0.10290079234E+04  0.10290079234E+04  0.00000000000E+00 0. -1.
         21   -1    0    0  502  503 -0.00000000000E+00 -0.00000000000E+00 -0.40219246334E+02  0.40219246334E+02  0.00000000000E+00 0. -1.
          6    1    1    2  501    0 -0.97290003601E+02  0.22693640848E+02  0.59537581556E+03  0.62799817507E+03  0.17300000000E+03 0. -1.
         -6    1    1    2    0  503  0.97290003601E+02 -0.22693640848E+02  0.39341286152E+03  0.44122899468E+03  0.17300000000E+03 0. -1.
<mgrwt>
<rscale>  2 0.19977324E+03</rscale>
<asrwt>0</asrwt>
<pdfrwt beam="1">  1       21 0.15830889E+00 0.19977324E+03</pdfrwt>
<pdfrwt beam="2">  1       21 0.61875771E-02 0.19977324E+03</pdfrwt>
<totfact> 0.48243913E+04</totfact>
</mgrwt>
</event>
<event>
 4    3  0.4009700E+000  0.2479175E+03  0.7546771E-02  0.1114628E+00
         21   -1    0    0  501  502  0.00000000000E+00  0.00000000000E+00  0.33582545173E+03  0.33582545173E+03  0.00000000000E+00 0. -1.
         21   -1    0    0  502  503 -0.00000000000E+00 -0.00000000000E+00 -0.20066925450E+03  0.20066925450E+03  0.00000000000E+00 0.  1.
          6    1    1    2  501    0  0.49591425672E+02 -0.17051332362E+03  0.14712919344E+03  0.28828822833E+03  0.17300000000E+03 0. -1.
         -6    1    1    2    0  503 -0.49591425672E+02  0.17051332362E+03 -0.11972996209E+02  0.24820647790E+03  0.17300000000E+03 0.  1.
<mgrwt>
<rscale>  2 0.24791753E+03</rscale>
<asrwt>0</asrwt>
<pdfrwt beam="1">  1       21 0.51665454E-01 0.24791753E+03</pdfrwt>
<pdfrwt beam="2">  1       21 0.30872193E-01 0.24791753E+03</pdfrwt>
<totfact> 0.34902900E+04</totfact>
</mgrwt>
</event>
<event>
 4    3  0.4009700E+000  0.1830194E+03  0.7546771E-02  0.1164912E+00
         21   -1    0    0  503  502  0.00000000000E+00  0.00000000000E+00  0.64711267771E+03  0.64711267771E+03  0.00000000000E+00 0.  1.
         21   -1    0    0  501  503 -0.00000000000E+00 -0.00000000000E+00 -0.57055600927E+02  0.57055600927E+02  0.00000000000E+00 0.  1.
          6    1    1    2  501    0  0.25764317937E+02  0.53882383039E+02  0.18778870557E+03  0.26222263293E+03  0.17300000000E+03 0.  1.
         -6    1    1    2    0  502 -0.25764317937E+02 -0.53882383039E+02  0.40226837122E+03  0.44194564571E+03  0.17300000000E+03 0.  1.
<mgrwt>
<rscale>  2 0.18301943E+03</rscale>
<asrwt>0</asrwt>
<pdfrwt beam="1">  1       21 0.99555791E-01 0.18301943E+03</pdfrwt>
<pdfrwt beam="2">  1       21 0.87777852E-02 0.18301943E+03</pdfrwt>
<totfact> 0.85024851E+04</totfact>
</mgrwt>
</event>
<event>
 4    3  0.4009700E+000  0.1761412E+03  0.7546771E-02  0.1171591E+00
         21   -1    0    0  501  502  0.00000000000E+00  0.00000000000E+00  0.27484035448E+03  0.27484035448E+03  0.00000000000E+00 0. -1.
         21   -1    0    0  502  503 -0.00000000000E+00 -0.00000000000E+00 -0.11693780119E+03  0.11693780119E+03  0.00000000000E+00 0. -1.
          6    1    1    2  501    0 -0.13364079913E+02  0.30300679361E+02  0.11541298574E+03  0.21058463163E+03  0.17300000000E+03 0.  1.
         -6    1    1    2    0  503  0.13364079913E+02 -0.30300679361E+02  0.42489567553E+02  0.18119352404E+03  0.17300000000E+03 0.  1.
<mgrwt>
<rscale>  2 0.17614122E+03</rscale>
<asrwt>0</asrwt>
<pdfrwt beam="1">  1       21 0.42283131E-01 0.17614122E+03</pdfrwt>
<pdfrwt beam="2">  1       21 0.17990431E-01 0.17614122E+03</pdfrwt>
<totfact> 0.15206555E+05</totfact>
</mgrwt>
</event>
<event>
 4    3  0.4009700E+000  0.1736588E+03  0.7546771E-02  0.1174085E+00
         21   -1    0    0  501  502  0.00000000000E+00  0.00000000000E+00  0.92652515144E+02  0.92652515144E+02  0.00000000000E+00 0.  1.
         21   -1    0    0  502  503 -0.00000000000E+00 -0.00000000000E+00 -0.40655839826E+03  0.40655839826E+03  0.00000000000E+00 0.  1.
          6    1    1    2  501    0  0.10077161577E+02 -0.11261593640E+02 -0.45492403681E+02  0.17951861037E+03  0.17300000000E+03 0.  1.
         -6    1    1    2    0  503 -0.10077161577E+02  0.11261593640E+02 -0.26841347943E+03  0.31969230303E+03  0.17300000000E+03 0.  1.
<mgrwt>
<rscale>  2 0.17365878E+03</rscale>
<asrwt>0</asrwt>
<pdfrwt beam="1">  1       21 0.14254233E-01 0.17365878E+03</pdfrwt>
<pdfrwt beam="2">  1       21 0.62547445E-01 0.17365878E+03</pdfrwt>
<totfact> 0.10271073E+05</totfact>
</mgrwt>
</event>
<event>
 4    3  0.4009700E+000  0.1860003E+03  0.7546771E-02  0.1162119E+00
         21   -1    0    0  501  502  0.00000000000E+00  0.00000000000E+00  0.71525281162E+03  0.71525281162E+03  0.00000000000E+00 0.  1.
         21   -1    0    0  502  503 -0.00000000000E+00 -0.00000000000E+00 -0.12860791459E+03  0.12860791459E+03  0.00000000000E+00 0.  1.
          6    1    1    2  501    0 -0.20103207456E+02 -0.65291357141E+02  0.62659482156E+03  0.65361852075E+03  0.17300000000E+03 0.  1.
         -6    1    1    2    0  503  0.20103207456E+02  0.65291357141E+02 -0.39949924530E+02  0.19024220546E+03  0.17300000000E+03 0.  1.
<mgrwt>
<rscale>  2 0.18600027E+03</rscale>
<asrwt>0</asrwt>
<pdfrwt beam="1">  1       21 0.11003889E+00 0.18600027E+03</pdfrwt>
<pdfrwt beam="2">  1       21 0.19785833E-01 0.18600027E+03</pdfrwt>
<totfact> 0.15435864E+04</totfact>
</mgrwt>
</event>
<event>
 4    3  0.4009700E+000  0.2882225E+03  0.7546771E-02  0.1091281E+00
         21   -1    0    0  501  502  0.00000000000E+00  0.00000000000E+00  0.38214375814E+03  0.38214375814E+03  0.00000000000E+00 0. -1.
         21   -1    0    0  502  503 -0.00000000000E+00 -0.00000000000E+00 -0.46977901962E+03  0.46977901962E+03  0.00000000000E+00 0.  1.
          6    1    1    2  501    0  0.16447946183E+03 -0.16152306520E+03  0.26840418254E+03  0.39384387663E+03  0.17300000000E+03 0. -1.
         -6    1    1    2    0  503 -0.16447946183E+03  0.16152306520E+03 -0.35603944402E+03  0.45807890112E+03  0.17300000000E+03 0.  1.
<mgrwt>
<rscale>  2 0.28822247E+03</rscale>
<asrwt>0</asrwt>
<pdfrwt beam="1">  1       21 0.58791348E-01 0.28822247E+03</pdfrwt>
<pdfrwt beam="2">  1       21 0.72273695E-01 0.28822247E+03</pdfrwt>
<totfact> 0.43864687E+03</totfact>
</mgrwt>
</event>
<event>
 4    3  0.4009700E+000  0.1768032E+03  0.7546771E-02  0.1170933E+00
         21   -1    0    0  501  502  0.00000000000E+00  0.00000000000E+00  0.46865078241E+02  0.46865078241E+02  0.00000000000E+00 0. -1.
         21   -1    0    0  502  503 -0.00000000000E+00 -0.00000000000E+00 -0.71803037566E+03  0.71803037566E+03  0.00000000000E+00 0. -1.
          6    1    1    2  501    0  0.96311681659E+01  0.35179675231E+02 -0.23363382754E+03  0.29299169668E+03  0.17300000000E+03 0.  1.
         -6    1    1    2    0  503 -0.96311681659E+01 -0.35179675231E+02 -0.43753146988E+03  0.47190375723E+03  0.17300000000E+03 0.  1.
<mgrwt>
<rscale>  2 0.17680319E+03</rscale>
<asrwt>0</asrwt>
<pdfrwt beam="1">  1       21 0.72100125E-02 0.17680319E+03</pdfrwt>
<pdfrwt beam="2">  1       21 0.11046620E+00 0.17680319E+03</pdfrwt>
<totfact> 0.93554909E+04</totfact>
</mgrwt>
</event>
<event>
 4    3  0.4009700E+000  0.1958096E+03  0.7546771E-02  0.1153323E+00
         21   -1    0    0  501  502  0.00000000000E+00  0.00000000000E+00  0.60572585630E+02  0.60572585630E+02  0.00000000000E+00 0. -1.
         21   -1    0    0  502  503 -0.00000000000E+00 -0.00000000000E+00 -0.63304680588E+03  0.63304680588E+03  0.00000000000E+00 0. -1.
          6    1    1    2  501    0  0.79873445200E+02  0.45084728413E+02 -0.28972655185E+03  0.34968968362E+03  0.17300000000E+03 0. -1.
         -6    1    1    2    0  503 -0.79873445200E+02 -0.45084728413E+02 -0.28274766841E+03  0.34392970790E+03  0.17300000000E+03 0. -1.
<mgrwt>
<rscale>  2 0.19580960E+03</rscale>
<asrwt>0</asrwt>
<pdfrwt beam="1">  1       21 0.93188597E-02 0.19580960E+03</pdfrwt>
<pdfrwt beam="2">  1       21 0.97391812E-01 0.19580960E+03</pdfrwt>
<totfact> 0.80180853E+04</totfact>
</mgrwt>
</event>
<event>
 4    3  0.4009700E+000  0.2344042E+03  0.7546771E-02  0.1123578E+00
         21   -1    0    0  501  502  0.00000000000E+00  0.00000000000E+00  0.29536407788E+03  0.29536407788E+03  0.00000000000E+00 0.  1.
         21   -1    0    0  502  503 -0.00000000000E+00 -0.00000000000E+00 -0.21151388478E+03  0.21151388478E+03  0.00000000000E+00 0. -1.
          6    1    1    2  501    0  0.13798491030E+03 -0.77307877377E+02 -0.46052571275E+02  0.23888529192E+03  0.17300000000E+03 0. -1.
         -6    1    1    2    0  503 -0.13798491030E+03  0.77307877377E+02  0.12990276438E+03  0.26799267074E+03  0.17300000000E+03 0.  1.
<mgrwt>
<rscale>  2 0.23440423E+03</rscale>
<asrwt>0</asrwt>
<pdfrwt beam="1">  1       21 0.45440628E-01 0.23440423E+03</pdfrwt>
<pdfrwt beam="2">  1       21 0.32540598E-01 0.23440423E+03</pdfrwt>
<totfact> 0.41372096E+04</totfact>
</mgrwt>
</event>
<event>
 4    3  0.4009700E+000  0.3059329E+03  0.7546771E-02  0.1082312E+00
         21   -1    0    0  503  502  0.00000000000E+00  0.00000000000E+00  0.29096081586E+03  0.29096081586E+03  0.00000000000E+00 0.  1.
         21   -1    0    0  501  503 -0.00000000000E+00 -0.00000000000E+00 -0.32216154304E+03  0.32216154304E+03  0.00000000000E+00 0. -1.
          6    1    1    2  501    0 -0.24774597811E+03 -0.47831478800E+02 -0.27509715382E+02  0.30716722559E+03  0.17300000000E+03 0. -1.
         -6    1    1    2    0  502  0.24774597811E+03  0.47831478800E+02 -0.36910118008E+01  0.30595513332E+03  0.17300000000E+03 0.  1.
<mgrwt>
<rscale>  2 0.30593287E+03</rscale>
<asrwt>0</asrwt>
<pdfrwt beam="1">  1       21 0.44763202E-01 0.30593287E+03</pdfrwt>
<pdfrwt beam="2">  1       21 0.49563315E-01 0.30593287E+03</pdfrwt>
<totfact> 0.17566339E+04</totfact>
</mgrwt>
</event>
<event>
 4    3  0.4009700E+000  0.1978206E+03  0.7546771E-02  0.1151591E+00
         21   -1    0    0  503  502  0.00000000000E+00  0.00000000000E+00  0.55807446536E+03  0.55807446536E+03  0.00000000000E+00 0.  1.
         21   -1    0    0  501  503 -0.00000000000E+00 -0.00000000000E+00 -0.85367196206E+02  0.85367196206E+02  0.00000000000E+00 0.  1.
          6    1    1    2  501    0  0.65821533434E+02 -0.69796292633E+02  0.10039466570E+03  0.22183797157E+03  0.17300000000E+03 0.  1.
         -6    1    1    2    0  502 -0.65821533434E+02  0.69796292633E+02  0.37231260346E+03  0.42160369000E+03  0.17300000000E+03 0.  1.
<mgrwt>
<rscale>  2 0.19782062E+03</rscale>
<asrwt>0</asrwt>
<pdfrwt beam="1">  1       21 0.85857608E-01 0.19782062E+03</pdfrwt>
<pdfrwt beam="2">  1       21 0.13133415E-01 0.19782062E+03</pdfrwt>
<totfact> 0.58293598E+04</totfact>
</mgrwt>
</event>
<event>
 4    3  0.4009700E+000  0.2139303E+03  0.7546771E-02  0.1138491E+00
         21   -1    0    0  503  502  0.00000000000E+00  0.00000000000E+00  0.11961955326E+03  0.11961955326E+03  0.00000000000E+00 0.  1.
         21   -1    0    0  501  503 -0.00000000000E+00 -0.00000000000E+00 -0.60625445653E+03  0.60625445653E+03  0.00000000000E+00 0.  1.
          6    1    1    2  501    0 -0.12478015988E+03 -0.16342313608E+02 -0.46375970532E+03  0.51072421501E+03  0.17300000000E+03 0.  1.
         -6    1    1    2    0  502  0.12478015988E+03  0.16342313608E+02 -0.22875197956E+02  0.21514979478E+03  0.17300000000E+03 0.  1.
<mgrwt>
<rscale>  2 0.21393027E+03</rscale>
<asrwt>0</asrwt>
<pdfrwt beam="1">  1       21 0.18403008E-01 0.21393027E+03</pdfrwt>
<pdfrwt beam="2">  1       21 0.93269915E-01 0.21393027E+03</pdfrwt>
<totfact> 0.25741656E+04</totfact>
</mgrwt>
</event>
<event>
 4    3  0.4009700E+000  0.1901425E+03  0.7546771E-02  0.1158333E+00
         21   -1    0    0  501  502  0.00000000000E+00  0.00000000000E+00  0.24235327019E+03  0.24235327019E+03  0.00000000000E+00 0. -1.
         21   -1    0    0  502  503 -0.00000000000E+00 -0.00000000000E+00 -0.38526915374E+03  0.38526915374E+03  0.00000000000E+00 0. -1.
          6    1    1    2  501    0 -0.99320275138E+01 -0.78272186713E+02  0.17419652182E+03  0.25787324134E+03  0.17300000000E+03 0. -1.
         -6    1    1    2    0  503  0.99320275138E+01  0.78272186713E+02 -0.31711240537E+03  0.36974918259E+03  0.17300000000E+03 0. -1.
<mgrwt>
<rscale>  2 0.19014253E+03</rscale>
<asrwt>0</asrwt>
<pdfrwt beam="1">  1       21 0.37285119E-01 0.19014253E+03</pdfrwt>
<pdfrwt beam="2">  1       21 0.59272177E-01 0.19014253E+03</pdfrwt>
<totfact> 0.18481874E+04</totfact>
</mgrwt>
</event>
<event>
 4    3  0.4009700E+000  0.1837661E+03  0.7546771E-02  0.1164207E+00
         21   -1    0    0  501  502  0.00000000000E+00  0.00000000000E+00  0.10201684207E+04  0.10201684207E+04  0.00000000000E+00 0. -1.
         21   -1    0    0  502  503 -0.00000000000E+00 -0.00000000000E+00 -0.70305331406E+02  0.70305331406E+02  0.00000000000E+00 0. -1.
          6    1    1    2  501    0  0.57492772054E+02 -0.23142269923E+02  0.87155637413E+03  0.89071908972E+03  0.17300000000E+03 0. -1.
         -6    1    1    2    0  503 -0.57492772054E+02  0.23142269923E+02  0.78306715115E+02  0.19975466234E+03  0.17300000000E+03 0. -1.
<mgrwt>
<rscale>  2 0.18376611E+03</rscale>
<asrwt>0</asrwt>
<pdfrwt beam="1">  1       21 0.15694898E+00 0.18376611E+03</pdfrwt>
<pdfrwt beam="2">  1       21 0.10816206E-01 0.18376611E+03</pdfrwt>
<totfact> 0.18833650E+04</totfact>
</mgrwt>
</event>
<event>
 4    3  0.4009700E+000  0.1935178E+03  0.7546771E-02  0.1155326E+00
         21   -1    0    0  501  502  0.00000000000E+00  0.00000000000E+00  0.14650084922E+03  0.14650084922E+03  0.00000000000E+00 0.  1.
         21   -1    0    0  502  503 -0.00000000000E+00 -0.00000000000E+00 -0.27299906884E+03  0.27299906884E+03  0.00000000000E+00 0. -1.
          6    1    1    2  501    0 -0.81820395061E+02 -0.28732806526E+02 -0.10333595519E+02  0.19379353553E+03  0.17300000000E+03 0.  1.
         -6    1    1    2    0  503  0.81820395061E+02  0.28732806526E+02 -0.11616462410E+03  0.22570638252E+03  0.17300000000E+03 0. -1.
<mgrwt>
<rscale>  2 0.19351783E+03</rscale>
<asrwt>0</asrwt>
<pdfrwt beam="1">  1       21 0.22538592E-01 0.19351783E+03</pdfrwt>
<pdfrwt beam="2">  1       21 0.41999857E-01 0.19351783E+03</pdfrwt>
<totfact> 0.10059639E+05</totfact>
</mgrwt>
</event>
<event>
 4    3  0.4009700E+000  0.3185443E+03  0.7546771E-02  0.1076321E+00
         21   -1    0    0  501  502  0.00000000000E+00  0.00000000000E+00  0.61628394490E+03  0.61628394490E+03  0.00000000000E+00 0.  1.
         21   -1    0    0  502  503 -0.00000000000E+00 -0.00000000000E+00 -0.16985152977E+03  0.16985152977E+03  0.00000000000E+00 0. -1.
          6    1    1    2  501    0 -0.57895016159E+02 -0.26113141027E+03  0.15442293392E+03  0.35400125543E+03  0.17300000000E+03 0. -1.
         -6    1    1    2    0  503  0.57895016159E+02  0.26113141027E+03  0.29200948120E+03  0.43213421924E+03  0.17300000000E+03 0.  1.
<mgrwt>
<rscale>  2 0.31854426E+03</rscale>
<asrwt>0</asrwt>
<pdfrwt beam="1">  1       21 0.94812913E-01 0.31854426E+03</pdfrwt>
<pdfrwt beam="2">  1       21 0.26131005E-01 0.31854426E+03</pdfrwt>
<totfact> 0.12106508E+04</totfact>
</mgrwt>
</event>
<event>
 4    3  0.4009700E+000  0.1770607E+03  0.7546771E-02  0.1170678E+00
         21   -1    0    0  501  502  0.00000000000E+00  0.00000000000E+00  0.28116047028E+03  0.28116047028E+03  0.00000000000E+00 0.  1.
         21   -1    0    0  502  503 -0.00000000000E+00 -0.00000000000E+00 -0.17145035804E+03  0.17145035804E+03  0.00000000000E+00 0.  1.
          6    1    1    2  501    0 -0.33643153832E+02  0.17018876718E+02  0.18867083201E+03  0.25874154444E+03  0.17300000000E+03 0.  1.
         -6    1    1    2    0  503  0.33643153832E+02 -0.17018876718E+02 -0.78960719776E+02  0.19386928388E+03  0.17300000000E+03 0.  1.
<mgrwt>
<rscale>  2 0.17706074E+03</rscale>
<asrwt>0</asrwt>
<pdfrwt beam="1">  1       21 0.43255457E-01 0.17706074E+03</pdfrwt>
<pdfrwt beam="2">  1       21 0.26376978E-01 0.17706074E+03</pdfrwt>
<totfact> 0.70704174E+04</totfact>
</mgrwt>
</event>
<event>
 4    3  0.4009700E+000  0.5233722E+03  0.7546771E-02  0.1007852E+00
         21   -1    0    0  501  502  0.00000000000E+00  0.00000000000E+00  0.62101679531E+03  0.62101679531E+03  0.00000000000E+00 0.  1.
         21   -1    0    0  502  503 -0.00000000000E+00 -0.00000000000E+00 -0.78003345207E+03  0.78003345207E+03  0.00000000000E+00 0. -1.
          6    1    1    2  501    0  0.49213106023E+03  0.42385437284E+02  0.38227335361E+03  0.64811374204E+03  0.17300000000E+03 0.  1.
         -6    1    1    2    0  503 -0.49213106023E+03 -0.42385437284E+02 -0.54129001038E+03  0.75293650534E+03  0.17300000000E+03 0. -1.
<mgrwt>
<rscale>  2 0.52337224E+03</rscale>
<asrwt>0</asrwt>
<pdfrwt beam="1">  1       21 0.95541045E-01 0.52337224E+03</pdfrwt>
<pdfrwt beam="2">  1       21 0.12000515E+00 0.52337224E+03</pdfrwt>
<totfact> 0.38913684E+02</totfact>
</mgrwt>
</event>
<event>
 4    3  0.4009700E+000  0.1938717E+03  0.7546771E-02  0.1155015E+00
         21   -1    0    0  503  502  0.00000000000E+00  0.00000000000E+00  0.71717612090E+03  0.71717612090E+03  0.00000000000E+00 0. -1.
         21   -1    0    0  501  503 -0.00000000000E+00 -0.00000000000E+00 -0.69789988193E+02  0.69789988193E+02  0.00000000000E+00 0. -1.
          6    1    1    2  501    0 -0.64941492444E+02  0.58650124900E+02  0.12732492170E+03  0.23194367910E+03  0.17300000000E+03 0. -1.
         -6    1    1    2    0  502  0.64941492444E+02 -0.58650124900E+02  0.52006121102E+03  0.55502242999E+03  0.17300000000E+03 0. -1.
<mgrwt>
<rscale>  2 0.19387170E+03</rscale>
<asrwt>0</asrwt>
<pdfrwt beam="1">  1       21 0.11033478E+00 0.19387170E+03</pdfrwt>
<pdfrwt beam="2">  1       21 0.10736922E-01 0.19387170E+03</pdfrwt>
<totfact> 0.46356264E+04</totfact>
</mgrwt>
</event>
<event>
 4    3  0.4009700E+000  0.1980257E+03  0.7546771E-02  0.1151415E+00
         21   -1    0    0  503  502  0.00000000000E+00  0.00000000000E+00  0.56795809642E+03  0.56795809642E+03  0.00000000000E+00 0. -1.
         21   -1    0    0  501  503 -0.00000000000E+00 -0.00000000000E+00 -0.71934810378E+02  0.71934810378E+02  0.00000000000E+00 0. -1.
          6    1    1    2  501    0 -0.95704751889E+02  0.11215545181E+02  0.18387506914E+03  0.27022995585E+03  0.17300000000E+03 0. -1.
         -6    1    1    2    0  502  0.95704751889E+02 -0.11215545181E+02  0.31214821690E+03  0.36966295094E+03  0.17300000000E+03 0. -1.
<mgrwt>
<rscale>  2 0.19802573E+03</rscale>
<asrwt>0</asrwt>
<pdfrwt beam="1">  1       21 0.87378166E-01 0.19802573E+03</pdfrwt>
<pdfrwt beam="2">  1       21 0.11066894E-01 0.19802573E+03</pdfrwt>
<totfact> 0.76070820E+04</totfact>
</mgrwt>
</event>
<event>
 4    3  0.4009700E+000  0.2089015E+03  0.7546771E-02  0.1142439E+00
         21   -1    0    0  501  502  0.00000000000E+00  0.00000000000E+00  0.21870617245E+03  0.21870617245E+03  0.00000000000E+00 0.  1.
         21   -1    0    0  502  503 -0.00000000000E+00 -0.00000000000E+00 -0.20056344912E+03  0.20056344912E+03  0.00000000000E+00 0.  1.
          6    1    1    2  501    0 -0.10587518583E+03 -0.50012943091E+02  0.24072568816E+02  0.21028394618E+03  0.17300000000E+03 0.  1.
         -6    1    1    2    0  503  0.10587518583E+03  0.50012943091E+02 -0.59298454835E+01  0.20898567539E+03  0.17300000000E+03 0.  1.
<mgrwt>
<rscale>  2 0.20890153E+03</rscale>
<asrwt>0</asrwt>
<pdfrwt beam="1">  1       21 0.33647104E-01 0.20890153E+03</pdfrwt>
<pdfrwt beam="2">  1       21 0.30855915E-01 0.20890153E+03</pdfrwt>
<totfact> 0.85238732E+04</totfact>
</mgrwt>
</event>
<event>
 4    3  0.4009700E+000  0.1935370E+03  0.7546771E-02  0.1155309E+00
         21   -1    0    0  503  502  0.00000000000E+00  0.00000000000E+00  0.75880019348E+03  0.75880019348E+03  0.00000000000E+00 0. -1.
         21   -1    0    0  501  503 -0.00000000000E+00 -0.00000000000E+00 -0.73211005859E+02  0.73211005859E+02  0.00000000000E+00 0. -1.
          6    1    1    2  501    0  0.39733691636E+02 -0.77128476458E+02  0.10536324793E+03  0.22035875782E+03  0.17300000000E+03 0.  1.
         -6    1    1    2    0  502 -0.39733691636E+02  0.77128476458E+02  0.58022593969E+03  0.61165244152E+03  0.17300000000E+03 0.  1.
<mgrwt>
<rscale>  2 0.19353699E+03</rscale>
<asrwt>0</asrwt>
<pdfrwt beam="1">  1       21 0.11673849E+00 0.19353699E+03</pdfrwt>
<pdfrwt beam="2">  1       21 0.11263232E-01 0.19353699E+03</pdfrwt>
<totfact> 0.37120621E+04</totfact>
</mgrwt>
</event>
<event>
 4    3  0.4009700E+000  0.2188698E+03  0.7546771E-02  0.1134728E+00
         21   -1    0    0  501  502  0.00000000000E+00  0.00000000000E+00  0.36816259886E+03  0.36816259886E+03  0.00000000000E+00 0.  1.
         21   -1    0    0  502  503 -0.00000000000E+00 -0.00000000000E+00 -0.13103285586E+03  0.13103285586E+03  0.00000000000E+00 0. -1.
          6    1    1    2  501    0  0.10373329903E+03  0.84937700746E+02  0.13943833350E+03  0.25951311949E+03  0.17300000000E+03 0.  1.
         -6    1    1    2    0  503 -0.10373329903E+03 -0.84937700746E+02  0.97691409495E+02  0.23968233524E+03  0.17300000000E+03 0. -1.
<mgrwt>
<rscale>  2 0.21886985E+03</rscale>
<asrwt>0</asrwt>
<pdfrwt beam="1">  1       21 0.56640399E-01 0.21886985E+03</pdfrwt>
<pdfrwt beam="2">  1       21 0.20158901E-01 0.21886985E+03</pdfrwt>
<totfact> 0.65883656E+04</totfact>
</mgrwt>
</event>
<event>
 4    3  0.4009700E+000  0.1920515E+03  0.7546771E-02  0.1156624E+00
         21   -1    0    0  503  502  0.00000000000E+00  0.00000000000E+00  0.35121723590E+03  0.35121723590E+03  0.00000000000E+00 0. -1.
         21   -1    0    0  501  503 -0.00000000000E+00 -0.00000000000E+00 -0.13505067036E+03  0.13505067036E+03  0.00000000000E+00 0.  1.
          6    1    1    2  501    0 -0.75763016410E+02  0.34853410388E+02 -0.65738685628E+01  0.19216402010E+03  0.17300000000E+03 0.  1.
         -6    1    1    2    0  502  0.75763016410E+02 -0.34853410388E+02  0.22274043411E+03  0.29410388617E+03  0.17300000000E+03 0. -1.
<mgrwt>
<rscale>  2 0.19205154E+03</rscale>
<asrwt>0</asrwt>
<pdfrwt beam="1">  1       21 0.54033421E-01 0.19205154E+03</pdfrwt>
<pdfrwt beam="2">  1       21 0.20777026E-01 0.19205154E+03</pdfrwt>
<totfact> 0.69624439E+04</totfact>
</mgrwt>
</event>
<event>
 4    3  0.4009700E+000  0.1970827E+03  0.7546771E-02  0.1152224E+00
         21   -1    0    0  501  502  0.00000000000E+00  0.00000000000E+00  0.92561777872E+02  0.92561777872E+02  0.00000000000E+00 0. -1.
         21   -1    0    0  502  503 -0.00000000000E+00 -0.00000000000E+00 -0.72059530951E+03  0.72059530951E+03  0.00000000000E+00 0. -1.
          6    1    1    2  501    0  0.13256297737E+02 -0.93471192860E+02 -0.57677587631E+03  0.60951784619E+03  0.17300000000E+03 0. -1.
         -6    1    1    2    0  503 -0.13256297737E+02  0.93471192860E+02 -0.51257655325E+02  0.20363924119E+03  0.17300000000E+03 0. -1.
<mgrwt>
<rscale>  2 0.19708271E+03</rscale>
<asrwt>0</asrwt>
<pdfrwt beam="1">  1       21 0.14240274E-01 0.19708271E+03</pdfrwt>
<pdfrwt beam="2">  1       21 0.11086081E+00 0.19708271E+03</pdfrwt>
<totfact> 0.27559086E+04</totfact>
</mgrwt>
</event>
<event>
 4    3  0.4009700E+000  0.2662517E+03  0.7546771E-02  0.1103444E+00
         21   -1    0    0  503  502  0.00000000000E+00  0.00000000000E+00  0.41445696733E+03  0.41445696733E+03  0.00000000000E+00 0. -1.
         21   -1    0    0  501  503 -0.00000000000E+00 -0.00000000000E+00 -0.39898665215E+03  0.39898665215E+03  0.00000000000E+00 0.  1.
          6    1    1    2  501    0 -0.19944472879E+03 -0.34391036562E+02 -0.29968481153E+03  0.40087520440E+03  0.17300000000E+03 0. -1.
         -6    1    1    2    0  502  0.19944472879E+03  0.34391036562E+02  0.31515512671E+03  0.41256841508E+03  0.17300000000E+03 0. -1.
<mgrwt>
<rscale>  2 0.26625165E+03</rscale>
<asrwt>0</asrwt>
<pdfrwt beam="1">  1       21 0.63762610E-01 0.26625165E+03</pdfrwt>
<pdfrwt beam="2">  1       21 0.61382562E-01 0.26625165E+03</pdfrwt>
<totfact> 0.53368159E+03</totfact>
</mgrwt>
</event>
<event>
 4    3  0.4009700E+000  0.2347761E+03  0.7546771E-02  0.1123323E+00
         21   -1    0    0  501  502  0.00000000000E+00  0.00000000000E+00  0.15943207613E+03  0.15943207613E+03  0.00000000000E+00 0.  1.
         21   -1    0    0  502  503 -0.00000000000E+00 -0.00000000000E+00 -0.36585028860E+03  0.36585028860E+03  0.00000000000E+00 0. -1.
          6    1    1    2  501    0  0.69599609726E+02  0.14264183264E+03 -0.16480793655E+03  0.28684744037E+03  0.17300000000E+03 0. -1.
         -6    1    1    2    0  503 -0.69599609726E+02 -0.14264183264E+03 -0.41610275921E+02  0.23843492436E+03  0.17300000000E+03 0.  1.
<mgrwt>
<rscale>  2 0.23477606E+03</rscale>
<asrwt>0</asrwt>
<pdfrwt beam="1">  1       21 0.24528012E-01 0.23477606E+03</pdfrwt>
<pdfrwt beam="2">  1       21 0.56284660E-01 0.23477606E+03</pdfrwt>
<totfact> 0.45737631E+04</totfact>
</mgrwt>
</event>
<event>
 4    3  0.4009700E+000  0.1886281E+03  0.7546771E-02  0.1159705E+00
         21   -1    0    0  503  502  0.00000000000E+00  0.00000000000E+00  0.45323992380E+03  0.45323992380E+03  0.00000000000E+00 0. -1.
         21   -1    0    0  501  503 -0.00000000000E+00 -0.00000000000E+00 -0.84753999010E+02  0.84753999010E+02  0.00000000000E+00 0. -1.
          6    1    1    2  501    0 -0.67598510332E+02  0.32893748873E+02  0.11118754177E+03  0.21895941806E+03  0.17300000000E+03 0. -1.
         -6    1    1    2    0  502  0.67598510332E+02 -0.32893748873E+02  0.25729838303E+03  0.31903450475E+03  0.17300000000E+03 0. -1.
<mgrwt>
<rscale>  2 0.18862809E+03</rscale>
<asrwt>0</asrwt>
<pdfrwt beam="1">  1       21 0.69729218E-01 0.18862809E+03</pdfrwt>
<pdfrwt beam="2">  1       21 0.13039077E-01 0.18862809E+03</pdfrwt>
<totfact> 0.94632077E+04</totfact>
</mgrwt>
</event>
<event>
 4    3  0.4009700E+000  0.1947323E+03  0.7546771E-02  0.1154261E+00
         21   -1    0    0  503  502  0.00000000000E+00  0.00000000000E+00  0.26902651739E+03  0.26902651739E+03  0.00000000000E+00 0.  1.
         21   -1    0    0  501  503 -0.00000000000E+00 -0.00000000000E+00 -0.19037981716E+03  0.19037981716E+03  0.00000000000E+00 0.  1.
          6    1    1    2  501    0  0.54326002286E+02 -0.70995348753E+02 -0.77715142182E+02  0.20966711090E+03  0.17300000000E+03 0.  1.
         -6    1    1    2    0  502 -0.54326002286E+02  0.70995348753E+02  0.15636184240E+03  0.24973922365E+03  0.17300000000E+03 0.  1.
<mgrwt>
<rscale>  2 0.19473226E+03</rscale>
<asrwt>0</asrwt>
<pdfrwt beam="1">  1       21 0.41388695E-01 0.19473226E+03</pdfrwt>
<pdfrwt beam="2">  1       21 0.29289203E-01 0.19473226E+03</pdfrwt>
<totfact> 0.62706134E+04</totfact>
</mgrwt>
</event>
<event>
 4    3  0.4009700E+000  0.2281215E+03  0.7546771E-02  0.1127969E+00
         21   -1    0    0  501  502  0.00000000000E+00  0.00000000000E+00  0.14167962888E+03  0.14167962888E+03  0.00000000000E+00 0. -1.
         21   -1    0    0  502  503 -0.00000000000E+00 -0.00000000000E+00 -0.38526790979E+03  0.38526790979E+03  0.00000000000E+00 0.  1.
          6    1    1    2  501    0  0.87970111780E+02 -0.11988189369E+03 -0.17868777590E+03  0.28977358447E+03  0.17300000000E+03 0. -1.
         -6    1    1    2    0  503 -0.87970111780E+02  0.11988189369E+03 -0.64900505007E+02  0.23717395420E+03  0.17300000000E+03 0.  1.
<mgrwt>
<rscale>  2 0.22812148E+03</rscale>
<asrwt>0</asrwt>
<pdfrwt beam="1">  1       21 0.21796866E-01 0.22812148E+03</pdfrwt>
<pdfrwt beam="2">  1       21 0.59271986E-01 0.22812148E+03</pdfrwt>
<totfact> 0.51394726E+04</totfact>
</mgrwt>
</event>
<event>
 4    3  0.4009700E+000  0.1845071E+03  0.7546771E-02  0.1163511E+00
         21   -1    0    0  501  502  0.00000000000E+00  0.00000000000E+00  0.24819629744E+03  0.24819629744E+03  0.00000000000E+00 0. -1.
         21   -1    0    0  502  503 -0.00000000000E+00 -0.00000000000E+00 -0.16814440770E+03  0.16814440770E+03  0.00000000000E+00 0. -1.
          6    1    1    2  501    0 -0.25065019519E+02  0.59039076161E+02  0.12938566932E+03  0.22535198944E+03  0.17300000000E+03 0. -1.
         -6    1    1    2    0  503  0.25065019519E+02 -0.59039076161E+02 -0.49333779591E+02  0.19098871570E+03  0.17300000000E+03 0. -1.
<mgrwt>
<rscale>  2 0.18450709E+03</rscale>
<asrwt>0</asrwt>
<pdfrwt beam="1">  1       21 0.38184046E-01 0.18450709E+03</pdfrwt>
<pdfrwt beam="2">  1       21 0.25868371E-01 0.18450709E+03</pdfrwt>
<totfact> 0.94142605E+04</totfact>
</mgrwt>
</event>
<event>
 4    3  0.4009700E+000  0.1786349E+03  0.7546771E-02  0.1169131E+00
         21   -1    0    0  503  502  0.00000000000E+00  0.00000000000E+00  0.13615691353E+03  0.13615691353E+03  0.00000000000E+00 0.  1.
         21   -1    0    0  501  503 -0.00000000000E+00 -0.00000000000E+00 -0.26768923546E+03  0.26768923546E+03  0.00000000000E+00 0. -1.
          6    1    1    2  501    0  0.31624007876E+02 -0.31326581568E+02 -0.13701040031E+03  0.22512725819E+03  0.17300000000E+03 0. -1.
         -6    1    1    2    0  502 -0.31624007876E+02  0.31326581568E+02  0.54780783691E+01  0.17871889080E+03  0.17300000000E+03 0.  1.
<mgrwt>
<rscale>  2 0.17863491E+03</rscale>
<asrwt>0</asrwt>
<pdfrwt beam="1">  1       21 0.20947218E-01 0.17863491E+03</pdfrwt>
<pdfrwt beam="2">  1       21 0.41182959E-01 0.17863491E+03</pdfrwt>
<totfact> 0.12079282E+05</totfact>
</mgrwt>
</event>
<event>
 4    3  0.4009700E+000  0.2141272E+03  0.7546771E-02  0.1138339E+00
         21   -1    0    0  503  502  0.00000000000E+00  0.00000000000E+00  0.45808943319E+03  0.45808943319E+03  0.00000000000E+00 0.  1.
         21   -1    0    0  501  503 -0.00000000000E+00 -0.00000000000E+00 -0.31654019242E+03  0.31654019242E+03  0.00000000000E+00 0. -1.
          6    1    1    2  501    0  0.12510279200E+03 -0.16454317236E+02 -0.24950407212E+03  0.32878980387E+03  0.17300000000E+03 0. -1.
         -6    1    1    2    0  502 -0.12510279200E+03  0.16454317236E+02  0.39105331289E+03  0.44583982173E+03  0.17300000000E+03 0.  1.
<mgrwt>
<rscale>  2 0.21412719E+03</rscale>
<asrwt>0</asrwt>
<pdfrwt beam="1">  1       21 0.70475297E-01 0.21412719E+03</pdfrwt>
<pdfrwt beam="2">  1       21 0.48698491E-01 0.21412719E+03</pdfrwt>
<totfact> 0.72360788E+03</totfact>
</mgrwt>
</event>
<event>
 4    3  0.4009700E+000  0.2617856E+03  0.7546771E-02  0.1106075E+00
         21   -1    0    0  503  502  0.00000000000E+00  0.00000000000E+00  0.16040746011E+03  0.16040746011E+03  0.00000000000E+00 0. -1.
         21   -1    0    0  501  503 -0.00000000000E+00 -0.00000000000E+00 -0.93777303317E+03  0.93777303317E+03  0.00000000000E+00 0. -1.
          6    1    1    2  501    0  0.82533969652E+02  0.17829985549E+03 -0.79382628550E+03  0.83587790147E+03  0.17300000000E+03 0. -1.
         -6    1    1    2    0  502 -0.82533969652E+02 -0.17829985549E+03  0.16460712445E+02  0.26230259181E+03  0.17300000000E+03 0. -1.
<mgrwt>
<rscale>  2 0.26178559E+03</rscale>
<asrwt>0</asrwt>
<pdfrwt beam="1">  1       21 0.24678071E-01 0.26178559E+03</pdfrwt>
<pdfrwt beam="2">  1       21 0.14427277E+00 0.26178559E+03</pdfrwt>
<totfact> 0.48845453E+03</totfact>
</mgrwt>
</event>
<event>
 4    3  0.4009700E+000  0.3670620E+03  0.7546771E-02  0.1055822E+00
         21   -1    0    0  503  502  0.00000000000E+00  0.00000000000E+00  0.20147454669E+04  0.20147454669E+04  0.00000000000E+00 0.  1.
         21   -1    0    0  501  503 -0.00000000000E+00 -0.00000000000E+00 -0.71165705988E+02  0.71165705988E+02  0.00000000000E+00 0. -1.
          6    1    1    2  501    0 -0.21813013776E+03 -0.23921702156E+03  0.71567544234E+03  0.80431702653E+03  0.17300000000E+03 0.  1.
         -6    1    1    2    0  502  0.21813013776E+03  0.23921702156E+03  0.12279043186E+04  0.12815941463E+04  0.17300000000E+03 0. -1.
<mgrwt>
<rscale>  2 0.36706204E+03</rscale>
<asrwt>0</asrwt>
<pdfrwt beam="1">  1       21 0.30996080E+00 0.36706204E+03</pdfrwt>
<pdfrwt beam="2">  1       21 0.10948572E-01 0.36706204E+03</pdfrwt>
<totfact> 0.17629108E+03</totfact>
</mgrwt>
</event>
<event>
 4    3  0.4009700E+000  0.3184170E+03  0.7546771E-02  0.1076380E+00
         21   -1    0    0  501  502  0.00000000000E+00  0.00000000000E+00  0.13011248997E+03  0.13011248997E+03  0.00000000000E+00 0. -1.
         21   -1    0    0  502  503 -0.00000000000E+00 -0.00000000000E+00 -0.79002270518E+03  0.79002270518E+03  0.00000000000E+00 0. -1.
          6    1    1    2  501    0 -0.25800159680E+03  0.69968125530E+02 -0.38369383980E+03  0.49860838866E+03  0.17300000000E+03 0. -1.
         -6    1    1    2    0  503  0.25800159680E+03 -0.69968125530E+02 -0.27621637541E+03  0.42152680649E+03  0.17300000000E+03 0. -1.
<mgrwt>
<rscale>  2 0.31841696E+03</rscale>
<asrwt>0</asrwt>
<pdfrwt beam="1">  1       21 0.20017306E-01 0.31841696E+03</pdfrwt>
<pdfrwt beam="2">  1       21 0.12154195E+00 0.31841696E+03</pdfrwt>
<totfact> 0.10986046E+04</totfact>
</mgrwt>
</event>
<event>
 4    3  0.4009700E+000  0.1798731E+03  0.7546771E-02  0.1167926E+00
         21   -1    0    0  503  502  0.00000000000E+00  0.00000000000E+00  0.15036763480E+03  0.15036763480E+03  0.00000000000E+00 0. -1.
         21   -1    0    0  501  503 -0.00000000000E+00 -0.00000000000E+00 -0.21537347141E+03  0.21537347141E+03  0.00000000000E+00 0. -1.
          6    1    1    2  501    0 -0.25532449872E+02  0.42112275702E+02 -0.26858798935E+02  0.18186738257E+03  0.17300000000E+03 0.  1.
         -6    1    1    2    0  502  0.25532449872E+02 -0.42112275702E+02 -0.38147037674E+02  0.18387372364E+03  0.17300000000E+03 0.  1.
<mgrwt>
<rscale>  2 0.17987315E+03</rscale>
<asrwt>0</asrwt>
<pdfrwt beam="1">  1       21 0.23133482E-01 0.17987315E+03</pdfrwt>
<pdfrwt beam="2">  1       21 0.33134380E-01 0.17987315E+03</pdfrwt>
<totfact> 0.15458343E+05</totfact>
</mgrwt>
</event>
<event>
 4    3  0.4009700E+000  0.1969623E+03  0.7546771E-02  0.1152327E+00
         21   -1    0    0  503  502  0.00000000000E+00  0.00000000000E+00  0.26210505243E+03  0.26210505243E+03  0.00000000000E+00 0.  1.
         21   -1    0    0  501  503 -0.00000000000E+00 -0.00000000000E+00 -0.18429887567E+03  0.18429887567E+03  0.00000000000E+00 0.  1.
          6    1    1    2  501    0  0.82897397338E+02 -0.44645021969E+02 -0.60139893465E+02  0.20593922224E+03  0.17300000000E+03 0.  1.
         -6    1    1    2    0  502 -0.82897397338E+02  0.44645021969E+02  0.13794607023E+03  0.24046470586E+03  0.17300000000E+03 0.  1.
<mgrwt>
<rscale>  2 0.19696232E+03</rscale>
<asrwt>0</asrwt>
<pdfrwt beam="1">  1       21 0.40323854E-01 0.19696232E+03</pdfrwt>
<pdfrwt beam="2">  1       21 0.28353673E-01 0.19696232E+03</pdfrwt>
<totfact> 0.70334633E+04</totfact>
</mgrwt>
</event>
<event>
 4    3  0.4009700E+000  0.1788127E+03  0.7546771E-02  0.1168957E+00
         21   -1    0    0  501  502  0.00000000000E+00  0.00000000000E+00  0.38129648376E+03  0.38129648376E+03  0.00000000000E+00 0.  1.
         21   -1    0    0  502  503 -0.00000000000E+00 -0.00000000000E+00 -0.18043759798E+03  0.18043759798E+03  0.00000000000E+00 0.  1.
          6    1    1    2  501    0  0.33636788603E+02 -0.30224947513E+02  0.30591653832E+03  0.35434292630E+03  0.17300000000E+03 0.  1.
         -6    1    1    2    0  503 -0.33636788603E+02  0.30224947513E+02 -0.10505765254E+03  0.20739115544E+03  0.17300000000E+03 0.  1.
<mgrwt>
<rscale>  2 0.17881270E+03</rscale>
<asrwt>0</asrwt>
<pdfrwt beam="1">  1       21 0.58660997E-01 0.17881270E+03</pdfrwt>
<pdfrwt beam="2">  1       21 0.27759630E-01 0.17881270E+03</pdfrwt>
<totfact> 0.33938023E+04</totfact>
</mgrwt>
</event>
<event>
 4    3  0.4009700E+000  0.1973700E+03  0.7546771E-02  0.1151977E+00
         21   -1    0    0  501  502  0.00000000000E+00  0.00000000000E+00  0.32077516677E+03  0.32077516677E+03  0.00000000000E+00 0. -1.
         21   -1    0    0  502  503 -0.00000000000E+00 -0.00000000000E+00 -0.25352227543E+03  0.25352227543E+03  0.00000000000E+00 0. -1.
          6    1    1    2  501    0  0.11975188654E+02 -0.94247078984E+02  0.24088916592E+03  0.31142014594E+03  0.17300000000E+03 0. -1.
         -6    1    1    2    0  503 -0.11975188654E+02  0.94247078984E+02 -0.17363627457E+03  0.26287729626E+03  0.17300000000E+03 0. -1.
<mgrwt>
<rscale>  2 0.19737000E+03</rscale>
<asrwt>0</asrwt>
<pdfrwt beam="1">  1       21 0.49350026E-01 0.19737000E+03</pdfrwt>
<pdfrwt beam="2">  1       21 0.39003427E-01 0.19737000E+03</pdfrwt>
<totfact> 0.24750505E+04</totfact>
</mgrwt>
</event>
<event>
 4    3  0.4009700E+000  0.1791354E+03  0.7546771E-02  0.1168642E+00
         21   -1    0    0  501  502  0.00000000000E+00  0.00000000000E+00  0.34350008200E+03  0.34350008200E+03  0.00000000000E+00 0. -1.
         21   -1    0    0  502  503 -0.00000000000E+00 -0.00000000000E+00 -0.96349117690E+02  0.96349117690E+02  0.00000000000E+00 0. -1.
          6    1    1    2  501    0  0.89119855284E+01 -0.45618879898E+02  0.16192651274E+03  0.24147401769E+03  0.17300000000E+03 0.  1.
         -6    1    1    2    0  503 -0.89119855284E+01  0.45618879898E+02  0.85224451567E+02  0.19837518200E+03  0.17300000000E+03 0.  1.
<mgrwt>
<rscale>  2 0.17913544E+03</rscale>
<asrwt>0</asrwt>
<pdfrwt beam="1">  1       21 0.52846166E-01 0.17913544E+03</pdfrwt>
<pdfrwt beam="2">  1       21 0.14822941E-01 0.17913544E+03</pdfrwt>
<totfact> 0.13664970E+05</totfact>
</mgrwt>
</event>
<event>
 4    3  0.4009700E+000  0.1767831E+03  0.7546771E-02  0.1170953E+00
         21   -1    0    0  501  502  0.00000000000E+00  0.00000000000E+00  0.13857588343E+03  0.13857588343E+03  0.00000000000E+00 0.  1.
         21   -1    0    0  502  503 -0.00000000000E+00 -0.00000000000E+00 -0.22739400862E+03  0.22739400862E+03  0.00000000000E+00 0.  1.
          6    1    1    2  501    0 -0.18415909356E+02  0.31370760289E+02 -0.27817844303E+02  0.17895838282E+03  0.17300000000E+03 0.  1.
         -6    1    1    2    0  503  0.18415909356E+02 -0.31370760289E+02 -0.61000280881E+02  0.18701150923E+03  0.17300000000E+03 0.  1.
<mgrwt>
<rscale>  2 0.17678312E+03</rscale>
<asrwt>0</asrwt>
<pdfrwt beam="1">  1       21 0.21319367E-01 0.17678312E+03</pdfrwt>
<pdfrwt beam="2">  1       21 0.34983694E-01 0.17678312E+03</pdfrwt>
<totfact> 0.16211055E+05</totfact>
</mgrwt>
</event>
<event>
 4    3  0.4009700E+000  0.1906721E+03  0.7546771E-02  0.1157857E+00
         21   -1    0    0  501  502  0.00000000000E+00  0.00000000000E+00  0.73521576065E+02  0.73521576065E+02  0.00000000000E+00 0. -1.
         21   -1    0    0  502  503 -0.00000000000E+00 -0.00000000000E+00 -0.50997714893E+03  0.50997714893E+03  0.00000000000E+00 0.  1.
          6    1    1    2  501    0  0.65428935429E+01  0.79900190613E+02 -0.26906581249E+03  0.32977607761E+03  0.17300000000E+03 0. -1.
         -6    1    1    2    0  503 -0.65428935429E+01 -0.79900190613E+02 -0.16738976038E+03  0.25372264738E+03  0.17300000000E+03 0. -1.
<mgrwt>
<rscale>  2 0.19067210E+03</rscale>
<asrwt>0</asrwt>
<pdfrwt beam="1">  1       21 0.11311012E-01 0.19067210E+03</pdfrwt>
<pdfrwt beam="2">  1       21 0.78458023E-01 0.19067210E+03</pdfrwt>
<totfact> 0.93797468E+04</totfact>
</mgrwt>
</event>
<event>
 4    3  0.4009700E+000  0.2527637E+03  0.7546771E-02  0.1111571E+00
         21   -1    0    0  501  502  0.00000000000E+00  0.00000000000E+00  0.57338572635E+02  0.57338572635E+02  0.00000000000E+00 0.  1.
         21   -1    0    0  502  503 -0.00000000000E+00 -0.00000000000E+00 -0.11152110992E+04  0.11152110992E+04  0.00000000000E+00 0.  1.
          6    1    1    2  501    0  0.18386118359E+03  0.12472792477E+02 -0.54614716280E+03  0.60180248323E+03  0.17300000000E+03 0.  1.
         -6    1    1    2    0  503 -0.18386118359E+03 -0.12472792477E+02 -0.51172536379E+03  0.57074718863E+03  0.17300000000E+03 0.  1.
<mgrwt>
<rscale>  2 0.25276373E+03</rscale>
<asrwt>0</asrwt>
<pdfrwt beam="1">  1       21 0.88213196E-02 0.25276373E+03</pdfrwt>
<pdfrwt beam="2">  1       21 0.17157092E+00 0.25276373E+03</pdfrwt>
<totfact> 0.20260107E+04</totfact>
</mgrwt>
</event>
<event>
 4    3  0.4009700E+000  0.3442782E+03  0.7546771E-02  0.1064988E+00
         21   -1    0    0  503  502  0.00000000000E+00  0.00000000000E+00  0.20217875489E+04  0.20217875489E+04  0.00000000000E+00 0.  1.
         21   -1    0    0  501  503 -0.00000000000E+00 -0.00000000000E+00 -0.58629139757E+02  0.58629139757E+02  0.00000000000E+00 0. -1.
          6    1    1    2  501    0 -0.86042266600E+02  0.28494770699E+03  0.99022956118E+03  0.10483711419E+04  0.17300000000E+03 0.  1.
         -6    1    1    2    0  502  0.86042266600E+02 -0.28494770699E+03  0.97292884797E+03  0.10320455468E+04  0.17300000000E+03 0. -1.
<mgrwt>
<rscale>  2 0.34427818E+03</rscale>
<asrwt>0</asrwt>
<pdfrwt beam="1">  1       21 0.31104418E+00 0.34427818E+03</pdfrwt>
<pdfrwt beam="2">  1       21 0.90198692E-02 0.34427818E+03</pdfrwt>
<totfact> 0.24940971E+03</totfact>
</mgrwt>
</event>
<event>
 4    3  0.4009700E+000  0.2214969E+03  0.7546771E-02  0.1132772E+00
         21   -1    0    0  501  502  0.00000000000E+00  0.00000000000E+00  0.12742861802E+04  0.12742861802E+04  0.00000000000E+00 0.  1.
         21   -1    0    0  502  503 -0.00000000000E+00 -0.00000000000E+00 -0.38532848516E+02  0.38532848516E+02  0.00000000000E+00 0. -1.
          6    1    1    2  501    0 -0.29121208939E+02  0.13521777868E+03  0.63684076821E+03  0.67426037740E+03  0.17300000000E+03 0.  1.
         -6    1    1    2    0  503  0.29121208939E+02 -0.13521777868E+03  0.59891256349E+03  0.63855865133E+03  0.17300000000E+03 0. -1.
<mgrwt>
<rscale>  2 0.22149694E+03</rscale>
<asrwt>0</asrwt>
<pdfrwt beam="1">  1       21 0.19604400E+00 0.22149694E+03</pdfrwt>
<pdfrwt beam="2">  1       21 0.59281315E-02 0.22149694E+03</pdfrwt>
<totfact> 0.28100554E+04</totfact>
</mgrwt>
</event>
<event>
 4    3  0.4009700E+000  0.1765427E+03  0.7546771E-02  0.1171192E+00
         21   -1    0    0  501  502  0.00000000000E+00  0.00000000000E+00  0.40467557394E+03  0.40467557394E+03  0.00000000000E+00 0.  1.
         21   -1    0    0  502  503 -0.00000000000E+00 -0.00000000000E+00 -0.11098725742E+03  0.11098725742E+03  0.00000000000E+00 0.  1.
          6    1    1    2  501    0  0.31164646296E+01  0.35051334055E+02  0.28948445072E+03  0.33907013372E+03  0.17300000000E+03 0.  1.
         -6    1    1    2    0  503 -0.31164646296E+01 -0.35051334055E+02  0.42038657948E+01  0.17659269764E+03  0.17300000000E+03 0.  1.
<mgrwt>
<rscale>  2 0.17654265E+03</rscale>
<asrwt>0</asrwt>
<pdfrwt beam="1">  1       21 0.62257780E-01 0.17654265E+03</pdfrwt>
<pdfrwt beam="2">  1       21 0.17074963E-01 0.17654265E+03</pdfrwt>
<totfact> 0.74562356E+04</totfact>
</mgrwt>
</event>
<event>
 4    3  0.4009700E+000  0.1825787E+03  0.7546771E-02  0.1165330E+00
         21   -1    0    0  501  502  0.00000000000E+00  0.00000000000E+00  0.63419121821E+02  0.63419121821E+02  0.00000000000E+00 0.  1.
         21   -1    0    0  502  503 -0.00000000000E+00 -0.00000000000E+00 -0.52984243849E+03  0.52984243849E+03  0.00000000000E+00 0.  1.
          6    1    1    2  501    0 -0.45049705670E+02 -0.37101334734E+02 -0.20676224046E+03  0.27583619976E+03  0.17300000000E+03 0. -1.
         -6    1    1    2    0  503  0.45049705670E+02  0.37101334734E+02 -0.25966107621E+03  0.31742536055E+03  0.17300000000E+03 0. -1.
<mgrwt>
<rscale>  2 0.18257871E+03</rscale>
<asrwt>0</asrwt>
<pdfrwt beam="1">  1       21 0.97567878E-02 0.18257871E+03</pdfrwt>
<pdfrwt beam="2">  1       21 0.81514223E-01 0.18257871E+03</pdfrwt>
<totfact> 0.11214309E+05</totfact>
</mgrwt>
</event>
<event>
 4    3  0.4009700E+000  0.1908424E+03  0.7546771E-02  0.1157704E+00
         21   -1    0    0  501  502  0.00000000000E+00  0.00000000000E+00  0.25402425680E+03  0.25402425680E+03  0.00000000000E+00 0.  1.
         21   -1    0    0  502  503 -0.00000000000E+00 -0.00000000000E+00 -0.21969759887E+03  0.21969759887E+03  0.00000000000E+00 0.  1.
          6    1    1    2  501    0 -0.27320063936E+02 -0.75798570929E+02  0.15677008444E+03  0.24697706093E+03  0.17300000000E+03 0.  1.
         -6    1    1    2    0  503  0.27320063936E+02  0.75798570929E+02 -0.12244342651E+03  0.22674479474E+03  0.17300000000E+03 0.  1.
<mgrwt>
<rscale>  2 0.19084237E+03</rscale>
<asrwt>0</asrwt>
<pdfrwt beam="1">  1       21 0.39080655E-01 0.19084237E+03</pdfrwt>
<pdfrwt beam="2">  1       21 0.33799631E-01 0.19084237E+03</pdfrwt>
<totfact> 0.53278736E+04</totfact>
</mgrwt>
</event>
<event>
 4    3  0.4009700E+000  0.1752332E+03  0.7546771E-02  0.1172498E+00
         21   -1    0    0  503  502  0.00000000000E+00  0.00000000000E+00  0.12254609354E+04  0.12254609354E+04  0.00000000000E+00 0.  1.
         21   -1    0    0  501  503 -0.00000000000E+00 -0.00000000000E+00 -0.39287650057E+02  0.39287650057E+02  0.00000000000E+00 0.  1.
          6    1    1    2  501    0  0.25663030672E+02  0.10913114152E+02  0.21249902187E+03  0.27543151871E+03  0.17300000000E+03 0.  1.
         -6    1    1    2    0  502 -0.25663030672E+02 -0.10913114152E+02  0.97367426348E+03  0.98931706675E+03  0.17300000000E+03 0.  1.
<mgrwt>
<rscale>  2 0.17523324E+03</rscale>
<asrwt>0</asrwt>
<pdfrwt beam="1">  1       21 0.18853242E+00 0.17523324E+03</pdfrwt>
<pdfrwt beam="2">  1       21 0.60442548E-02 0.17523324E+03</pdfrwt>
<totfact> 0.31434752E+04</totfact>
</mgrwt>
</event>
<event>
 4    3  0.4009700E+000  0.1757783E+03  0.7546771E-02  0.1171952E+00
         21   -1    0    0  501  502  0.00000000000E+00  0.00000000000E+00  0.12359994756E+04  0.12359994756E+04  0.00000000000E+00 0.  1.
         21   -1    0    0  502  503 -0.00000000000E+00 -0.00000000000E+00 -0.15917307212E+03  0.15917307212E+03  0.00000000000E+00 0.  1.
          6    1    1    2  501    0  0.98889081457E+01 -0.29516507591E+02  0.11788826113E+04  0.11919153602E+04  0.17300000000E+03 0.  1.
         -6    1    1    2    0  503 -0.98889081457E+01  0.29516507591E+02 -0.10205620780E+03  0.20325718751E+03  0.17300000000E+03 0.  1.
<mgrwt>
<rscale>  2 0.17577831E+03</rscale>
<asrwt>0</asrwt>
<pdfrwt beam="1">  1       21 0.19015376E+00 0.17577831E+03</pdfrwt>
<pdfrwt beam="2">  1       21 0.24488166E-01 0.17577831E+03</pdfrwt>
<totfact> 0.24948396E+03</totfact>
</mgrwt>
</event>
<event>
 4    3  0.4009700E+000  0.2421739E+03  0.7546771E-02  0.1118353E+00
         21   -1    0    0  501  502  0.00000000000E+00  0.00000000000E+00  0.37773290644E+03  0.37773290644E+03  0.00000000000E+00 0.  1.
         21   -1    0    0  502  503 -0.00000000000E+00 -0.00000000000E+00 -0.15685853187E+03  0.15685853187E+03  0.00000000000E+00 0. -1.
          6    1    1    2  501    0  0.14442563088E+03  0.88659134260E+02  0.83484831853E+02  0.25615995412E+03  0.17300000000E+03 0.  1.
         -6    1    1    2    0  503 -0.14442563088E+03 -0.88659134260E+02  0.13738954272E+03  0.27843148420E+03  0.17300000000E+03 0.  1.
<mgrwt>
<rscale>  2 0.24217391E+03</rscale>
<asrwt>0</asrwt>
<pdfrwt beam="1">  1       21 0.58112755E-01 0.24217391E+03</pdfrwt>
<pdfrwt beam="2">  1       21 0.24132082E-01 0.24217391E+03</pdfrwt>
<totfact> 0.43925088E+04</totfact>
</mgrwt>
</event>
<event>
 4    3  0.4009700E+000  0.1829015E+03  0.7546771E-02  0.1165024E+00
         21   -1    0    0  503  502  0.00000000000E+00  0.00000000000E+00  0.23263265326E+03  0.23263265326E+03  0.00000000000E+00 0. -1.
         21   -1    0    0  501  503 -0.00000000000E+00 -0.00000000000E+00 -0.17914256844E+03  0.17914256844E+03  0.00000000000E+00 0.  1.
          6    1    1    2  501    0 -0.59311691129E+02 -0.24659016774E+01 -0.64702025391E+02  0.19400852936E+03  0.17300000000E+03 0.  1.
         -6    1    1    2    0  502  0.59311691129E+02  0.24659016774E+01  0.11819211021E+03  0.21776669234E+03  0.17300000000E+03 0. -1.
<mgrwt>
<rscale>  2 0.18290150E+03</rscale>
<asrwt>0</asrwt>
<pdfrwt beam="1">  1       21 0.35789639E-01 0.18290150E+03</pdfrwt>
<pdfrwt beam="2">  1       21 0.27560395E-01 0.18290150E+03</pdfrwt>
<totfact> 0.94917869E+04</totfact>
</mgrwt>
</event>
<event>
 4    3  0.4009700E+000  0.1863132E+03  0.7546771E-02  0.1161829E+00
         21   -1    0    0  503  502  0.00000000000E+00  0.00000000000E+00  0.36553969813E+03  0.36553969813E+03  0.00000000000E+00 0.  1.
         21   -1    0    0  501  503 -0.00000000000E+00 -0.00000000000E+00 -0.17631081634E+03  0.17631081634E+03  0.00000000000E+00 0. -1.
          6    1    1    2  501    0  0.60043609082E+02 -0.34327436389E+02 -0.89413589154E+02  0.20665768267E+03  0.17300000000E+03 0. -1.
         -6    1    1    2    0  502 -0.60043609082E+02  0.34327436389E+02  0.27864247094E+03  0.33519283180E+03  0.17300000000E+03 0.  1.
<mgrwt>
<rscale>  2 0.18631320E+03</rscale>
<asrwt>0</asrwt>
<pdfrwt beam="1">  1       21 0.56236876E-01 0.18631320E+03</pdfrwt>
<pdfrwt beam="2">  1       21 0.27124741E-01 0.18631320E+03</pdfrwt>
<totfact> 0.38668401E+04</totfact>
</mgrwt>
</event>
<event>
 4    3  0.4009700E+000  0.2177777E+03  0.7546771E-02  0.1135551E+00
         21   -1    0    0  503  502  0.00000000000E+00  0.00000000000E+00  0.16955385385E+03  0.16955385385E+03  0.00000000000E+00 0. -1.
         21   -1    0    0  501  503 -0.00000000000E+00 -0.00000000000E+00 -0.51269139444E+03  0.51269139444E+03  0.00000000000E+00 0.  1.
          6    1    1    2  501    0  0.56509561745E+02 -0.11960268879E+03 -0.40152034856E+03  0.45677754328E+03  0.17300000000E+03 0.  1.
         -6    1    1    2    0  502 -0.56509561745E+02  0.11960268879E+03  0.58382807973E+02  0.22546770501E+03  0.17300000000E+03 0. -1.
<mgrwt>
<rscale>  2 0.21777772E+03</rscale>
<asrwt>0</asrwt>
<pdfrwt beam="1">  1       21 0.26085208E-01 0.21777772E+03</pdfrwt>
<pdfrwt beam="2">  1       21 0.78875599E-01 0.21777772E+03</pdfrwt>
<totfact> 0.19534534E+04</totfact>
</mgrwt>
</event>
<event>
 4    3  0.4009700E+000  0.2827296E+03  0.7546771E-02  0.1094207E+00
         21   -1    0    0  503  502  0.00000000000E+00  0.00000000000E+00  0.19506554775E+03  0.19506554775E+03  0.00000000000E+00 0. -1.
         21   -1    0    0  501  503 -0.00000000000E+00 -0.00000000000E+00 -0.86399352471E+03  0.86399352471E+03  0.00000000000E+00 0. -1.
          6    1    1    2  501    0 -0.15676564478E+03  0.15947272214E+03 -0.71840096148E+03  0.77203365079E+03  0.17300000000E+03 0. -1.
         -6    1    1    2    0  502  0.15676564478E+03 -0.15947272214E+03  0.49472984520E+02  0.28702542168E+03  0.17300000000E+03 0. -1.
<mgrwt>
<rscale>  2 0.28272958E+03</rscale>
<asrwt>0</asrwt>
<pdfrwt beam="1">  1       21 0.30010084E-01 0.28272958E+03</pdfrwt>
<pdfrwt beam="2">  1       21 0.13292208E+00 0.28272958E+03</pdfrwt>
<totfact> 0.40817412E+03</totfact>
</mgrwt>
</event>
<event>
 4    3  0.4009700E+000  0.1786886E+03  0.7546771E-02  0.1169078E+00
         21   -1    0    0  501  502  0.00000000000E+00  0.00000000000E+00  0.46585584555E+03  0.46585584555E+03  0.00000000000E+00 0. -1.
         21   -1    0    0  502  503 -0.00000000000E+00 -0.00000000000E+00 -0.72261179683E+02  0.72261179683E+02  0.00000000000E+00 0. -1.
          6    1    1    2  501    0 -0.32312884444E+02 -0.30927443179E+02  0.25785649907E+03  0.31371898788E+03  0.17300000000E+03 0. -1.
         -6    1    1    2    0  503  0.32312884444E+02  0.30927443179E+02  0.13573816679E+03  0.22439803735E+03  0.17300000000E+03 0. -1.
<mgrwt>
<rscale>  2 0.17868864E+03</rscale>
<asrwt>0</asrwt>
<pdfrwt beam="1">  1       21 0.71670128E-01 0.17868864E+03</pdfrwt>
<pdfrwt beam="2">  1       21 0.11117105E-01 0.17868864E+03</pdfrwt>
<totfact> 0.11889896E+05</totfact>
</mgrwt>
</event>
<event>
 4    3  0.4009700E+000  0.2338977E+03  0.7546771E-02  0.1123926E+00
         21   -1    0    0  501  502  0.00000000000E+00  0.00000000000E+00  0.59780858044E+03  0.59780858044E+03  0.00000000000E+00 0.  1.
         21   -1    0    0  502  503 -0.00000000000E+00 -0.00000000000E+00 -0.93826966155E+02  0.93826966155E+02  0.00000000000E+00 0.  1.
          6    1    1    2  501    0  0.11973656543E+03  0.10218746524E+03  0.19770004899E+03  0.30625713465E+03  0.17300000000E+03 0.  1.
         -6    1    1    2    0  503 -0.11973656543E+03 -0.10218746524E+03  0.30628156530E+03  0.38537841195E+03  0.17300000000E+03 0.  1.
<mgrwt>
<rscale>  2 0.23389768E+03</rscale>
<asrwt>0</asrwt>
<pdfrwt beam="1">  1       21 0.91970548E-01 0.23389768E+03</pdfrwt>
<pdfrwt beam="2">  1       21 0.14434918E-01 0.23389768E+03</pdfrwt>
<totfact> 0.41169109E+04</totfact>
</mgrwt>
</event>
<event>
 4    3  0.4009700E+000  0.1820014E+03  0.7546771E-02  0.1165880E+00
         21   -1    0    0  503  502  0.00000000000E+00  0.00000000000E+00  0.22379231967E+03  0.22379231967E+03  0.00000000000E+00 0.  1.
         21   -1    0    0  501  503 -0.00000000000E+00 -0.00000000000E+00 -0.25483305264E+03  0.25483305264E+03  0.00000000000E+00 0.  1.
          6    1    1    2  501    0  0.46285720472E+02  0.32452070653E+02 -0.17045953446E+03  0.24936109900E+03  0.17300000000E+03 0.  1.
         -6    1    1    2    0  502 -0.46285720472E+02 -0.32452070653E+02  0.13941880149E+03  0.22926427331E+03  0.17300000000E+03 0.  1.
<mgrwt>
<rscale>  2 0.18200139E+03</rscale>
<asrwt>0</asrwt>
<pdfrwt beam="1">  1       21 0.34429587E-01 0.18200139E+03</pdfrwt>
<pdfrwt beam="2">  1       21 0.39205085E-01 0.18200139E+03</pdfrwt>
<totfact> 0.51248240E+04</totfact>
</mgrwt>
</event>
<event>
 4    3  0.4009700E+000  0.2064273E+03  0.7546771E-02  0.1144427E+00
         21   -1    0    0  501  502  0.00000000000E+00  0.00000000000E+00  0.15908020863E+03  0.15908020863E+03  0.00000000000E+00 0.  1.
         21   -1    0    0  502  503 -0.00000000000E+00 -0.00000000000E+00 -0.87042184547E+03  0.87042184547E+03  0.00000000000E+00 0.  1.
          6    1    1    2  501    0 -0.16997986662E+02 -0.11132960422E+03  0.72612252016E+02  0.21882584735E+03  0.17300000000E+03 0.  1.
         -6    1    1    2    0  503  0.16997986662E+02  0.11132960422E+03 -0.78395388886E+03  0.81067620675E+03  0.17300000000E+03 0.  1.
<mgrwt>
<rscale>  2 0.20642726E+03</rscale>
<asrwt>0</asrwt>
<pdfrwt beam="1">  1       21 0.24473878E-01 0.20642726E+03</pdfrwt>
<pdfrwt beam="2">  1       21 0.13391105E+00 0.20642726E+03</pdfrwt>
<totfact> 0.62572070E+03</totfact>
</mgrwt>
</event>
<event>
 4    3  0.4009700E+000  0.1799340E+03  0.7546771E-02  0.1167867E+00
         21   -1    0    0  501  502  0.00000000000E+00  0.00000000000E+00  0.57018984848E+02  0.57018984848E+02  0.00000000000E+00 0. -1.
         21   -1    0    0  502  503 -0.00000000000E+00 -0.00000000000E+00 -0.62060159319E+03  0.62060159319E+03  0.00000000000E+00 0. -1.
          6    1    1    2  501    0  0.16151994618E+02  0.46758553036E+02 -0.18297902187E+03  0.25662730107E+03  0.17300000000E+03 0. -1.
         -6    1    1    2    0  503 -0.16151994618E+02 -0.46758553036E+02 -0.38060358648E+03  0.42099327697E+03  0.17300000000E+03 0. -1.
<mgrwt>
<rscale>  2 0.17993401E+03</rscale>
<asrwt>0</asrwt>
<pdfrwt beam="1">  1       21 0.87721512E-02 0.17993401E+03</pdfrwt>
<pdfrwt beam="2">  1       21 0.95477171E-01 0.17993401E+03</pdfrwt>
<totfact> 0.94037525E+04</totfact>
</mgrwt>
</event>
<event>
 4    3  0.4009700E+000  0.2178255E+03  0.7546771E-02  0.1135515E+00
         21   -1    0    0  501  502  0.00000000000E+00  0.00000000000E+00  0.16063895421E+03  0.16063895421E+03  0.00000000000E+00 0. -1.
         21   -1    0    0  502  503 -0.00000000000E+00 -0.00000000000E+00 -0.44930667361E+03  0.44930667361E+03  0.00000000000E+00 0. -1.
          6    1    1    2  501    0  0.12111641473E+03 -0.53383361541E+02  0.34175247719E+02  0.22049017385E+03  0.17300000000E+03 0. -1.
         -6    1    1    2    0  503 -0.12111641473E+03  0.53383361541E+02 -0.32284296712E+03  0.38945545396E+03  0.17300000000E+03 0. -1.
<mgrwt>
<rscale>  2 0.21782555E+03</rscale>
<asrwt>0</asrwt>
<pdfrwt beam="1">  1       21 0.24713685E-01 0.21782555E+03</pdfrwt>
<pdfrwt beam="2">  1       21 0.69124104E-01 0.21782555E+03</pdfrwt>
<totfact> 0.29094005E+04</totfact>
</mgrwt>
</event>
<event>
 4    3  0.4009700E+000  0.1995873E+03  0.7546771E-02  0.1150088E+00
         21   -1    0    0  503  502  0.00000000000E+00  0.00000000000E+00  0.12343546449E+03  0.12343546449E+03  0.00000000000E+00 0. -1.
         21   -1    0    0  501  503 -0.00000000000E+00 -0.00000000000E+00 -0.32550293918E+03  0.32550293918E+03  0.00000000000E+00 0. -1.
          6    1    1    2  501    0  0.23857900759E+02 -0.96627582894E+02 -0.80278217002E+02  0.21512712830E+03  0.17300000000E+03 0. -1.
         -6    1    1    2    0  502 -0.23857900759E+02  0.96627582894E+02 -0.12178925768E+03  0.23381127537E+03  0.17300000000E+03 0. -1.
<mgrwt>
<rscale>  2 0.19958730E+03</rscale>
<asrwt>0</asrwt>
<pdfrwt beam="1">  1       21 0.18990071E-01 0.19958730E+03</pdfrwt>
<pdfrwt beam="2">  1       21 0.50077375E-01 0.19958730E+03</pdfrwt>
<totfact> 0.96286843E+04</totfact>
</mgrwt>
</event>
<event>
 4    3  0.4009700E+000  0.1798874E+03  0.7546771E-02  0.1167912E+00
         21   -1    0    0  503  502  0.00000000000E+00  0.00000000000E+00  0.67674039359E+02  0.67674039359E+02  0.00000000000E+00 0.  1.
         21   -1    0    0  501  503 -0.00000000000E+00 -0.00000000000E+00 -0.47817105091E+03  0.47817105091E+03  0.00000000000E+00 0.  1.
          6    1    1    2  501    0  0.47210864703E+02 -0.14198764918E+02 -0.20442328322E+03  0.27230194526E+03  0.17300000000E+03 0.  1.
         -6    1    1    2    0  502 -0.47210864703E+02  0.14198764918E+02 -0.20607372833E+03  0.27354314500E+03  0.17300000000E+03 0.  1.
<mgrwt>
<rscale>  2 0.17988738E+03</rscale>
<asrwt>0</asrwt>
<pdfrwt beam="1">  1       21 0.10411391E-01 0.17988738E+03</pdfrwt>
<pdfrwt beam="2">  1       21 0.73564778E-01 0.17988738E+03</pdfrwt>
<totfact> 0.12599850E+05</totfact>
</mgrwt>
</event>
<event>
 4    3  0.4009700E+000  0.1802005E+03  0.7546771E-02  0.1167609E+00
         21   -1    0    0  503  502  0.00000000000E+00  0.00000000000E+00  0.10815956817E+04  0.10815956817E+04  0.00000000000E+00 0.  1.
         21   -1    0    0  501  503 -0.00000000000E+00 -0.00000000000E+00 -0.84349357573E+02  0.84349357573E+02  0.00000000000E+00 0.  1.
          6    1    1    2  501    0  0.22860634908E+02 -0.44951056381E+02  0.30764701941E+02  0.18280774870E+03  0.17300000000E+03 0.  1.
         -6    1    1    2    0  502 -0.22860634908E+02  0.44951056381E+02  0.96648162217E+03  0.98313729056E+03  0.17300000000E+03 0.  1.
<mgrwt>
<rscale>  2 0.18020046E+03</rscale>
<asrwt>0</asrwt>
<pdfrwt beam="1">  1       21 0.16639933E+00 0.18020046E+03</pdfrwt>
<pdfrwt beam="2">  1       21 0.12976825E-01 0.18020046E+03</pdfrwt>
<totfact> 0.11650809E+04</totfact>
</mgrwt>
</event>
<event>
 4    3  0.4009700E+000  0.1839651E+03  0.7546771E-02  0.1164020E+00
         21   -1    0    0  501  502  0.00000000000E+00  0.00000000000E+00  0.86262627784E+03  0.86262627784E+03  0.00000000000E+00 0.  1.
         21   -1    0    0  502  503 -0.00000000000E+00 -0.00000000000E+00 -0.15158154060E+03  0.15158154060E+03  0.00000000000E+00 0.  1.
          6    1    1    2  501    0 -0.54425751342E+02 -0.30854355905E+02  0.79209660923E+03  0.81317906518E+03  0.17300000000E+03 0.  1.
         -6    1    1    2    0  503  0.54425751342E+02  0.30854355905E+02 -0.81051871988E+02  0.20102875327E+03  0.17300000000E+03 0.  1.
<mgrwt>
<rscale>  2 0.18396509E+03</rscale>
<asrwt>0</asrwt>
<pdfrwt beam="1">  1       21 0.13271173E+00 0.18396509E+03</pdfrwt>
<pdfrwt beam="2">  1       21 0.23320237E-01 0.18396509E+03</pdfrwt>
<totfact> 0.71417347E+03</totfact>
</mgrwt>
</event>
<event>
 4    3  0.4009700E+000  0.1833637E+03  0.7546771E-02  0.1164587E+00
         21   -1    0    0  501  502  0.00000000000E+00  0.00000000000E+00  0.11292623079E+03  0.11292623079E+03  0.00000000000E+00 0.  1.
         21   -1    0    0  502  503 -0.00000000000E+00 -0.00000000000E+00 -0.36849764421E+03  0.36849764421E+03  0.00000000000E+00 0.  1.
          6    1    1    2  501    0  0.28041285533E+02 -0.53915939687E+02 -0.22303745512E+02  0.18471518430E+03  0.17300000000E+03 0.  1.
         -6    1    1    2    0  503 -0.28041285533E+02  0.53915939687E+02 -0.23326766791E+03  0.29670869070E+03  0.17300000000E+03 0.  1.
<mgrwt>
<rscale>  2 0.18336369E+03</rscale>
<asrwt>0</asrwt>
<pdfrwt beam="1">  1       21 0.17373266E-01 0.18336369E+03</pdfrwt>
<pdfrwt beam="2">  1       21 0.56691946E-01 0.18336369E+03</pdfrwt>
<totfact> 0.87998912E+04</totfact>
</mgrwt>
</event>
<event>
 4    3  0.4009700E+000  0.3822210E+03  0.7546771E-02  0.1050116E+00
         21   -1    0    0  503  502  0.00000000000E+00  0.00000000000E+00  0.10160353465E+04  0.10160353465E+04  0.00000000000E+00 0.  1.
         21   -1    0    0  501  503 -0.00000000000E+00 -0.00000000000E+00 -0.29198343963E+03  0.29198343963E+03  0.00000000000E+00 0. -1.
          6    1    1    2  501    0  0.28955127597E+03 -0.17978861533E+03 -0.10390702767E+03  0.39609286539E+03  0.17300000000E+03 0. -1.
         -6    1    1    2    0  502 -0.28955127597E+03  0.17978861533E+03  0.82795893453E+03  0.91192592072E+03  0.17300000000E+03 0.  1.
<mgrwt>
<rscale>  2 0.38222099E+03</rscale>
<asrwt>0</asrwt>
<pdfrwt beam="1">  1       21 0.15631313E+00 0.38222099E+03</pdfrwt>
<pdfrwt beam="2">  1       21 0.44920530E-01 0.38222099E+03</pdfrwt>
<totfact> 0.11113438E+03</totfact>
</mgrwt>
</event>
<event>
 4    3  0.4009700E+000  0.2939819E+03  0.7546771E-02  0.1088288E+00
         21   -1    0    0  503  502  0.00000000000E+00  0.00000000000E+00  0.76494396767E+03  0.76494396767E+03  0.00000000000E+00 0.  1.
         21   -1    0    0  501  503 -0.00000000000E+00 -0.00000000000E+00 -0.11502572958E+03  0.11502572958E+03  0.00000000000E+00 0.  1.
          6    1    1    2  501    0 -0.56458612571E+02 -0.23088688994E+03  0.26631938510E+03  0.39667536571E+03  0.17300000000E+03 0.  1.
         -6    1    1    2    0  502  0.56458612571E+02  0.23088688994E+03  0.38359885300E+03  0.48329433154E+03  0.17300000000E+03 0.  1.
<mgrwt>
<rscale>  2 0.29398185E+03</rscale>
<asrwt>0</asrwt>
<pdfrwt beam="1">  1       21 0.11768368E+00 0.29398185E+03</pdfrwt>
<pdfrwt beam="2">  1       21 0.17696267E-01 0.29398185E+03</pdfrwt>
<totfact> 0.15177629E+04</totfact>
</mgrwt>
</event>
<event>
 4    3  0.4009700E+000  0.2279442E+03  0.7546771E-02  0.1128095E+00
         21   -1    0    0  501  502  0.00000000000E+00  0.00000000000E+00  0.10418806753E+03  0.10418806753E+03  0.00000000000E+00 0.  1.
         21   -1    0    0  502  503 -0.00000000000E+00 -0.00000000000E+00 -0.56843176155E+03  0.56843176155E+03  0.00000000000E+00 0. -1.
          6    1    1    2  501    0  0.14786546844E+03 -0.12858655199E+02 -0.11432945513E+03  0.25500934508E+03  0.17300000000E+03 0.  1.
         -6    1    1    2    0  503 -0.14786546844E+03  0.12858655199E+02 -0.34991423888E+03  0.41761048400E+03  0.17300000000E+03 0. -1.
<mgrwt>
<rscale>  2 0.22794416E+03</rscale>
<asrwt>0</asrwt>
<pdfrwt beam="1">  1       21 0.16028934E-01 0.22794416E+03</pdfrwt>
<pdfrwt beam="2">  1       21 0.87451039E-01 0.22794416E+03</pdfrwt>
<totfact> 0.38315797E+04</totfact>
</mgrwt>
</event>
<event>
 4    3  0.4009700E+000  0.1791907E+03  0.7546771E-02  0.1168589E+00
         21   -1    0    0  503  502  0.00000000000E+00  0.00000000000E+00  0.19804599347E+03  0.19804599347E+03  0.00000000000E+00 0. -1.
         21   -1    0    0  501  503 -0.00000000000E+00 -0.00000000000E+00 -0.31586769718E+03  0.31586769718E+03  0.00000000000E+00 0. -1.
          6    1    1    2  501    0  0.44048389268E+02  0.15492902990E+02 -0.23817651088E+03  0.29805593599E+03  0.17300000000E+03 0. -1.
         -6    1    1    2    0  502 -0.44048389268E+02 -0.15492902990E+02  0.12035480717E+03  0.21585775466E+03  0.17300000000E+03 0. -1.
<mgrwt>
<rscale>  2 0.17919065E+03</rscale>
<asrwt>0</asrwt>
<pdfrwt beam="1">  1       21 0.30468615E-01 0.17919065E+03</pdfrwt>
<pdfrwt beam="2">  1       21 0.48595030E-01 0.17919065E+03</pdfrwt>
<totfact> 0.42081857E+04</totfact>
</mgrwt>
</event>
<event>
 4    3  0.4009700E+000  0.2654756E+03  0.7546771E-02  0.1103897E+00
         21   -1    0    0  503  502  0.00000000000E+00  0.00000000000E+00  0.40509702916E+03  0.40509702916E+03  0.00000000000E+00 0.  1.
         21   -1    0    0  501  503 -0.00000000000E+00 -0.00000000000E+00 -0.19273274194E+03  0.19273274194E+03  0.00000000000E+00 0. -1.
          6    1    1    2  501    0  0.13968783895E+03  0.14503649675E+03  0.12932935807E+02  0.26579040345E+03  0.17300000000E+03 0. -1.
         -6    1    1    2    0  502 -0.13968783895E+03 -0.14503649675E+03  0.19943135142E+03  0.33203936765E+03  0.17300000000E+03 0.  1.
<mgrwt>
<rscale>  2 0.26547557E+03</rscale>
<asrwt>0</asrwt>
<pdfrwt beam="1">  1       21 0.62322620E-01 0.26547557E+03</pdfrwt>
<pdfrwt beam="2">  1       21 0.29651191E-01 0.26547557E+03</pdfrwt>
<totfact> 0.25088722E+04</totfact>
</mgrwt>
</event>
<event>
 4    3  0.4009700E+000  0.2571171E+03  0.7546771E-02  0.1108888E+00
         21   -1    0    0  503  502  0.00000000000E+00  0.00000000000E+00  0.13639231060E+03  0.13639231060E+03  0.00000000000E+00 0. -1.
         21   -1    0    0  501  503 -0.00000000000E+00 -0.00000000000E+00 -0.13108759411E+04  0.13108759411E+04  0.00000000000E+00 0.  1.
          6    1    1    2  501    0 -0.87977437440E+02 -0.16864210527E+03 -0.11617217054E+04  0.11898346566E+04  0.17300000000E+03 0.  1.
         -6    1    1    2    0  502  0.87977437440E+02  0.16864210527E+03 -0.12761925100E+02  0.25743359513E+03  0.17300000000E+03 0. -1.
<mgrwt>
<rscale>  2 0.25711707E+03</rscale>
<asrwt>0</asrwt>
<pdfrwt beam="1">  1       21 0.20983432E-01 0.25711707E+03</pdfrwt>
<pdfrwt beam="2">  1       21 0.20167322E+00 0.25711707E+03</pdfrwt>
<totfact> 0.26105328E+03</totfact>
</mgrwt>
</event>
<event>
 4    3  0.4009700E+000  0.2460983E+03  0.7546771E-02  0.1115796E+00
         21   -1    0    0  503  502  0.00000000000E+00  0.00000000000E+00  0.63786193760E+03  0.63786193760E+03  0.00000000000E+00 0. -1.
         21   -1    0    0  501  503 -0.00000000000E+00 -0.00000000000E+00 -0.11022387075E+03  0.11022387075E+03  0.00000000000E+00 0.  1.
          6    1    1    2  501    0 -0.73486174666E+02  0.15885570398E+03  0.40306171414E+03  0.47225321382E+03  0.17300000000E+03 0.  1.
         -6    1    1    2    0  502  0.73486174666E+02 -0.15885570398E+03  0.12457635271E+03  0.27583259453E+03  0.17300000000E+03 0.  1.
<mgrwt>
<rscale>  2 0.24609826E+03</rscale>
<asrwt>0</asrwt>
<pdfrwt beam="1">  1       21 0.98132604E-01 0.24609826E+03</pdfrwt>
<pdfrwt beam="2">  1       21 0.16957519E-01 0.24609826E+03</pdfrwt>
<totfact> 0.26138249E+04</totfact>
</mgrwt>
</event>
<event>
 4    3  0.4009700E+000  0.2223317E+03  0.7546771E-02  0.1132157E+00
         21   -1    0    0  503  502  0.00000000000E+00  0.00000000000E+00  0.45987309690E+02  0.45987309690E+02  0.00000000000E+00 0. -1.
         21   -1    0    0  501  503 -0.00000000000E+00 -0.00000000000E+00 -0.10847542979E+04  0.10847542979E+04  0.00000000000E+00 0. -1.
          6    1    1    2  501    0 -0.10456267903E+03  0.92569130500E+02 -0.46547544154E+03  0.51584763685E+03  0.17300000000E+03 0. -1.
         -6    1    1    2    0  502  0.10456267903E+03 -0.92569130500E+02 -0.57329154667E+03  0.61489397074E+03  0.17300000000E+03 0. -1.
<mgrwt>
<rscale>  2 0.22233173E+03</rscale>
<asrwt>0</asrwt>
<pdfrwt beam="1">  1       21 0.70749700E-02 0.22233173E+03</pdfrwt>
<pdfrwt beam="2">  1       21 0.16688529E+00 0.22233173E+03</pdfrwt>
<totfact> 0.32729080E+04</totfact>
</mgrwt>
</event>
<event>
 4    3  0.4009700E+000  0.1920362E+03  0.7546771E-02  0.1156637E+00
         21   -1    0    0  503  502  0.00000000000E+00  0.00000000000E+00  0.43808624034E+03  0.43808624034E+03  0.00000000000E+00 0. -1.
         21   -1    0    0  501  503 -0.00000000000E+00 -0.00000000000E+00 -0.16298457246E+03  0.16298457246E+03  0.00000000000E+00 0.  1.
          6    1    1    2  501    0 -0.48349923137E+02  0.67905859389E+02 -0.71426521585E+02  0.20488940625E+03  0.17300000000E+03 0.  1.
         -6    1    1    2    0  502  0.48349923137E+02 -0.67905859389E+02  0.34652818946E+03  0.39618140655E+03  0.17300000000E+03 0. -1.
<mgrwt>
<rscale>  2 0.19203625E+03</rscale>
<asrwt>0</asrwt>
<pdfrwt beam="1">  1       21 0.67397882E-01 0.19203625E+03</pdfrwt>
<pdfrwt beam="2">  1       21 0.25074550E-01 0.19203625E+03</pdfrwt>
<totfact> 0.30340632E+04</totfact>
</mgrwt>
</event>
<event>
 4    3  0.4009700E+000  0.1966592E+03  0.7546771E-02  0.1152589E+00
         21   -1    0    0  501  502  0.00000000000E+00  0.00000000000E+00  0.21832252941E+03  0.21832252941E+03  0.00000000000E+00 0. -1.
         21   -1    0    0  502  503 -0.00000000000E+00 -0.00000000000E+00 -0.18337002806E+03  0.18337002806E+03  0.00000000000E+00 0. -1.
          6    1    1    2  501    0  0.81426679428E+02  0.45995041750E+02 -0.19528180297E+02  0.19762640971E+03  0.17300000000E+03 0. -1.
         -6    1    1    2    0  503 -0.81426679428E+02 -0.45995041750E+02  0.54480681643E+02  0.20406614776E+03  0.17300000000E+03 0. -1.
<mgrwt>
<rscale>  2 0.19665922E+03</rscale>
<asrwt>0</asrwt>
<pdfrwt beam="1">  1       21 0.33588081E-01 0.19665922E+03</pdfrwt>
<pdfrwt beam="2">  1       21 0.28210774E-01 0.19665922E+03</pdfrwt>
<totfact> 0.10236138E+05</totfact>
</mgrwt>
</event>
<event>
 4    3  0.4009700E+000  0.2292099E+03  0.7546771E-02  0.1127197E+00
         21   -1    0    0  503  502  0.00000000000E+00  0.00000000000E+00  0.81510391445E+03  0.81510391445E+03  0.00000000000E+00 0. -1.
         21   -1    0    0  501  503 -0.00000000000E+00 -0.00000000000E+00 -0.84782522838E+02  0.84782522838E+02  0.00000000000E+00 0. -1.
          6    1    1    2  501    0  0.17292324445E+00  0.15036007292E+03  0.14484205400E+03  0.27113908246E+03  0.17300000000E+03 0. -1.
         -6    1    1    2    0  502 -0.17292324445E+00 -0.15036007292E+03  0.58547933762E+03  0.62874735483E+03  0.17300000000E+03 0. -1.
<mgrwt>
<rscale>  2 0.22920991E+03</rscale>
<asrwt>0</asrwt>
<pdfrwt beam="1">  1       21 0.12540060E+00 0.22920991E+03</pdfrwt>
<pdfrwt beam="2">  1       21 0.13043466E-01 0.22920991E+03</pdfrwt>
<totfact> 0.23395368E+04</totfact>
</mgrwt>
</event>
<event>
 4    3  0.4009700E+000  0.2347804E+03  0.7546771E-02  0.1123320E+00
         21   -1    0    0  503  502  0.00000000000E+00  0.00000000000E+00  0.32270280477E+03  0.32270280477E+03  0.00000000000E+00 0. -1.
         21   -1    0    0  501  503 -0.00000000000E+00 -0.00000000000E+00 -0.17092992573E+03  0.17092992573E+03  0.00000000000E+00 0. -1.
          6    1    1    2  501    0 -0.45405175483E+02  0.15208949099E+03  0.82341018499E+02  0.24880089742E+03  0.17300000000E+03 0. -1.
         -6    1    1    2    0  502  0.45405175483E+02 -0.15208949099E+03  0.69431860538E+02  0.24483183308E+03  0.17300000000E+03 0. -1.
<mgrwt>
<rscale>  2 0.23478041E+03</rscale>
<asrwt>0</asrwt>
<pdfrwt beam="1">  1       21 0.49646585E-01 0.23478041E+03</pdfrwt>
<pdfrwt beam="2">  1       21 0.26296912E-01 0.23478041E+03</pdfrwt>
<totfact> 0.52160679E+04</totfact>
</mgrwt>
</event>
<event>
 4    3  0.4009700E+000  0.1989771E+03  0.7546771E-02  0.1150605E+00
         21   -1    0    0  501  502  0.00000000000E+00  0.00000000000E+00  0.31437782925E+04  0.31437782925E+04  0.00000000000E+00 0.  1.
         21   -1    0    0  502  503 -0.00000000000E+00 -0.00000000000E+00 -0.14141914077E+02  0.14141914077E+02  0.00000000000E+00 0.  1.
          6    1    1    2  501    0  0.84133359004E+02  0.50837512891E+02  0.20872495727E+04  0.20967123440E+04  0.17300000000E+03 0.  1.
         -6    1    1    2    0  503 -0.84133359004E+02 -0.50837512891E+02  0.10423868057E+04  0.10612078625E+04  0.17300000000E+03 0.  1.
<mgrwt>
<rscale>  2 0.19897707E+03</rscale>
<asrwt>0</asrwt>
<pdfrwt beam="1">  1       21 0.48365764E+00 0.19897707E+03</pdfrwt>
<pdfrwt beam="2">  1       21 0.21756816E-02 0.19897707E+03</pdfrwt>
<totfact> 0.26172859E+03</totfact>
</mgrwt>
</event>
<event>
 4    3  0.4009700E+000  0.1856448E+03  0.7546771E-02  0.1162449E+00
         21   -1    0    0  501  502  0.00000000000E+00  0.00000000000E+00  0.11359678748E+04  0.11359678748E+04  0.00000000000E+00 0.  1.
         21   -1    0    0  502  503 -0.00000000000E+00 -0.00000000000E+00 -0.35168526538E+02  0.35168526538E+02  0.00000000000E+00 0.  1.
          6    1    1    2  501    0  0.20289928351E+01  0.67311741905E+02  0.76739895488E+03  0.78953476387E+03  0.17300000000E+03 0.  1.
         -6    1    1    2    0  503 -0.20289928351E+01 -0.67311741905E+02  0.33340039338E+03  0.38160163747E+03  0.17300000000E+03 0.  1.
<mgrwt>
<rscale>  2 0.18564479E+03</rscale>
<asrwt>0</asrwt>
<pdfrwt beam="1">  1       21 0.17476426E+00 0.18564479E+03</pdfrwt>
<pdfrwt beam="2">  1       21 0.54105434E-02 0.18564479E+03</pdfrwt>
<totfact> 0.46698545E+04</totfact>
</mgrwt>
</event>
<event>
 4    3  0.4009700E+000  0.1771886E+03  0.7546771E-02  0.1170552E+00
         21   -1    0    0  503  502  0.00000000000E+00  0.00000000000E+00  0.29289815869E+03  0.29289815869E+03  0.00000000000E+00 0.  1.
         21   -1    0    0  501  503 -0.00000000000E+00 -0.00000000000E+00 -0.54692678162E+03  0.54692678162E+03  0.00000000000E+00 0.  1.
          6    1    1    2  501    0 -0.20496854800E+02 -0.32352361112E+02 -0.50353643708E+03  0.53380215416E+03  0.17300000000E+03 0.  1.
         -6    1    1    2    0  502  0.20496854800E+02  0.32352361112E+02  0.24950781414E+03  0.30602278615E+03  0.17300000000E+03 0.  1.
<mgrwt>
<rscale>  2 0.17718859E+03</rscale>
<asrwt>0</asrwt>
<pdfrwt beam="1">  1       21 0.45061255E-01 0.17718859E+03</pdfrwt>
<pdfrwt beam="2">  1       21 0.84142581E-01 0.17718859E+03</pdfrwt>
<totfact> 0.58652971E+03</totfact>
</mgrwt>
</event>
<event>
 4    3  0.4009700E+000  0.2808557E+03  0.7546771E-02  0.1095222E+00
         21   -1    0    0  503  502  0.00000000000E+00  0.00000000000E+00  0.19869670864E+03  0.19869670864E+03  0.00000000000E+00 0. -1.
         21   -1    0    0  501  503 -0.00000000000E+00 -0.00000000000E+00 -0.52867619768E+03  0.52867619768E+03  0.00000000000E+00 0.  1.
          6    1    1    2  501    0  0.67914048429E+02 -0.21056736908E+03 -0.34650283321E+03  0.44603155529E+03  0.17300000000E+03 0. -1.
         -6    1    1    2    0  502 -0.67914048429E+02  0.21056736908E+03  0.16523344171E+02  0.28134135103E+03  0.17300000000E+03 0. -1.
<mgrwt>
<rscale>  2 0.28085572E+03</rscale>
<asrwt>0</asrwt>
<pdfrwt beam="1">  1       21 0.30568725E-01 0.28085572E+03</pdfrwt>
<pdfrwt beam="2">  1       21 0.81334797E-01 0.28085572E+03</pdfrwt>
<totfact> 0.12949710E+04</totfact>
</mgrwt>
</event>
<event>
 4    3  0.4009700E+000  0.1869380E+03  0.7546771E-02  0.1161252E+00
         21   -1    0    0  501  502  0.00000000000E+00  0.00000000000E+00  0.87183772992E+03  0.87183772992E+03  0.00000000000E+00 0.  1.
         21   -1    0    0  502  503 -0.00000000000E+00 -0.00000000000E+00 -0.40752742635E+02  0.40752742635E+02  0.00000000000E+00 0.  1.
          6    1    1    2  501    0  0.59564961766E+02  0.38325177341E+02  0.35704372637E+03  0.40302112405E+03  0.17300000000E+03 0.  1.
         -6    1    1    2    0  503 -0.59564961766E+02 -0.38325177341E+02  0.47404126091E+03  0.50956934850E+03  0.17300000000E+03 0.  1.
<mgrwt>
<rscale>  2 0.18693797E+03</rscale>
<asrwt>0</asrwt>
<pdfrwt beam="1">  1       21 0.13412887E+00 0.18693797E+03</pdfrwt>
<pdfrwt beam="2">  1       21 0.62696534E-02 0.18693797E+03</pdfrwt>
<totfact> 0.73232679E+04</totfact>
</mgrwt>
</event>
<event>
 4    3  0.4009700E+000  0.2630349E+03  0.7546771E-02  0.1105333E+00
         21   -1    0    0  503  502  0.00000000000E+00  0.00000000000E+00  0.13985837939E+04  0.13985837939E+04  0.00000000000E+00 0. -1.
         21   -1    0    0  501  503 -0.00000000000E+00 -0.00000000000E+00 -0.56438330766E+02  0.56438330766E+02  0.00000000000E+00 0.  1.
          6    1    1    2  501    0 -0.17985507672E+03 -0.83129398138E+02  0.92671352266E+03  0.96331993571E+03  0.17300000000E+03 0. -1.
         -6    1    1    2    0  502  0.17985507672E+03  0.83129398138E+02  0.41543194048E+03  0.49170218896E+03  0.17300000000E+03 0.  1.
<mgrwt>
<rscale>  2 0.26303487E+03</rscale>
<asrwt>0</asrwt>
<pdfrwt beam="1">  1       21 0.21516671E+00 0.26303487E+03</pdfrwt>
<pdfrwt beam="2">  1       21 0.86828212E-02 0.26303487E+03</pdfrwt>
<totfact> 0.10627160E+04</totfact>
</mgrwt>
</event>
<event>
 4    3  0.4009700E+000  0.2273449E+03  0.7546771E-02  0.1128523E+00
         21   -1    0    0  501  502  0.00000000000E+00  0.00000000000E+00  0.15255646657E+03  0.15255646657E+03  0.00000000000E+00 0. -1.
         21   -1    0    0  502  503 -0.00000000000E+00 -0.00000000000E+00 -0.68990641616E+03  0.68990641616E+03  0.00000000000E+00 0. -1.
          6    1    1    2  501    0 -0.14309289796E+03 -0.35792954058E+02  0.31826608891E+02  0.22956185667E+03  0.17300000000E+03 0. -1.
         -6    1    1    2    0  503  0.14309289796E+03  0.35792954058E+02 -0.56917655848E+03  0.61290102605E+03  0.17300000000E+03 0. -1.
<mgrwt>
<rscale>  2 0.22734492E+03</rscale>
<asrwt>0</asrwt>
<pdfrwt beam="1">  1       21 0.23470226E-01 0.22734492E+03</pdfrwt>
<pdfrwt beam="2">  1       21 0.10613945E+00 0.22734492E+03</pdfrwt>
<totfact> 0.11885845E+04</totfact>
</mgrwt>
</event>
<event>
 4    3  0.4009700E+000  0.3158520E+03  0.7546771E-02  0.1077574E+00
         21   -1    0    0  501  502  0.00000000000E+00  0.00000000000E+00  0.30585154570E+03  0.30585154570E+03  0.00000000000E+00 0.  1.
         21   -1    0    0  502  503 -0.00000000000E+00 -0.00000000000E+00 -0.36428051514E+03  0.36428051514E+03  0.00000000000E+00 0. -1.
          6    1    1    2  501    0  0.92680133781E+02  0.24747494892E+03  0.79148653385E+02  0.32561782334E+03  0.17300000000E+03 0.  1.
         -6    1    1    2    0  503 -0.92680133781E+02 -0.24747494892E+03 -0.13757762283E+03  0.34451423751E+03  0.17300000000E+03 0. -1.
<mgrwt>
<rscale>  2 0.31585196E+03</rscale>
<asrwt>0</asrwt>
<pdfrwt beam="1">  1       21 0.47054084E-01 0.31585196E+03</pdfrwt>
<pdfrwt beam="2">  1       21 0.56043156E-01 0.31585196E+03</pdfrwt>
<totfact> 0.12142094E+04</totfact>
</mgrwt>
</event>
<event>
 4    3  0.4009700E+000  0.1880652E+03  0.7546771E-02  0.1160218E+00
         21   -1    0    0  503  502  0.00000000000E+00  0.00000000000E+00  0.59468195432E+03  0.59468195432E+03  0.00000000000E+00 0.  1.
         21   -1    0    0  501  503 -0.00000000000E+00 -0.00000000000E+00 -0.59486875840E+02  0.59486875840E+02  0.00000000000E+00 0.  1.
          6    1    1    2  501    0 -0.53978906411E+02  0.50257489903E+02  0.26292024485E+03  0.32325778069E+03  0.17300000000E+03 0.  1.
         -6    1    1    2    0  502  0.53978906411E+02 -0.50257489903E+02  0.27227483363E+03  0.33091104947E+03  0.17300000000E+03 0.  1.
<mgrwt>
<rscale>  2 0.18806525E+03</rscale>
<asrwt>0</asrwt>
<pdfrwt beam="1">  1       21 0.91489527E-01 0.18806525E+03</pdfrwt>
<pdfrwt beam="2">  1       21 0.91518275E-02 0.18806525E+03</pdfrwt>
<totfact> 0.96112428E+04</totfact>
</mgrwt>
</event>
<event>
 4    3  0.4009700E+000  0.1815393E+03  0.7546771E-02  0.1166322E+00
         21   -1    0    0  501  502  0.00000000000E+00  0.00000000000E+00  0.62802181831E+03  0.62802181831E+03  0.00000000000E+00 0. -1.
         21   -1    0    0  502  503 -0.00000000000E+00 -0.00000000000E+00 -0.10456782200E+03  0.10456782200E+03  0.00000000000E+00 0.  1.
          6    1    1    2  501    0 -0.50678371050E+02  0.21429253693E+02  0.52025858842E+03  0.55102224005E+03  0.17300000000E+03 0. -1.
         -6    1    1    2    0  503  0.50678371050E+02 -0.21429253693E+02  0.31954078910E+01  0.18156740026E+03  0.17300000000E+03 0.  1.
<mgrwt>
<rscale>  2 0.18153928E+03</rscale>
<asrwt>0</asrwt>
<pdfrwt beam="1">  1       21 0.96618739E-01 0.18153928E+03</pdfrwt>
<pdfrwt beam="2">  1       21 0.16087358E-01 0.18153928E+03</pdfrwt>
<totfact> 0.30928156E+04</totfact>
</mgrwt>
</event>
<event>
 4    3  0.4009700E+000  0.2316876E+03  0.7546771E-02  0.1125458E+00
         21   -1    0    0  501  502  0.00000000000E+00  0.00000000000E+00  0.10524744443E+04  0.10524744443E+04  0.00000000000E+00 0.  1.
         21   -1    0    0  502  503 -0.00000000000E+00 -0.00000000000E+00 -0.10201479827E+03  0.10201479827E+03  0.00000000000E+00 0.  1.
          6    1    1    2  501    0 -0.13488385693E+03  0.74541875016E+02  0.88342180123E+03  0.91329799347E+03  0.17300000000E+03 0.  1.
         -6    1    1    2    0  503  0.13488385693E+03 -0.74541875016E+02  0.67037844760E+02  0.24119124905E+03  0.17300000000E+03 0.  1.
<mgrwt>
<rscale>  2 0.23168760E+03</rscale>
<asrwt>0</asrwt>
<pdfrwt beam="1">  1       21 0.16191914E+00 0.23168760E+03</pdfrwt>
<pdfrwt beam="2">  1       21 0.15694585E-01 0.23168760E+03</pdfrwt>
<totfact> 0.85496284E+03</totfact>
</mgrwt>
</event>
<event>
 4    3  0.4009700E+000  0.1859610E+03  0.7546771E-02  0.1162156E+00
         21   -1    0    0  503  502  0.00000000000E+00  0.00000000000E+00  0.16813085263E+04  0.16813085263E+04  0.00000000000E+00 0. -1.
         21   -1    0    0  501  503 -0.00000000000E+00 -0.00000000000E+00 -0.81667449175E+02  0.81667449175E+02  0.00000000000E+00 0. -1.
          6    1    1    2  501    0  0.15074469945E+02 -0.66522456616E+02  0.37373174219E+02  0.18967928466E+03  0.17300000000E+03 0. -1.
         -6    1    1    2    0  502 -0.15074469945E+02  0.66522456616E+02  0.15622679029E+04  0.15732966908E+04  0.17300000000E+03 0. -1.
<mgrwt>
<rscale>  2 0.18596096E+03</rscale>
<asrwt>0</asrwt>
<pdfrwt beam="1">  1       21 0.25866282E+00 0.18596096E+03</pdfrwt>
<pdfrwt beam="2">  1       21 0.12564224E-01 0.18596096E+03</pdfrwt>
<totfact> 0.32216088E+03</totfact>
</mgrwt>
</event>
<event>
 4    3  0.4009700E+000  0.1932587E+03  0.7546771E-02  0.1155555E+00
         21   -1    0    0  501  502  0.00000000000E+00  0.00000000000E+00  0.46287206055E+02  0.46287206055E+02  0.00000000000E+00 0. -1.
         21   -1    0    0  502  503 -0.00000000000E+00 -0.00000000000E+00 -0.81279623747E+03  0.81279623747E+03  0.00000000000E+00 0.  1.
          6    1    1    2  501    0  0.59469013496E+02  0.62316480093E+02 -0.34665356930E+03  0.39688487546E+03  0.17300000000E+03 0.  1.
         -6    1    1    2    0  503 -0.59469013496E+02 -0.62316480093E+02 -0.41985546211E+03  0.46219856807E+03  0.17300000000E+03 0.  1.
<mgrwt>
<rscale>  2 0.19325865E+03</rscale>
<asrwt>0</asrwt>
<pdfrwt beam="1">  1       21 0.71211092E-02 0.19325865E+03</pdfrwt>
<pdfrwt beam="2">  1       21 0.12504557E+00 0.19325865E+03</pdfrwt>
<totfact> 0.69969355E+04</totfact>
</mgrwt>
</event>
<event>
 4    3  0.4009700E+000  0.1876920E+03  0.7546771E-02  0.1160560E+00
         21   -1    0    0  503  502  0.00000000000E+00  0.00000000000E+00  0.15116765703E+03  0.15116765703E+03  0.00000000000E+00 0. -1.
         21   -1    0    0  501  503 -0.00000000000E+00 -0.00000000000E+00 -0.23414031271E+03  0.23414031271E+03  0.00000000000E+00 0. -1.
          6    1    1    2  501    0 -0.27766722263E+02 -0.67292579149E+02 -0.54686337265E+02  0.19549648988E+03  0.17300000000E+03 0. -1.
         -6    1    1    2    0  502  0.27766722263E+02  0.67292579149E+02 -0.28286318413E+02  0.18981147985E+03  0.17300000000E+03 0. -1.
<mgrwt>
<rscale>  2 0.18769199E+03</rscale>
<asrwt>0</asrwt>
<pdfrwt beam="1">  1       21 0.23256563E-01 0.18769199E+03</pdfrwt>
<pdfrwt beam="2">  1       21 0.36021587E-01 0.18769199E+03</pdfrwt>
<totfact> 0.12938033E+05</totfact>
</mgrwt>
</event>
<event>
 4    3  0.4009700E+000  0.2257926E+03  0.7546771E-02  0.1129637E+00
         21   -1    0    0  501  502  0.00000000000E+00  0.00000000000E+00  0.37989939378E+03  0.37989939378E+03  0.00000000000E+00 0. -1.
         21   -1    0    0  502  503 -0.00000000000E+00 -0.00000000000E+00 -0.34080393936E+03  0.34080393936E+03  0.00000000000E+00 0. -1.
          6    1    1    2  501    0  0.21178896278E+01  0.14508208218E+03  0.30011957443E+03  0.37557163762E+03  0.17300000000E+03 0. -1.
         -6    1    1    2    0  503 -0.21178896278E+01 -0.14508208218E+03 -0.26102412002E+03  0.34513169553E+03  0.17300000000E+03 0. -1.
<mgrwt>
<rscale>  2 0.22579260E+03</rscale>
<asrwt>0</asrwt>
<pdfrwt beam="1">  1       21 0.58446061E-01 0.22579260E+03</pdfrwt>
<pdfrwt beam="2">  1       21 0.52431375E-01 0.22579260E+03</pdfrwt>
<totfact> 0.92498273E+03</totfact>
</mgrwt>
</event>
<event>
 4    3  0.4009700E+000  0.2327447E+03  0.7546771E-02  0.1124723E+00
         21   -1    0    0  501  502  0.00000000000E+00  0.00000000000E+00  0.18122400489E+03  0.18122400489E+03  0.00000000000E+00 0. -1.
         21   -1    0    0  502  503 -0.00000000000E+00 -0.00000000000E+00 -0.74503704014E+03  0.74503704014E+03  0.00000000000E+00 0.  1.
          6    1    1    2  501    0 -0.15530868874E+03  0.10968182723E+02  0.76472529472E+02  0.24498599469E+03  0.17300000000E+03 0. -1.
         -6    1    1    2    0  503  0.15530868874E+03 -0.10968182723E+02 -0.64028556471E+03  0.68127505034E+03  0.17300000000E+03 0.  1.
<mgrwt>
<rscale>  2 0.23274469E+03</rscale>
<asrwt>0</asrwt>
<pdfrwt beam="1">  1       21 0.27880616E-01 0.23274469E+03</pdfrwt>
<pdfrwt beam="2">  1       21 0.11462108E+00 0.23274469E+03</pdfrwt>
<totfact> 0.70550569E+03</totfact>
</mgrwt>
</event>
<event>
 4    3  0.4009700E+000  0.2185880E+03  0.7546771E-02  0.1134940E+00
         21   -1    0    0  501  502  0.00000000000E+00  0.00000000000E+00  0.30241932991E+03  0.30241932991E+03  0.00000000000E+00 0. -1.
         21   -1    0    0  502  503 -0.00000000000E+00 -0.00000000000E+00 -0.18735161338E+03  0.18735161338E+03  0.00000000000E+00 0. -1.
          6    1    1    2  501    0 -0.97298078889E+02 -0.91568585962E+02  0.15447045450E+03  0.26765993986E+03  0.17300000000E+03 0. -1.
         -6    1    1    2    0  503  0.97298078889E+02  0.91568585962E+02 -0.39402737969E+02  0.22211100344E+03  0.17300000000E+03 0. -1.
<mgrwt>
<rscale>  2 0.21858802E+03</rscale>
<asrwt>0</asrwt>
<pdfrwt beam="1">  1       21 0.46526051E-01 0.21858802E+03</pdfrwt>
<pdfrwt beam="2">  1       21 0.28823325E-01 0.21858802E+03</pdfrwt>
<totfact> 0.50337295E+04</totfact>
</mgrwt>
</event>
<event>
 4    3  0.4009700E+000  0.2138385E+03  0.7546771E-02  0.1138562E+00
         21   -1    0    0  503  502  0.00000000000E+00  0.00000000000E+00  0.13877791559E+04  0.13877791559E+04  0.00000000000E+00 0. -1.
         21   -1    0    0  501  503 -0.00000000000E+00 -0.00000000000E+00 -0.32949781856E+02  0.32949781856E+02  0.00000000000E+00 0.  1.
          6    1    1    2  501    0 -0.12540638631E+03 -0.84345880080E+01  0.67628108365E+03  0.70928344694E+03  0.17300000000E+03 0. -1.
         -6    1    1    2    0  502  0.12540638631E+03  0.84345880080E+01  0.67854829036E+03  0.71144549078E+03  0.17300000000E+03 0.  1.
<mgrwt>
<rscale>  2 0.21383850E+03</rscale>
<asrwt>0</asrwt>
<pdfrwt beam="1">  1       21 0.21350444E+00 0.21383850E+03</pdfrwt>
<pdfrwt beam="2">  1       21 0.50691983E-02 0.21383850E+03</pdfrwt>
<totfact> 0.28551328E+04</totfact>
</mgrwt>
</event>
<event>
 4    3  0.4009700E+000  0.1897343E+03  0.7546771E-02  0.1158701E+00
         21   -1    0    0  503  502  0.00000000000E+00  0.00000000000E+00  0.11079016534E+03  0.11079016534E+03  0.00000000000E+00 0. -1.
         21   -1    0    0  501  503 -0.00000000000E+00 -0.00000000000E+00 -0.44629610810E+03  0.44629610810E+03  0.00000000000E+00 0. -1.
          6    1    1    2  501    0 -0.77637586622E+02 -0.65202111943E+01 -0.31300715927E+03  0.36602266291E+03  0.17300000000E+03 0. -1.
         -6    1    1    2    0  502  0.77637586622E+02  0.65202111943E+01 -0.22498783485E+02  0.19106361053E+03  0.17300000000E+03 0. -1.
<mgrwt>
<rscale>  2 0.18973431E+03</rscale>
<asrwt>0</asrwt>
<pdfrwt beam="1">  1       21 0.17044641E-01 0.18973431E+03</pdfrwt>
<pdfrwt beam="2">  1       21 0.68660940E-01 0.18973431E+03</pdfrwt>
<totfact> 0.60105781E+04</totfact>
</mgrwt>
</event>
<event>
 4    3  0.4009700E+000  0.1770228E+03  0.7546771E-02  0.1170716E+00
         21   -1    0    0  503  502  0.00000000000E+00  0.00000000000E+00  0.92000141335E+02  0.92000141335E+02  0.00000000000E+00 0.  1.
         21   -1    0    0  501  503 -0.00000000000E+00 -0.00000000000E+00 -0.39830530240E+03  0.39830530240E+03  0.00000000000E+00 0.  1.
          6    1    1    2  501    0  0.29182268669E+02  0.23589460193E+02 -0.24644838406E+03  0.30343677009E+03  0.17300000000E+03 0.  1.
         -6    1    1    2    0  502 -0.29182268669E+02 -0.23589460193E+02 -0.59856777005E+02  0.18686867365E+03  0.17300000000E+03 0.  1.
<mgrwt>
<rscale>  2 0.17702279E+03</rscale>
<asrwt>0</asrwt>
<pdfrwt beam="1">  1       21 0.14153868E-01 0.17702279E+03</pdfrwt>
<pdfrwt beam="2">  1       21 0.61277739E-01 0.17702279E+03</pdfrwt>
<totfact> 0.10858475E+05</totfact>
</mgrwt>
</event>
<event>
 4    3  0.4009700E+000  0.2181038E+03  0.7546771E-02  0.1135305E+00
         21   -1    0    0  503  502  0.00000000000E+00  0.00000000000E+00  0.28879389813E+04  0.28879389813E+04  0.00000000000E+00 0. -1.
         21   -1    0    0  501  503 -0.00000000000E+00 -0.00000000000E+00 -0.19464786886E+02  0.19464786886E+02  0.00000000000E+00 0. -1.
          6    1    1    2  501    0  0.13280431999E+03  0.18093478545E+01  0.86419061040E+03  0.89128820942E+03  0.17300000000E+03 0. -1.
         -6    1    1    2    0  502 -0.13280431999E+03 -0.18093478545E+01  0.20042835840E+04  0.20161155588E+04  0.17300000000E+03 0. -1.
<mgrwt>
<rscale>  2 0.21810379E+03</rscale>
<asrwt>0</asrwt>
<pdfrwt beam="1">  1       21 0.44429796E+00 0.21810379E+03</pdfrwt>
<pdfrwt beam="2">  1       21 0.29945849E-02 0.21810379E+03</pdfrwt>
<totfact> 0.27798215E+03</totfact>
</mgrwt>
</event>
<event>
 4    3  0.4009700E+000  0.2494727E+03  0.7546771E-02  0.1113638E+00
         21   -1    0    0  503  502  0.00000000000E+00  0.00000000000E+00  0.41050136293E+03  0.41050136293E+03  0.00000000000E+00 0.  1.
         21   -1    0    0  501  503 -0.00000000000E+00 -0.00000000000E+00 -0.20970530487E+03  0.20970530487E+03  0.00000000000E+00 0. -1.
          6    1    1    2  501    0  0.14762641293E+03 -0.10253820944E+03  0.26361578910E+03  0.36294617570E+03  0.17300000000E+03 0.  1.
         -6    1    1    2    0  502 -0.14762641293E+03  0.10253820944E+03 -0.62819731042E+02  0.25726049211E+03  0.17300000000E+03 0. -1.
<mgrwt>
<rscale>  2 0.24947273E+03</rscale>
<asrwt>0</asrwt>
<pdfrwt beam="1">  1       21 0.63154055E-01 0.24947273E+03</pdfrwt>
<pdfrwt beam="2">  1       21 0.32262355E-01 0.24947273E+03</pdfrwt>
<totfact> 0.20792956E+04</totfact>
</mgrwt>
</event>
<event>
 4    3  0.4009700E+000  0.1855625E+03  0.7546771E-02  0.1162526E+00
         21   -1    0    0  501  502  0.00000000000E+00  0.00000000000E+00  0.47868630930E+02  0.47868630930E+02  0.00000000000E+00 0.  1.
         21   -1    0    0  502  503 -0.00000000000E+00 -0.00000000000E+00 -0.75171227858E+03  0.75171227858E+03  0.00000000000E+00 0.  1.
          6    1    1    2  501    0 -0.58875369914E+02 -0.32219989837E+02 -0.26894686552E+03  0.32675044514E+03  0.17300000000E+03 0.  1.
         -6    1    1    2    0  503  0.58875369914E+02  0.32219989837E+02 -0.43489678213E+03  0.47283046437E+03  0.17300000000E+03 0.  1.
<mgrwt>
<rscale>  2 0.18556249E+03</rscale>
<asrwt>0</asrwt>
<pdfrwt beam="1">  1       21 0.73644053E-02 0.18556249E+03</pdfrwt>
<pdfrwt beam="2">  1       21 0.11564803E+00 0.18556249E+03</pdfrwt>
<totfact> 0.80380395E+04</totfact>
</mgrwt>
</event>
<event>
 4    3  0.4009700E+000  0.2085309E+03  0.7546771E-02  0.1142735E+00
         21   -1    0    0  501  502  0.00000000000E+00  0.00000000000E+00  0.87994387895E+03  0.87994387895E+03  0.00000000000E+00 0. -1.
         21   -1    0    0  502  503 -0.00000000000E+00 -0.00000000000E+00 -0.91230831380E+02  0.91230831380E+02  0.00000000000E+00 0. -1.
          6    1    1    2  501    0 -0.11460468119E+03 -0.20540127349E+02  0.72309532602E+03  0.75256360548E+03  0.17300000000E+03 0. -1.
         -6    1    1    2    0  503  0.11460468119E+03  0.20540127349E+02  0.65617721554E+02  0.21861110485E+03  0.17300000000E+03 0. -1.
<mgrwt>
<rscale>  2 0.20853088E+03</rscale>
<asrwt>0</asrwt>
<pdfrwt beam="1">  1       21 0.13537598E+00 0.20853088E+03</pdfrwt>
<pdfrwt beam="2">  1       21 0.14035513E-01 0.20853088E+03</pdfrwt>
<totfact> 0.17082577E+04</totfact>
</mgrwt>
</event>
<event>
 4    3  0.4009700E+000  0.1753077E+03  0.7546771E-02  0.1172423E+00
         21   -1    0    0  503  502  0.00000000000E+00  0.00000000000E+00  0.50617492058E+02  0.50617492058E+02  0.00000000000E+00 0.  1.
         21   -1    0    0  501  503 -0.00000000000E+00 -0.00000000000E+00 -0.75383434778E+03  0.75383434778E+03  0.00000000000E+00 0.  1.
          6    1    1    2  501    0  0.93495147617E+01  0.26764884654E+02 -0.52903284504E+03  0.55732263870E+03  0.17300000000E+03 0.  1.
         -6    1    1    2    0  502 -0.93495147617E+01 -0.26764884654E+02 -0.17418401068E+03  0.24712920113E+03  0.17300000000E+03 0.  1.
<mgrwt>
<rscale>  2 0.17530765E+03</rscale>
<asrwt>0</asrwt>
<pdfrwt beam="1">  1       21 0.77873068E-02 0.17530765E+03</pdfrwt>
<pdfrwt beam="2">  1       21 0.11597451E+00 0.17530765E+03</pdfrwt>
<totfact> 0.72819962E+04</totfact>
</mgrwt>
</event>
<event>
 4    3  0.4009700E+000  0.1998466E+03  0.7546771E-02  0.1149869E+00
         21   -1    0    0  503  502  0.00000000000E+00  0.00000000000E+00  0.32067833217E+03  0.32067833217E+03  0.00000000000E+00 0.  1.
         21   -1    0    0  501  503 -0.00000000000E+00 -0.00000000000E+00 -0.13908846718E+03  0.13908846718E+03  0.00000000000E+00 0.  1.
          6    1    1    2  501    0 -0.74370441797E+02 -0.66923002965E+02  0.16513224006E+03  0.25924372248E+03  0.17300000000E+03 0.  1.
         -6    1    1    2    0  502  0.74370441797E+02  0.66923002965E+02  0.16457624930E+02  0.20052307687E+03  0.17300000000E+03 0.  1.
<mgrwt>
<rscale>  2 0.19984657E+03</rscale>
<asrwt>0</asrwt>
<pdfrwt beam="1">  1       21 0.49335128E-01 0.19984657E+03</pdfrwt>
<pdfrwt beam="2">  1       21 0.21398226E-01 0.19984657E+03</pdfrwt>
<totfact> 0.79438797E+04</totfact>
</mgrwt>
</event>
<event>
 4    3  0.4009700E+000  0.2210845E+03  0.7546771E-02  0.1133077E+00
         21   -1    0    0  503  502  0.00000000000E+00  0.00000000000E+00  0.16920507786E+03  0.16920507786E+03  0.00000000000E+00 0. -1.
         21   -1    0    0  501  503 -0.00000000000E+00 -0.00000000000E+00 -0.33584129508E+03  0.33584129508E+03  0.00000000000E+00 0.  1.
          6    1    1    2  501    0  0.76353237678E+02 -0.11454049665E+03 -0.17775648859E+03  0.28368241312E+03  0.17300000000E+03 0.  1.
         -6    1    1    2    0  502 -0.76353237678E+02  0.11454049665E+03  0.11120271366E+02  0.22136395983E+03  0.17300000000E+03 0. -1.
<mgrwt>
<rscale>  2 0.22108447E+03</rscale>
<asrwt>0</asrwt>
<pdfrwt beam="1">  1       21 0.26031551E-01 0.22108447E+03</pdfrwt>
<pdfrwt beam="2">  1       21 0.51667891E-01 0.22108447E+03</pdfrwt>
<totfact> 0.49208274E+04</totfact>
</mgrwt>
</event>
<event>
 4    3  0.4009700E+000  0.1950554E+03  0.7546771E-02  0.1153979E+00
         21   -1    0    0  501  502  0.00000000000E+00  0.00000000000E+00  0.49905412077E+03  0.49905412077E+03  0.00000000000E+00 0. -1.
         21   -1    0    0  502  503 -0.00000000000E+00 -0.00000000000E+00 -0.18519101313E+03  0.18519101313E+03  0.00000000000E+00 0.  1.
          6    1    1    2  501    0  0.25159771565E+02  0.86513472878E+02  0.41934891302E+03  0.46249335773E+03  0.17300000000E+03 0. -1.
         -6    1    1    2    0  503 -0.25159771565E+02 -0.86513472878E+02 -0.10548580538E+03  0.22175177616E+03  0.17300000000E+03 0.  1.
<mgrwt>
<rscale>  2 0.19505536E+03</rscale>
<asrwt>0</asrwt>
<pdfrwt beam="1">  1       21 0.76777557E-01 0.19505536E+03</pdfrwt>
<pdfrwt beam="2">  1       21 0.28490925E-01 0.19505536E+03</pdfrwt>
<totfact> 0.17747593E+04</totfact>
</mgrwt>
</event>
<event>
 4    3  0.4009700E+000  0.1748908E+03  0.7546771E-02  0.1172841E+00
         21   -1    0    0  501  502  0.00000000000E+00  0.00000000000E+00  0.71187530528E+02  0.71187530528E+02  0.00000000000E+00 0.  1.
         21   -1    0    0  502  503 -0.00000000000E+00 -0.00000000000E+00 -0.49313549875E+03  0.49313549875E+03  0.00000000000E+00 0.  1.
          6    1    1    2  501    0 -0.23415716367E+02  0.10464305261E+02 -0.10974607737E+03  0.20647275596E+03  0.17300000000E+03 0. -1.
         -6    1    1    2    0  503  0.23415716367E+02 -0.10464305261E+02 -0.31220189086E+03  0.35785027332E+03  0.17300000000E+03 0. -1.
<mgrwt>
<rscale>  2 0.17489082E+03</rscale>
<asrwt>0</asrwt>
<pdfrwt beam="1">  1       21 0.10951928E-01 0.17489082E+03</pdfrwt>
<pdfrwt beam="2">  1       21 0.75866999E-01 0.17489082E+03</pdfrwt>
<totfact> 0.10776490E+05</totfact>
</mgrwt>
</event>
<event>
 4    3  0.4009700E+000  0.1776090E+03  0.7546771E-02  0.1170137E+00
         21   -1    0    0  503  502  0.00000000000E+00  0.00000000000E+00  0.20011877246E+04  0.20011877246E+04  0.00000000000E+00 0. -1.
         21   -1    0    0  501  503 -0.00000000000E+00 -0.00000000000E+00 -0.14868942305E+03  0.14868942305E+03  0.00000000000E+00 0.  1.
          6    1    1    2  501    0  0.40787425101E+01  0.39991686124E+02 -0.90114361720E+02  0.19916216831E+03  0.17300000000E+03 0.  1.
         -6    1    1    2    0  502 -0.40787425101E+01 -0.39991686124E+02  0.19426126633E+04  0.19507149794E+04  0.17300000000E+03 0. -1.
<mgrwt>
<rscale>  2 0.17760904E+03</rscale>
<asrwt>0</asrwt>
<pdfrwt beam="1">  1       21 0.30787502E+00 0.17760904E+03</pdfrwt>
<pdfrwt beam="2">  1       21 0.22875297E-01 0.17760904E+03</pdfrwt>
<totfact> 0.56408103E+02</totfact>
</mgrwt>
</event>
<event>
 4    3  0.4009700E+000  0.2231928E+03  0.7546771E-02  0.1131525E+00
         21   -1    0    0  503  502  0.00000000000E+00  0.00000000000E+00  0.57489299473E+03  0.57489299473E+03  0.00000000000E+00 0.  1.
         21   -1    0    0  501  503 -0.00000000000E+00 -0.00000000000E+00 -0.99221979188E+02  0.99221979188E+02  0.00000000000E+00 0.  1.
          6    1    1    2  501    0  0.22808629862E+02  0.13916102219E+03  0.11786196973E+03  0.25240140174E+03  0.17300000000E+03 0.  1.
         -6    1    1    2    0  502 -0.22808629862E+02 -0.13916102219E+03  0.35780904580E+03  0.42171357217E+03  0.17300000000E+03 0.  1.
<mgrwt>
<rscale>  2 0.22319279E+03</rscale>
<asrwt>0</asrwt>
<pdfrwt beam="1">  1       21 0.88445074E-01 0.22319279E+03</pdfrwt>
<pdfrwt beam="2">  1       21 0.15264920E-01 0.22319279E+03</pdfrwt>
<totfact> 0.40916852E+04</totfact>
</mgrwt>
</event>
<event>
 4    3  0.4009700E+000  0.2038415E+03  0.7546771E-02  0.1146538E+00
         21   -1    0    0  503  502  0.00000000000E+00  0.00000000000E+00  0.32991943598E+03  0.32991943598E+03  0.00000000000E+00 0. -1.
         21   -1    0    0  501  503 -0.00000000000E+00 -0.00000000000E+00 -0.13498134866E+03  0.13498134866E+03  0.00000000000E+00 0. -1.
          6    1    1    2  501    0  0.92503603785E+02 -0.55366283189E+02  0.15761635365E+03  0.25767083064E+03  0.17300000000E+03 0. -1.
         -6    1    1    2    0  502 -0.92503603785E+02  0.55366283189E+02  0.37321733678E+02  0.20722995399E+03  0.17300000000E+03 0. -1.
<mgrwt>
<rscale>  2 0.20384146E+03</rscale>
<asrwt>0</asrwt>
<pdfrwt beam="1">  1       21 0.50756836E-01 0.20384146E+03</pdfrwt>
<pdfrwt beam="2">  1       21 0.20766361E-01 0.20384146E+03</pdfrwt>
<totfact> 0.79064768E+04</totfact>
</mgrwt>
</event>
<event>
 4    3  0.4009700E+000  0.1976865E+03  0.7546771E-02  0.1151706E+00
         21   -1    0    0  501  502  0.00000000000E+00  0.00000000000E+00  0.47832206413E+03  0.47832206413E+03  0.00000000000E+00 0. -1.
         21   -1    0    0  502  503 -0.00000000000E+00 -0.00000000000E+00 -0.93614971461E+02  0.93614971461E+02  0.00000000000E+00 0.  1.
          6    1    1    2  501    0 -0.33252241139E+02 -0.89695296832E+02  0.29436577759E+03  0.35458591177E+03  0.17300000000E+03 0. -1.
         -6    1    1    2    0  503  0.33252241139E+02  0.89695296832E+02  0.90341315087E+02  0.21735112382E+03  0.17300000000E+03 0. -1.
<mgrwt>
<rscale>  2 0.19768651E+03</rscale>
<asrwt>0</asrwt>
<pdfrwt beam="1">  1       21 0.73588008E-01 0.19768651E+03</pdfrwt>
<pdfrwt beam="2">  1       21 0.14402304E-01 0.19768651E+03</pdfrwt>
<totfact> 0.69900877E+04</totfact>
</mgrwt>
</event>
<event>
 4    3  0.4009700E+000  0.1754272E+03  0.7546771E-02  0.1172303E+00
         21   -1    0    0  501  502  0.00000000000E+00  0.00000000000E+00  0.41375850127E+03  0.41375850127E+03  0.00000000000E+00 0.  1.
         21   -1    0    0  502  503 -0.00000000000E+00 -0.00000000000E+00 -0.86003365992E+02  0.86003365992E+02  0.00000000000E+00 0.  1.
          6    1    1    2  501    0 -0.19183723711E+01 -0.29017803162E+02  0.72008260713E+02  0.18963096441E+03  0.17300000000E+03 0.  1.
         -6    1    1    2    0  503  0.19183723711E+01  0.29017803162E+02  0.25574687457E+03  0.31013090285E+03  0.17300000000E+03 0.  1.
<mgrwt>
<rscale>  2 0.17542723E+03</rscale>
<asrwt>0</asrwt>
<pdfrwt beam="1">  1       21 0.63655153E-01 0.17542723E+03</pdfrwt>
<pdfrwt beam="2">  1       21 0.13231287E-01 0.17542723E+03</pdfrwt>
<totfact> 0.11302946E+05</totfact>
</mgrwt>
</event>
<event>
 4    3  0.4009700E+000  0.2408446E+03  0.7546771E-02  0.1119231E+00
         21   -1    0    0  503  502  0.00000000000E+00  0.00000000000E+00  0.11378825114E+03  0.11378825114E+03  0.00000000000E+00 0. -1.
         21   -1    0    0  501  503 -0.00000000000E+00 -0.00000000000E+00 -0.65351780962E+03  0.65351780962E+03  0.00000000000E+00 0. -1.
          6    1    1    2  501    0 -0.10482322074E+03 -0.13072565759E+03 -0.44979618550E+03  0.51021829999E+03  0.17300000000E+03 0. -1.
         -6    1    1    2    0  502  0.10482322074E+03  0.13072565759E+03 -0.89933372989E+02  0.25708776077E+03  0.17300000000E+03 0. -1.
<mgrwt>
<rscale>  2 0.24084457E+03</rscale>
<asrwt>0</asrwt>
<pdfrwt beam="1">  1       21 0.17505885E-01 0.24084457E+03</pdfrwt>
<pdfrwt beam="2">  1       21 0.10054120E+00 0.24084457E+03</pdfrwt>
<totfact> 0.23318433E+04</totfact>
</mgrwt>
</event>
<event>
 4    3  0.4009700E+000  0.1817153E+03  0.7546771E-02  0.1166153E+00
         21   -1    0    0  501  502  0.00000000000E+00  0.00000000000E+00  0.46950045072E+03  0.46950045072E+03  0.00000000000E+00 0.  1.
         21   -1    0    0  502  503 -0.00000000000E+00 -0.00000000000E+00 -0.74920453604E+02  0.74920453604E+02  0.00000000000E+00 0.  1.
          6    1    1    2  501    0  0.54251676574E+02 -0.12174217755E+02  0.26466256564E+03  0.32104007482E+03  0.17300000000E+03 0.  1.
         -6    1    1    2    0  503 -0.54251676574E+02  0.12174217755E+02  0.12991743148E+03  0.22338082950E+03  0.17300000000E+03 0.  1.
<mgrwt>
<rscale>  2 0.18171532E+03</rscale>
<asrwt>0</asrwt>
<pdfrwt beam="1">  1       21 0.72230837E-01 0.18171532E+03</pdfrwt>
<pdfrwt beam="2">  1       21 0.11526224E-01 0.18171532E+03</pdfrwt>
<totfact> 0.10946523E+05</totfact>
</mgrwt>
</event>
<event>
 4    3  0.4009700E+000  0.1947505E+03  0.7546771E-02  0.1154245E+00
         21   -1    0    0  501  502  0.00000000000E+00  0.00000000000E+00  0.16269353887E+03  0.16269353887E+03  0.00000000000E+00 0. -1.
         21   -1    0    0  502  503 -0.00000000000E+00 -0.00000000000E+00 -0.36847718275E+03  0.36847718275E+03  0.00000000000E+00 0. -1.
          6    1    1    2  501    0 -0.75205005389E+02  0.48404184436E+02  0.58073815573E+02  0.20322481630E+03  0.17300000000E+03 0. -1.
         -6    1    1    2    0  503  0.75205005389E+02 -0.48404184436E+02 -0.26385745946E+03  0.32794590532E+03  0.17300000000E+03 0. -1.
<mgrwt>
<rscale>  2 0.19475050E+03</rscale>
<asrwt>0</asrwt>
<pdfrwt beam="1">  1       21 0.25029775E-01 0.19475050E+03</pdfrwt>
<pdfrwt beam="2">  1       21 0.56688797E-01 0.19475050E+03</pdfrwt>
<totfact> 0.44165174E+04</totfact>
</mgrwt>
</event>
<event>
 4    3  0.4009700E+000  0.2029195E+03  0.7546771E-02  0.1147299E+00
         21   -1    0    0  503  502  0.00000000000E+00  0.00000000000E+00  0.27010911335E+03  0.27010911335E+03  0.00000000000E+00 0.  1.
         21   -1    0    0  501  503 -0.00000000000E+00 -0.00000000000E+00 -0.17741581200E+03  0.17741581200E+03  0.00000000000E+00 0.  1.
          6    1    1    2  501    0  0.10254978488E+03  0.27034887020E+02 -0.37603519031E+02  0.20637433983E+03  0.17300000000E+03 0.  1.
         -6    1    1    2    0  502 -0.10254978488E+03 -0.27034887020E+02  0.13029682039E+03  0.24115058552E+03  0.17300000000E+03 0.  1.
<mgrwt>
<rscale>  2 0.20291955E+03</rscale>
<asrwt>0</asrwt>
<pdfrwt beam="1">  1       21 0.41555248E-01 0.20291955E+03</pdfrwt>
<pdfrwt beam="2">  1       21 0.27294740E-01 0.20291955E+03</pdfrwt>
<totfact> 0.71035480E+04</totfact>
</mgrwt>
</event>
<event>
 4    3  0.4009700E+000  0.2707694E+03  0.7546771E-02  0.1100840E+00
         21   -1    0    0  503  502  0.00000000000E+00  0.00000000000E+00  0.14369830011E+03  0.14369830011E+03  0.00000000000E+00 0.  1.
         21   -1    0    0  501  503 -0.00000000000E+00 -0.00000000000E+00 -0.58168084689E+03  0.58168084689E+03  0.00000000000E+00 0. -1.
          6    1    1    2  501    0 -0.20629500743E+03 -0.28799533206E+02 -0.91856958385E+02  0.28592611634E+03  0.17300000000E+03 0. -1.
         -6    1    1    2    0  502  0.20629500743E+03  0.28799533206E+02 -0.34612558840E+03  0.43945303065E+03  0.17300000000E+03 0.  1.
<mgrwt>
<rscale>  2 0.27076935E+03</rscale>
<asrwt>0</asrwt>
<pdfrwt beam="1">  1       21 0.22107431E-01 0.27076935E+03</pdfrwt>
<pdfrwt beam="2">  1       21 0.89489360E-01 0.27076935E+03</pdfrwt>
<totfact> 0.19524993E+04</totfact>
</mgrwt>
</event>
<event>
 4    3  0.4009700E+000  0.2197830E+03  0.7546771E-02  0.1134045E+00
         21   -1    0    0  503  502  0.00000000000E+00  0.00000000000E+00  0.11264889707E+03  0.11264889707E+03  0.00000000000E+00 0. -1.
         21   -1    0    0  501  503 -0.00000000000E+00 -0.00000000000E+00 -0.75760856341E+03  0.75760856341E+03  0.00000000000E+00 0.  1.
          6    1    1    2  501    0 -0.13499230218E+03 -0.12355311628E+02 -0.60913687313E+03  0.64757416994E+03  0.17300000000E+03 0.  1.
         -6    1    1    2    0  502  0.13499230218E+03  0.12355311628E+02 -0.35822793213E+02  0.22268329054E+03  0.17300000000E+03 0. -1.
<mgrwt>
<rscale>  2 0.21978302E+03</rscale>
<asrwt>0</asrwt>
<pdfrwt beam="1">  1       21 0.17330600E-01 0.21978302E+03</pdfrwt>
<pdfrwt beam="2">  1       21 0.11655516E+00 0.21978302E+03</pdfrwt>
<totfact> 0.16790788E+04</totfact>
</mgrwt>
</event>
<event>
 4    3  0.4009700E+000  0.1755563E+03  0.7546771E-02  0.1172174E+00
         21   -1    0    0  501  502  0.00000000000E+00  0.00000000000E+00  0.16292779713E+04  0.16292779713E+04  0.00000000000E+00 0. -1.
         21   -1    0    0  502  503 -0.00000000000E+00 -0.00000000000E+00 -0.37119334805E+02  0.37119334805E+02  0.00000000000E+00 0. -1.
          6    1    1    2  501    0 -0.16660865932E+02 -0.24767846260E+02  0.13795506059E+04  0.13906760604E+04  0.17300000000E+03 0. -1.
         -6    1    1    2    0  503  0.16660865932E+02  0.24767846260E+02  0.21260803051E+03  0.27572124564E+03  0.17300000000E+03 0. -1.
<mgrwt>
<rscale>  2 0.17555635E+03</rscale>
<asrwt>0</asrwt>
<pdfrwt beam="1">  1       21 0.25065809E+00 0.17555635E+03</pdfrwt>
<pdfrwt beam="2">  1       21 0.57106682E-02 0.17555635E+03</pdfrwt>
<totfact> 0.14370898E+04</totfact>
</mgrwt>
</event>
<event>
 4    3  0.4009700E+000  0.1769540E+03  0.7546771E-02  0.1170784E+00
         21   -1    0    0  501  502  0.00000000000E+00  0.00000000000E+00  0.70378600281E+02  0.70378600281E+02  0.00000000000E+00 0. -1.
         21   -1    0    0  502  503 -0.00000000000E+00 -0.00000000000E+00 -0.10744299644E+04  0.10744299644E+04  0.00000000000E+00 0.  1.
          6    1    1    2  501    0  0.25722069768E+02  0.26871699143E+02 -0.63882782195E+02  0.18813219541E+03  0.17300000000E+03 0. -1.
         -6    1    1    2    0  503 -0.25722069768E+02 -0.26871699143E+02 -0.94016858195E+03  0.95667636930E+03  0.17300000000E+03 0.  1.
<mgrwt>
<rscale>  2 0.17695399E+03</rscale>
<asrwt>0</asrwt>
<pdfrwt beam="1">  1       21 0.10827478E-01 0.17695399E+03</pdfrwt>
<pdfrwt beam="2">  1       21 0.16529690E+00 0.17695399E+03</pdfrwt>
<totfact> 0.16429492E+04</totfact>
</mgrwt>
</event>
<event>
 4    3  0.4009700E+000  0.2062148E+03  0.7546771E-02  0.1144599E+00
         21   -1    0    0  501  502  0.00000000000E+00  0.00000000000E+00  0.83445326080E+02  0.83445326080E+02  0.00000000000E+00 0.  1.
         21   -1    0    0  502  503 -0.00000000000E+00 -0.00000000000E+00 -0.55809235883E+03  0.55809235883E+03  0.00000000000E+00 0.  1.
          6    1    1    2  501    0  0.32507102791E+02  0.10741886984E+03 -0.33186742393E+03  0.39071794481E+03  0.17300000000E+03 0.  1.
         -6    1    1    2    0  503 -0.32507102791E+02 -0.10741886984E+03 -0.14277960882E+03  0.25081974010E+03  0.17300000000E+03 0.  1.
<mgrwt>
<rscale>  2 0.20621476E+03</rscale>
<asrwt>0</asrwt>
<pdfrwt beam="1">  1       21 0.12837743E-01 0.20621476E+03</pdfrwt>
<pdfrwt beam="2">  1       21 0.85860361E-01 0.20621476E+03</pdfrwt>
<totfact> 0.60485945E+04</totfact>
</mgrwt>
</event>
<event>
 4    3  0.4009700E+000  0.1809644E+03  0.7546771E-02  0.1166873E+00
         21   -1    0    0  503  502  0.00000000000E+00  0.00000000000E+00  0.21316784912E+03  0.21316784912E+03  0.00000000000E+00 0. -1.
         21   -1    0    0  501  503 -0.00000000000E+00 -0.00000000000E+00 -0.21914699367E+03  0.21914699367E+03  0.00000000000E+00 0. -1.
          6    1    1    2  501    0  0.51402055533E+02 -0.13302639473E+02 -0.12118277815E+03  0.21779209639E+03  0.17300000000E+03 0. -1.
         -6    1    1    2    0  502 -0.51402055533E+02  0.13302639473E+02  0.11520363360E+03  0.21452274640E+03  0.17300000000E+03 0. -1.
<mgrwt>
<rscale>  2 0.18096445E+03</rscale>
<asrwt>0</asrwt>
<pdfrwt beam="1">  1       21 0.32795054E-01 0.18096445E+03</pdfrwt>
<pdfrwt beam="2">  1       21 0.33714922E-01 0.18096445E+03</pdfrwt>
<totfact> 0.76210367E+04</totfact>
</mgrwt>
</event>
<event>
 4    3  0.4009700E+000  0.1773992E+03  0.7546771E-02  0.1170344E+00
         21   -1    0    0  503  502  0.00000000000E+00  0.00000000000E+00  0.49950902182E+03  0.49950902182E+03  0.00000000000E+00 0. -1.
         21   -1    0    0  501  503 -0.00000000000E+00 -0.00000000000E+00 -0.93256039402E+02  0.93256039402E+02  0.00000000000E+00 0. -1.
          6    1    1    2  501    0  0.38910251981E+01 -0.39068144022E+02  0.34315717000E+02  0.18068765422E+03  0.17300000000E+03 0. -1.
         -6    1    1    2    0  502 -0.38910251981E+01  0.39068144022E+02  0.37193726542E+03  0.41207740700E+03  0.17300000000E+03 0. -1.
<mgrwt>
<rscale>  2 0.17739915E+03</rscale>
<asrwt>0</asrwt>
<pdfrwt beam="1">  1       21 0.76847541E-01 0.17739915E+03</pdfrwt>
<pdfrwt beam="2">  1       21 0.14347083E-01 0.17739915E+03</pdfrwt>
<totfact> 0.64482959E+04</totfact>
</mgrwt>
</event>
<event>
 4    3  0.4009700E+000  0.1945961E+03  0.7546771E-02  0.1154380E+00
         21   -1    0    0  501  502  0.00000000000E+00  0.00000000000E+00  0.95182629257E+02  0.95182629257E+02  0.00000000000E+00 0.  1.
         21   -1    0    0  502  503 -0.00000000000E+00 -0.00000000000E+00 -0.46175393258E+03  0.46175393258E+03  0.00000000000E+00 0.  1.
          6    1    1    2  501    0  0.78303470158E+02 -0.42511377179E+02 -0.79685283476E+02  0.21027932621E+03  0.17300000000E+03 0.  1.
         -6    1    1    2    0  503 -0.78303470158E+02  0.42511377179E+02 -0.28688601984E+03  0.34665723562E+03  0.17300000000E+03 0.  1.
<mgrwt>
<rscale>  2 0.19459612E+03</rscale>
<asrwt>0</asrwt>
<pdfrwt beam="1">  1       21 0.14643481E-01 0.19459612E+03</pdfrwt>
<pdfrwt beam="2">  1       21 0.71039067E-01 0.19459612E+03</pdfrwt>
<totfact> 0.73446781E+04</totfact>
</mgrwt>
</event>
<event>
 4    3  0.4009700E+000  0.2470550E+03  0.7546771E-02  0.1115180E+00
         21   -1    0    0  501  502  0.00000000000E+00  0.00000000000E+00  0.42536440507E+03  0.42536440507E+03  0.00000000000E+00 0.  1.
         21   -1    0    0  502  503 -0.00000000000E+00 -0.00000000000E+00 -0.17500625634E+03  0.17500625634E+03  0.00000000000E+00 0. -1.
          6    1    1    2  501    0  0.13009716704E+03 -0.11908786063E+03  0.25256440360E+03  0.35330577321E+03  0.17300000000E+03 0.  1.
         -6    1    1    2    0  503 -0.13009716704E+03  0.11908786063E+03 -0.22062548648E+01  0.24706488820E+03  0.17300000000E+03 0.  1.
<mgrwt>
<rscale>  2 0.24705504E+03</rscale>
<asrwt>0</asrwt>
<pdfrwt beam="1">  1       21 0.65440677E-01 0.24705504E+03</pdfrwt>
<pdfrwt beam="2">  1       21 0.26924040E-01 0.24705504E+03</pdfrwt>
<totfact> 0.27438856E+04</totfact>
</mgrwt>
</event>
<event>
 4    3  0.4009700E+000  0.1761843E+03  0.7546771E-02  0.1171548E+00
         21   -1    0    0  503  502  0.00000000000E+00  0.00000000000E+00  0.15478773539E+03  0.15478773539E+03  0.00000000000E+00 0. -1.
         21   -1    0    0  501  503 -0.00000000000E+00 -0.00000000000E+00 -0.20067534134E+03  0.20067534134E+03  0.00000000000E+00 0. -1.
          6    1    1    2  501    0 -0.23108069840E+02  0.24040301158E+02 -0.27582909803E+02  0.17833041211E+03  0.17300000000E+03 0. -1.
         -6    1    1    2    0  502  0.23108069840E+02 -0.24040301158E+02 -0.18304696145E+02  0.17713266461E+03  0.17300000000E+03 0. -1.
<mgrwt>
<rscale>  2 0.17618433E+03</rscale>
<asrwt>0</asrwt>
<pdfrwt beam="1">  1       21 0.23813498E-01 0.17618433E+03</pdfrwt>
<pdfrwt beam="2">  1       21 0.30873129E-01 0.17618433E+03</pdfrwt>
<totfact> 0.16827170E+05</totfact>
</mgrwt>
</event>
<event>
 4    3  0.4009700E+000  0.1772095E+03  0.7546771E-02  0.1170531E+00
         21   -1    0    0  501  502  0.00000000000E+00  0.00000000000E+00  0.65039169569E+02  0.65039169569E+02  0.00000000000E+00 0.  1.
         21   -1    0    0  502  503 -0.00000000000E+00 -0.00000000000E+00 -0.52897514694E+03  0.52897514694E+03  0.00000000000E+00 0.  1.
          6    1    1    2  501    0 -0.35146991599E+02  0.15456068460E+02 -0.14425017820E+03  0.22849795400E+03  0.17300000000E+03 0.  1.
         -6    1    1    2    0  503  0.35146991599E+02 -0.15456068460E+02 -0.31968579917E+03  0.36551636251E+03  0.17300000000E+03 0.  1.
<mgrwt>
<rscale>  2 0.17720948E+03</rscale>
<asrwt>0</asrwt>
<pdfrwt beam="1">  1       21 0.10006026E-01 0.17720948E+03</pdfrwt>
<pdfrwt beam="2">  1       21 0.81380793E-01 0.17720948E+03</pdfrwt>
<totfact> 0.10789159E+05</totfact>
</mgrwt>
</event>
<event>
 4    3  0.4009700E+000  0.2287405E+03  0.7546771E-02  0.1127529E+00
         21   -1    0    0  503  502  0.00000000000E+00  0.00000000000E+00  0.30129439385E+02  0.30129439385E+02  0.00000000000E+00 0. -1.
         21   -1    0    0  501  503 -0.00000000000E+00 -0.00000000000E+00 -0.20595580938E+04  0.20595580938E+04  0.00000000000E+00 0. -1.
          6    1    1    2  501    0 -0.99529948960E+01  0.14931222845E+03 -0.14284761147E+04  0.14466741907E+04  0.17300000000E+03 0. -1.
         -6    1    1    2    0  502  0.99529948960E+01 -0.14931222845E+03 -0.60095253975E+03  0.64301334255E+03  0.17300000000E+03 0. -1.
<mgrwt>
<rscale>  2 0.22874047E+03</rscale>
<asrwt>0</asrwt>
<pdfrwt beam="1">  1       21 0.46352985E-02 0.22874047E+03</pdfrwt>
<pdfrwt beam="2">  1       21 0.31685508E+00 0.22874047E+03</pdfrwt>
<totfact> 0.80304965E+03</totfact>
</mgrwt>
</event>
<event>
 4    3  0.4009700E+000  0.1783216E+03  0.7546771E-02  0.1169437E+00
         21   -1    0    0  501  502  0.00000000000E+00  0.00000000000E+00  0.64336854505E+03  0.64336854505E+03  0.00000000000E+00 0. -1.
         21   -1    0    0  502  503 -0.00000000000E+00 -0.00000000000E+00 -0.95083841710E+02  0.95083841710E+02  0.00000000000E+00 0. -1.
          6    1    1    2  501    0  0.10905391807E+02  0.41840876494E+02  0.53000145684E+03  0.55919596813E+03  0.17300000000E+03 0. -1.
         -6    1    1    2    0  503 -0.10905391807E+02 -0.41840876494E+02  0.18283246492E+02  0.17925641863E+03  0.17300000000E+03 0. -1.
<mgrwt>
<rscale>  2 0.17832158E+03</rscale>
<asrwt>0</asrwt>
<pdfrwt beam="1">  1       21 0.98979774E-01 0.17832158E+03</pdfrwt>
<pdfrwt beam="2">  1       21 0.14628284E-01 0.17832158E+03</pdfrwt>
<totfact> 0.34809008E+04</totfact>
</mgrwt>
</event>
<event>
 4    3  0.4009700E+000  0.1965142E+03  0.7546771E-02  0.1152714E+00
         21   -1    0    0  501  502  0.00000000000E+00  0.00000000000E+00  0.11482847797E+04  0.11482847797E+04  0.00000000000E+00 0. -1.
         21   -1    0    0  502  503 -0.00000000000E+00 -0.00000000000E+00 -0.50607962934E+02  0.50607962934E+02  0.00000000000E+00 0. -1.
          6    1    1    2  501    0 -0.41869840318E+01 -0.93119732979E+02  0.20164411564E+03  0.28156378474E+03  0.17300000000E+03 0. -1.
         -6    1    1    2    0  503  0.41869840318E+01  0.93119732979E+02  0.89603270117E+03  0.91732895794E+03  0.17300000000E+03 0. -1.
<mgrwt>
<rscale>  2 0.19651416E+03</rscale>
<asrwt>0</asrwt>
<pdfrwt beam="1">  1       21 0.17665918E+00 0.19651416E+03</pdfrwt>
<pdfrwt beam="2">  1       21 0.77858413E-02 0.19651416E+03</pdfrwt>
<totfact> 0.24063780E+04</totfact>
</mgrwt>
</event>
<event>
 4    3  0.4009700E+000  0.3190465E+03  0.7546771E-02  0.1076089E+00
         21   -1    0    0  503  502  0.00000000000E+00  0.00000000000E+00  0.82396334358E+03  0.82396334358E+03  0.00000000000E+00 0.  1.
         21   -1    0    0  501  503 -0.00000000000E+00 -0.00000000000E+00 -0.21667932934E+03  0.21667932934E+03  0.00000000000E+00 0. -1.
          6    1    1    2  501    0 -0.20893909056E+03 -0.16794677831E+03  0.64478342347E+03  0.71939997713E+03  0.17300000000E+03 0.  1.
         -6    1    1    2    0  502  0.20893909056E+03  0.16794677831E+03 -0.37499409233E+02  0.32124269580E+03  0.17300000000E+03 0. -1.
<mgrwt>
<rscale>  2 0.31904649E+03</rscale>
<asrwt>0</asrwt>
<pdfrwt beam="1">  1       21 0.12676359E+00 0.31904649E+03</pdfrwt>
<pdfrwt beam="2">  1       21 0.33335282E-01 0.31904649E+03</pdfrwt>
<totfact> 0.36688325E+03</totfact>
</mgrwt>
</event>
<event>
 4    3  0.4009700E+000  0.1977184E+03  0.7546771E-02  0.1151678E+00
         21   -1    0    0  503  502  0.00000000000E+00  0.00000000000E+00  0.13996718856E+03  0.13996718856E+03  0.00000000000E+00 0.  1.
         21   -1    0    0  501  503 -0.00000000000E+00 -0.00000000000E+00 -0.31954130171E+03  0.31954130171E+03  0.00000000000E+00 0.  1.
          6    1    1    2  501    0  0.95470584022E+02  0.69950276748E+01 -0.82515869215E+01  0.19789050385E+03  0.17300000000E+03 0.  1.
         -6    1    1    2    0  502 -0.95470584022E+02 -0.69950276748E+01 -0.17132252622E+03  0.26161798642E+03  0.17300000000E+03 0.  1.
<mgrwt>
<rscale>  2 0.19771839E+03</rscale>
<asrwt>0</asrwt>
<pdfrwt beam="1">  1       21 0.21533414E-01 0.19771839E+03</pdfrwt>
<pdfrwt beam="2">  1       21 0.49160199E-01 0.19771839E+03</pdfrwt>
<totfact> 0.79159702E+04</totfact>
</mgrwt>
</event>
<event>
 4    3  0.4009700E+000  0.1862325E+03  0.7546771E-02  0.1161904E+00
         21   -1    0    0  503  502  0.00000000000E+00  0.00000000000E+00  0.47079708521E+03  0.47079708521E+03  0.00000000000E+00 0. -1.
         21   -1    0    0  501  503 -0.00000000000E+00 -0.00000000000E+00 -0.73766993637E+02  0.73766993637E+02  0.00000000000E+00 0. -1.
          6    1    1    2  501    0  0.47437866828E+02  0.50031794229E+02  0.20850538430E+03  0.27956578282E+03  0.17300000000E+03 0.  1.
         -6    1    1    2    0  502 -0.47437866828E+02 -0.50031794229E+02  0.18852470727E+03  0.26499829602E+03  0.17300000000E+03 0.  1.
<mgrwt>
<rscale>  2 0.18623247E+03</rscale>
<asrwt>0</asrwt>
<pdfrwt beam="1">  1       21 0.72430319E-01 0.18623247E+03</pdfrwt>
<pdfrwt beam="2">  1       21 0.11348769E-01 0.18623247E+03</pdfrwt>
<totfact> 0.11165719E+05</totfact>
</mgrwt>
</event>
<event>
 4    3  0.4009700E+000  0.1931519E+03  0.7546771E-02  0.1155649E+00
         21   -1    0    0  501  502  0.00000000000E+00  0.00000000000E+00  0.20367928336E+03  0.20367928336E+03  0.00000000000E+00 0.  1.
         21   -1    0    0  502  503 -0.00000000000E+00 -0.00000000000E+00 -0.18955084702E+03  0.18955084702E+03  0.00000000000E+00 0.  1.
          6    1    1    2  501    0 -0.85601330715E+02 -0.71469428103E+01 -0.29013396858E+02  0.19531882605E+03  0.17300000000E+03 0.  1.
         -6    1    1    2    0  503  0.85601330715E+02  0.71469428103E+01  0.43141833194E+02  0.19791130433E+03  0.17300000000E+03 0.  1.
<mgrwt>
<rscale>  2 0.19315193E+03</rscale>
<asrwt>0</asrwt>
<pdfrwt beam="1">  1       21 0.31335274E-01 0.19315193E+03</pdfrwt>
<pdfrwt beam="2">  1       21 0.29161669E-01 0.19315193E+03</pdfrwt>
<totfact> 0.11019325E+05</totfact>
</mgrwt>
</event>
<event>
 4    3  0.4009700E+000  0.1780550E+03  0.7546771E-02  0.1169699E+00
         21   -1    0    0  503  502  0.00000000000E+00  0.00000000000E+00  0.11177298346E+03  0.11177298346E+03  0.00000000000E+00 0.  1.
         21   -1    0    0  501  503 -0.00000000000E+00 -0.00000000000E+00 -0.44812294443E+03  0.44812294443E+03  0.00000000000E+00 0.  1.
          6    1    1    2  501    0  0.16242303058E+02 -0.38868481023E+02 -0.33777887696E+03  0.38183522748E+03  0.17300000000E+03 0.  1.
         -6    1    1    2    0  502 -0.16242303058E+02  0.38868481023E+02  0.14289159946E+01  0.17806070040E+03  0.17300000000E+03 0.  1.
<mgrwt>
<rscale>  2 0.17805497E+03</rscale>
<asrwt>0</asrwt>
<pdfrwt beam="1">  1       21 0.17195844E-01 0.17805497E+03</pdfrwt>
<pdfrwt beam="2">  1       21 0.68941991E-01 0.17805497E+03</pdfrwt>
<totfact> 0.58922183E+04</totfact>
</mgrwt>
</event>
<event>
 4    3  0.4009700E+000  0.2847336E+03  0.7546771E-02  0.1093131E+00
         21   -1    0    0  501  502  0.00000000000E+00  0.00000000000E+00  0.49225277734E+03  0.49225277734E+03  0.00000000000E+00 0. -1.
         21   -1    0    0  502  503 -0.00000000000E+00 -0.00000000000E+00 -0.17627118953E+03  0.17627118953E+03  0.00000000000E+00 0.  1.
          6    1    1    2  501    0 -0.19232541754E+03 -0.11897538393E+03  0.24363869827E+03  0.37474394392E+03  0.17300000000E+03 0. -1.
         -6    1    1    2    0  503  0.19232541754E+03  0.11897538393E+03  0.72342889538E+02  0.29378002294E+03  0.17300000000E+03 0.  1.
<mgrwt>
<rscale>  2 0.28473357E+03</rscale>
<asrwt>0</asrwt>
<pdfrwt beam="1">  1       21 0.75731196E-01 0.28473357E+03</pdfrwt>
<pdfrwt beam="2">  1       21 0.27118645E-01 0.28473357E+03</pdfrwt>
<totfact> 0.19224868E+04</totfact>
</mgrwt>
</event>
<event>
 4    3  0.4009700E+000  0.1809229E+03  0.7546771E-02  0.1166913E+00
         21   -1    0    0  503  502  0.00000000000E+00  0.00000000000E+00  0.59646830287E+03  0.59646830287E+03  0.00000000000E+00 0. -1.
         21   -1    0    0  501  503 -0.00000000000E+00 -0.00000000000E+00 -0.72117627450E+02  0.72117627450E+02  0.00000000000E+00 0. -1.
          6    1    1    2  501    0  0.40610947839E+01  0.52797729576E+02  0.98731617673E+02  0.20610925517E+03  0.17300000000E+03 0. -1.
         -6    1    1    2    0  502 -0.40610947839E+01 -0.52797729576E+02  0.42561905775E+03  0.46247667515E+03  0.17300000000E+03 0. -1.
<mgrwt>
<rscale>  2 0.18092289E+03</rscale>
<asrwt>0</asrwt>
<pdfrwt beam="1">  1       21 0.91764351E-01 0.18092289E+03</pdfrwt>
<pdfrwt beam="2">  1       21 0.11095020E-01 0.18092289E+03</pdfrwt>
<totfact> 0.68145328E+04</totfact>
</mgrwt>
</event>
<event>
 4    3  0.4009700E+000  0.1870953E+03  0.7546771E-02  0.1161108E+00
         21   -1    0    0  501  502  0.00000000000E+00  0.00000000000E+00  0.15765759117E+04  0.15765759117E+04  0.00000000000E+00 0.  1.
         21   -1    0    0  502  503 -0.00000000000E+00 -0.00000000000E+00 -0.22276042839E+02  0.22276042839E+02  0.00000000000E+00 0.  1.
          6    1    1    2  501    0  0.14520232804E+02  0.69748244756E+02  0.82293896670E+03  0.84393909598E+03  0.17300000000E+03 0.  1.
         -6    1    1    2    0  503 -0.14520232804E+02 -0.69748244756E+02  0.73136090212E+03  0.75491285852E+03  0.17300000000E+03 0.  1.
<mgrwt>
<rscale>  2 0.18709531E+03</rscale>
<asrwt>0</asrwt>
<pdfrwt beam="1">  1       21 0.24255005E+00 0.18709531E+03</pdfrwt>
<pdfrwt beam="2">  1       21 0.34270847E-02 0.18709531E+03</pdfrwt>
<totfact> 0.37491305E+04</totfact>
</mgrwt>
</event>
<event>
 4    3  0.4009700E+000  0.1789721E+03  0.7546771E-02  0.1168802E+00
         21   -1    0    0  501  502  0.00000000000E+00  0.00000000000E+00  0.42549398837E+02  0.42549398837E+02  0.00000000000E+00 0. -1.
         21   -1    0    0  502  503 -0.00000000000E+00 -0.00000000000E+00 -0.11788060040E+04  0.11788060040E+04  0.00000000000E+00 0. -1.
          6    1    1    2  501    0  0.91101031409E+00  0.45838824287E+02 -0.20101454017E+03  0.26914284890E+03  0.17300000000E+03 0. -1.
         -6    1    1    2    0  503 -0.91101031409E+00 -0.45838824287E+02 -0.93524206496E+03  0.95221255391E+03  0.17300000000E+03 0. -1.
<mgrwt>
<rscale>  2 0.17897214E+03</rscale>
<asrwt>0</asrwt>
<pdfrwt beam="1">  1       21 0.65460616E-02 0.17897214E+03</pdfrwt>
<pdfrwt beam="2">  1       21 0.18135476E+00 0.17897214E+03</pdfrwt>
<totfact> 0.30532822E+04</totfact>
</mgrwt>
</event>
<event>
 4    3  0.4009700E+000  0.2197364E+03  0.7546771E-02  0.1134080E+00
         21   -1    0    0  503  502  0.00000000000E+00  0.00000000000E+00  0.42743099453E+02  0.42743099453E+02  0.00000000000E+00 0.  1.
         21   -1    0    0  501  503 -0.00000000000E+00 -0.00000000000E+00 -0.13165941240E+04  0.13165941240E+04  0.00000000000E+00 0. -1.
          6    1    1    2  501    0 -0.12884923031E+03  0.41868407715E+02 -0.89304637440E+03  0.91968250747E+03  0.17300000000E+03 0. -1.
         -6    1    1    2    0  502  0.12884923031E+03 -0.41868407715E+02 -0.38080465018E+03  0.43965471602E+03  0.17300000000E+03 0.  1.
<mgrwt>
<rscale>  2 0.21973641E+03</rscale>
<asrwt>0</asrwt>
<pdfrwt beam="1">  1       21 0.65758610E-02 0.21973641E+03</pdfrwt>
<pdfrwt beam="2">  1       21 0.20255296E+00 0.21973641E+03</pdfrwt>
<totfact> 0.21359227E+04</totfact>
</mgrwt>
</event>
<event>
 4    3  0.4009700E+000  0.2680095E+03  0.7546771E-02  0.1102424E+00
         21   -1    0    0  501  502  0.00000000000E+00  0.00000000000E+00  0.21979660065E+04  0.21979660065E+04  0.00000000000E+00 0.  1.
         21   -1    0    0  502  503 -0.00000000000E+00 -0.00000000000E+00 -0.62170889611E+02  0.62170889611E+02  0.00000000000E+00 0. -1.
          6    1    1    2  501    0 -0.16434960850E+03 -0.12202180081E+03  0.28958052174E+03  0.39457064293E+03  0.17300000000E+03 0. -1.
         -6    1    1    2    0  503  0.16434960850E+03  0.12202180081E+03  0.18462145951E+04  0.18655662532E+04  0.17300000000E+03 0.  1.
<mgrwt>
<rscale>  2 0.26800954E+03</rscale>
<asrwt>0</asrwt>
<pdfrwt beam="1">  1       21 0.33814856E+00 0.26800954E+03</pdfrwt>
<pdfrwt beam="2">  1       21 0.95647539E-02 0.26800954E+03</pdfrwt>
<totfact> 0.16508625E+03</totfact>
</mgrwt>
</event>
<event>
 4    3  0.4009700E+000  0.2725815E+03  0.7546771E-02  0.1099811E+00
         21   -1    0    0  501  502  0.00000000000E+00  0.00000000000E+00  0.22177022707E+04  0.22177022707E+04  0.00000000000E+00 0. -1.
         21   -1    0    0  502  503 -0.00000000000E+00 -0.00000000000E+00 -0.56314389890E+02  0.56314389890E+02  0.00000000000E+00 0.  1.
          6    1    1    2  501    0 -0.20340300045E+03  0.54762355237E+02  0.18043387699E+04  0.18248120705E+04  0.17300000000E+03 0. -1.
         -6    1    1    2    0  503  0.20340300045E+03 -0.54762355237E+02  0.35704911093E+03  0.44920459009E+03  0.17300000000E+03 0.  1.
<mgrwt>
<rscale>  2 0.27258154E+03</rscale>
<asrwt>0</asrwt>
<pdfrwt beam="1">  1       21 0.34118490E+00 0.27258154E+03</pdfrwt>
<pdfrwt beam="2">  1       21 0.86637540E-02 0.27258154E+03</pdfrwt>
<totfact> 0.18779243E+03</totfact>
</mgrwt>
</event>
<event>
 4    3  0.4009700E+000  0.1840837E+03  0.7546771E-02  0.1163908E+00
         21   -1    0    0  501  502  0.00000000000E+00  0.00000000000E+00  0.81684605087E+03  0.81684605087E+03  0.00000000000E+00 0.  1.
         21   -1    0    0  502  503 -0.00000000000E+00 -0.00000000000E+00 -0.41584786890E+02  0.41584786890E+02  0.00000000000E+00 0.  1.
          6    1    1    2  501    0  0.14383757994E+02 -0.61244617288E+02  0.40866415403E+03  0.44821109584E+03  0.17300000000E+03 0.  1.
         -6    1    1    2    0  503 -0.14383757994E+02  0.61244617288E+02  0.36659710995E+03  0.41021974192E+03  0.17300000000E+03 0.  1.
<mgrwt>
<rscale>  2 0.18408366E+03</rscale>
<asrwt>0</asrwt>
<pdfrwt beam="1">  1       21 0.12566861E+00 0.18408366E+03</pdfrwt>
<pdfrwt beam="2">  1       21 0.63976601E-02 0.18408366E+03</pdfrwt>
<totfact> 0.83466733E+04</totfact>
</mgrwt>
</event>
<event>
 4    3  0.4009700E+000  0.2324849E+03  0.7546771E-02  0.1124903E+00
         21   -1    0    0  501  502  0.00000000000E+00  0.00000000000E+00  0.30176925595E+03  0.30176925595E+03  0.00000000000E+00 0. -1.
         21   -1    0    0  502  503 -0.00000000000E+00 -0.00000000000E+00 -0.22725361345E+03  0.22725361345E+03  0.00000000000E+00 0. -1.
          6    1    1    2  501    0 -0.15529333168E+03 -0.20478114980E+01  0.15900770161E+03  0.28166054315E+03  0.17300000000E+03 0. -1.
         -6    1    1    2    0  503  0.15529333168E+03  0.20478114980E+01 -0.84492059112E+02  0.24736232625E+03  0.17300000000E+03 0. -1.
<mgrwt>
<rscale>  2 0.23248486E+03</rscale>
<asrwt>0</asrwt>
<pdfrwt beam="1">  1       21 0.46426040E-01 0.23248486E+03</pdfrwt>
<pdfrwt beam="2">  1       21 0.34962094E-01 0.23248486E+03</pdfrwt>
<totfact> 0.34349240E+04</totfact>
</mgrwt>
</event>
<event>
 4    3  0.4009700E+000  0.2917958E+03  0.7546771E-02  0.1089415E+00
         21   -1    0    0  503  502  0.00000000000E+00  0.00000000000E+00  0.42162871425E+03  0.42162871425E+03  0.00000000000E+00 0. -1.
         21   -1    0    0  501  503 -0.00000000000E+00 -0.00000000000E+00 -0.20267194705E+03  0.20267194705E+03  0.00000000000E+00 0. -1.
          6    1    1    2  501    0 -0.93509505759E+02  0.21557309824E+03  0.90752536827E+02  0.30558274050E+03  0.17300000000E+03 0. -1.
         -6    1    1    2    0  502  0.93509505759E+02 -0.21557309824E+03  0.12820423038E+03  0.31871792080E+03  0.17300000000E+03 0. -1.
<mgrwt>
<rscale>  2 0.29179580E+03</rscale>
<asrwt>0</asrwt>
<pdfrwt beam="1">  1       21 0.64865956E-01 0.29179580E+03</pdfrwt>
<pdfrwt beam="2">  1       21 0.31180300E-01 0.29179580E+03</pdfrwt>
<totfact> 0.20589426E+04</totfact>
</mgrwt>
</event>
<event>
 4    3  0.4009700E+000  0.2058468E+03  0.7546771E-02  0.1144898E+00
         21   -1    0    0  501  502  0.00000000000E+00  0.00000000000E+00  0.23698491145E+03  0.23698491145E+03  0.00000000000E+00 0.  1.
         21   -1    0    0  502  503 -0.00000000000E+00 -0.00000000000E+00 -0.18288348516E+03  0.18288348516E+03  0.00000000000E+00 0.  1.
          6    1    1    2  501    0  0.41570237347E+02  0.10351732090E+03 -0.43187694228E+01  0.20589213712E+03  0.17300000000E+03 0.  1.
         -6    1    1    2    0  503 -0.41570237347E+02 -0.10351732090E+03  0.58420195717E+02  0.21397625949E+03  0.17300000000E+03 0.  1.
<mgrwt>
<rscale>  2 0.20584684E+03</rscale>
<asrwt>0</asrwt>
<pdfrwt beam="1">  1       21 0.36459217E-01 0.20584684E+03</pdfrwt>
<pdfrwt beam="2">  1       21 0.28135921E-01 0.20584684E+03</pdfrwt>
<totfact> 0.87086048E+04</totfact>
</mgrwt>
</event>
<event>
 4    3  0.4009700E+000  0.1777164E+03  0.7546771E-02  0.1170032E+00
         21   -1    0    0  501  502  0.00000000000E+00  0.00000000000E+00  0.87354037364E+02  0.87354037364E+02  0.00000000000E+00 0.  1.
         21   -1    0    0  502  503 -0.00000000000E+00 -0.00000000000E+00 -0.59514630141E+03  0.59514630141E+03  0.00000000000E+00 0.  1.
          6    1    1    2  501    0 -0.34643719660E+02  0.21305583238E+02 -0.46768800336E+03  0.50031508439E+03  0.17300000000E+03 0.  1.
         -6    1    1    2    0  503  0.34643719660E+02 -0.21305583238E+02 -0.40104260693E+02  0.18218525438E+03  0.17300000000E+03 0.  1.
<mgrwt>
<rscale>  2 0.17771639E+03</rscale>
<asrwt>0</asrwt>
<pdfrwt beam="1">  1       21 0.13439082E-01 0.17771639E+03</pdfrwt>
<pdfrwt beam="2">  1       21 0.91560975E-01 0.17771639E+03</pdfrwt>
<totfact> 0.48692766E+04</totfact>
</mgrwt>
</event>
<event>
 4    3  0.4009700E+000  0.1751692E+03  0.7546771E-02  0.1172562E+00
         21   -1    0    0  501  502  0.00000000000E+00  0.00000000000E+00  0.75700169892E+02  0.75700169892E+02  0.00000000000E+00 0. -1.
         21   -1    0    0  502  503 -0.00000000000E+00 -0.00000000000E+00 -0.89311329409E+03  0.89311329409E+03  0.00000000000E+00 0. -1.
          6    1    1    2  501    0 -0.26455434811E+02 -0.74396843430E+01 -0.50720348424E+02  0.18236445015E+03  0.17300000000E+03 0. -1.
         -6    1    1    2    0  503  0.26455434811E+02  0.74396843430E+01 -0.76669277577E+03  0.78644901383E+03  0.17300000000E+03 0. -1.
<mgrwt>
<rscale>  2 0.17516917E+03</rscale>
<asrwt>0</asrwt>
<pdfrwt beam="1">  1       21 0.11646180E-01 0.17516917E+03</pdfrwt>
<pdfrwt beam="2">  1       21 0.13740205E+00 0.17516917E+03</pdfrwt>
<totfact> 0.23511536E+04</totfact>
</mgrwt>
</event>
<event>
 4    3  0.4009700E+000  0.4436025E+03  0.7546771E-02  0.1029647E+00
         21   -1    0    0  501  502  0.00000000000E+00  0.00000000000E+00  0.37641555322E+03  0.37641555322E+03  0.00000000000E+00 0. -1.
         21   -1    0    0  502  503 -0.00000000000E+00 -0.00000000000E+00 -0.52315734392E+03  0.52315734392E+03  0.00000000000E+00 0.  1.
          6    1    1    2  501    0  0.43599414567E+02 -0.40614443591E+03 -0.85421343528E+02  0.45175216402E+03  0.17300000000E+03 0.  1.
         -6    1    1    2    0  503 -0.43599414567E+02  0.40614443591E+03 -0.61320447168E+02  0.44782073312E+03  0.17300000000E+03 0. -1.
<mgrwt>
<rscale>  2 0.44360254E+03</rscale>
<asrwt>0</asrwt>
<pdfrwt beam="1">  1       21 0.57910085E-01 0.44360254E+03</pdfrwt>
<pdfrwt beam="2">  1       21 0.80485745E-01 0.44360254E+03</pdfrwt>
<totfact> 0.33163424E+03</totfact>
</mgrwt>
</event>
<event>
 4    3  0.4009700E+000  0.2454987E+03  0.7546771E-02  0.1116183E+00
         21   -1    0    0  501  502  0.00000000000E+00  0.00000000000E+00  0.23241142190E+03  0.23241142190E+03  0.00000000000E+00 0.  1.
         21   -1    0    0  502  503 -0.00000000000E+00 -0.00000000000E+00 -0.30120725191E+03  0.30120725191E+03  0.00000000000E+00 0. -1.
          6    1    1    2  501    0  0.13875248026E+03 -0.10530124122E+03  0.65095479966E+02  0.25398232949E+03  0.17300000000E+03 0.  1.
         -6    1    1    2    0  503 -0.13875248026E+03  0.10530124122E+03 -0.13389130998E+03  0.27963634432E+03  0.17300000000E+03 0. -1.
<mgrwt>
<rscale>  2 0.24549868E+03</rscale>
<asrwt>0</asrwt>
<pdfrwt beam="1">  1       21 0.35755603E-01 0.24549868E+03</pdfrwt>
<pdfrwt beam="2">  1       21 0.46339577E-01 0.24549868E+03</pdfrwt>
<totfact> 0.32777880E+04</totfact>
</mgrwt>
</event>
<event>
 4    3  0.4009700E+000  0.2495194E+03  0.7546771E-02  0.1113609E+00
         21   -1    0    0  503  502  0.00000000000E+00  0.00000000000E+00  0.25928913829E+04  0.25928913829E+04  0.00000000000E+00 0.  1.
         21   -1    0    0  501  503 -0.00000000000E+00 -0.00000000000E+00 -0.24704211940E+02  0.24704211940E+02  0.00000000000E+00 0.  1.
          6    1    1    2  501    0  0.17382681707E+03 -0.45991231691E+02  0.10649779397E+04  0.10938180688E+04  0.17300000000E+03 0.  1.
         -6    1    1    2    0  502 -0.17382681707E+03  0.45991231691E+02  0.15032092313E+04  0.15237775260E+04  0.17300000000E+03 0.  1.
<mgrwt>
<rscale>  2 0.24951945E+03</rscale>
<asrwt>0</asrwt>
<pdfrwt beam="1">  1       21 0.39890615E+00 0.24951945E+03</pdfrwt>
<pdfrwt beam="2">  1       21 0.38006500E-02 0.24951945E+03</pdfrwt>
<totfact> 0.35235163E+03</totfact>
</mgrwt>
</event>
<event>
 4    3  0.4009700E+000  0.1991670E+03  0.7546771E-02  0.1150444E+00
         21   -1    0    0  501  502  0.00000000000E+00  0.00000000000E+00  0.21834885768E+03  0.21834885768E+03  0.00000000000E+00 0. -1.
         21   -1    0    0  502  503 -0.00000000000E+00 -0.00000000000E+00 -0.26673812447E+03  0.26673812447E+03  0.00000000000E+00 0.  1.
          6    1    1    2  501    0  0.94604635023E+02  0.28079383591E+02  0.11277676870E+03  0.22888007407E+03  0.17300000000E+03 0. -1.
         -6    1    1    2    0  503 -0.94604635023E+02 -0.28079383591E+02 -0.16116603549E+03  0.25620690808E+03  0.17300000000E+03 0. -1.
<mgrwt>
<rscale>  2 0.19916699E+03</rscale>
<asrwt>0</asrwt>
<pdfrwt beam="1">  1       21 0.33592132E-01 0.19916699E+03</pdfrwt>
<pdfrwt beam="2">  1       21 0.41036635E-01 0.19916699E+03</pdfrwt>
<totfact> 0.48664796E+04</totfact>
</mgrwt>
</event>
<event>
 4    3  0.4009700E+000  0.1995334E+03  0.7546771E-02  0.1150133E+00
         21   -1    0    0  503  502  0.00000000000E+00  0.00000000000E+00  0.10908327072E+04  0.10908327072E+04  0.00000000000E+00 0. -1.
         21   -1    0    0  501  503 -0.00000000000E+00 -0.00000000000E+00 -0.39557387723E+02  0.39557387723E+02  0.00000000000E+00 0.  1.
          6    1    1    2  501    0  0.20042489227E+02  0.97380114847E+02  0.36846487816E+03  0.41902261822E+03  0.17300000000E+03 0. -1.
         -6    1    1    2    0  502 -0.20042489227E+02 -0.97380114847E+02  0.68281044135E+03  0.71136747674E+03  0.17300000000E+03 0. -1.
<mgrwt>
<rscale>  2 0.19953343E+03</rscale>
<asrwt>0</asrwt>
<pdfrwt beam="1">  1       21 0.16782039E+00 0.19953343E+03</pdfrwt>
<pdfrwt beam="2">  1       21 0.60857528E-02 0.19953343E+03</pdfrwt>
<totfact> 0.42364859E+04</totfact>
</mgrwt>
</event>
<event>
 4    3  0.4009700E+000  0.1797644E+03  0.7546771E-02  0.1168031E+00
         21   -1    0    0  503  502  0.00000000000E+00  0.00000000000E+00  0.84813025911E+03  0.84813025911E+03  0.00000000000E+00 0.  1.
         21   -1    0    0  501  503 -0.00000000000E+00 -0.00000000000E+00 -0.39519759972E+02  0.39519759972E+02  0.00000000000E+00 0. -1.
          6    1    1    2  501    0 -0.17718248533E+02 -0.45522362738E+02  0.32023374393E+03  0.36723953027E+03  0.17300000000E+03 0.  1.
         -6    1    1    2    0  502  0.17718248533E+02  0.45522362738E+02  0.48837675521E+03  0.52041048881E+03  0.17300000000E+03 0.  1.
<mgrwt>
<rscale>  2 0.17976435E+03</rscale>
<asrwt>0</asrwt>
<pdfrwt beam="1">  1       21 0.13048156E+00 0.17976435E+03</pdfrwt>
<pdfrwt beam="2">  1       21 0.60799637E-02 0.17976435E+03</pdfrwt>
<totfact> 0.83048236E+04</totfact>
</mgrwt>
</event>
<event>
 4    3  0.4009700E+000  0.1945834E+03  0.7546771E-02  0.1154391E+00
         21   -1    0    0  501  502  0.00000000000E+00  0.00000000000E+00  0.51930607989E+03  0.51930607989E+03  0.00000000000E+00 0.  1.
         21   -1    0    0  502  503 -0.00000000000E+00 -0.00000000000E+00 -0.15296913004E+03  0.15296913004E+03  0.00000000000E+00 0.  1.
          6    1    1    2  501    0  0.81855755553E+02 -0.35118765343E+02  0.42634418150E+03  0.46864917955E+03  0.17300000000E+03 0.  1.
         -6    1    1    2    0  503 -0.81855755553E+02  0.35118765343E+02 -0.60007231654E+02  0.20362603038E+03  0.17300000000E+03 0.  1.
<mgrwt>
<rscale>  2 0.19458338E+03</rscale>
<asrwt>0</asrwt>
<pdfrwt beam="1">  1       21 0.79893242E-01 0.19458338E+03</pdfrwt>
<pdfrwt beam="2">  1       21 0.23533713E-01 0.19458338E+03</pdfrwt>
<totfact> 0.23416861E+04</totfact>
</mgrwt>
</event>
<event>
 4    3  0.4009700E+000  0.2330033E+03  0.7546771E-02  0.1124544E+00
         21   -1    0    0  501  502  0.00000000000E+00  0.00000000000E+00  0.82648739013E+03  0.82648739013E+03  0.00000000000E+00 0.  1.
         21   -1    0    0  502  503 -0.00000000000E+00 -0.00000000000E+00 -0.65698794095E+02  0.65698794095E+02  0.00000000000E+00 0.  1.
          6    1    1    2  501    0  0.15577888398E+03 -0.97192429152E+01  0.37474752243E+03  0.44127795089E+03  0.17300000000E+03 0.  1.
         -6    1    1    2    0  503 -0.15577888398E+03  0.97192429152E+01  0.38604107360E+03  0.45090823333E+03  0.17300000000E+03 0.  1.
<mgrwt>
<rscale>  2 0.23300327E+03</rscale>
<asrwt>0</asrwt>
<pdfrwt beam="1">  1       21 0.12715190E+00 0.23300327E+03</pdfrwt>
<pdfrwt beam="2">  1       21 0.10107507E-01 0.23300327E+03</pdfrwt>
<totfact> 0.35597781E+04</totfact>
</mgrwt>
</event>
<event>
 4    3  0.4009700E+000  0.2111421E+03  0.7546771E-02  0.1140665E+00
         21   -1    0    0  503  502  0.00000000000E+00  0.00000000000E+00  0.60800095840E+03  0.60800095840E+03  0.00000000000E+00 0.  1.
         21   -1    0    0  501  503 -0.00000000000E+00 -0.00000000000E+00 -0.73325495206E+02  0.73325495206E+02  0.00000000000E+00 0. -1.
          6    1    1    2  501    0  0.10193539251E+03  0.65277584210E+02  0.26893827851E+03  0.34191926663E+03  0.17300000000E+03 0. -1.
         -6    1    1    2    0  502 -0.10193539251E+03 -0.65277584210E+02  0.26573718469E+03  0.33940718698E+03  0.17300000000E+03 0.  1.
<mgrwt>
<rscale>  2 0.21114210E+03</rscale>
<asrwt>0</asrwt>
<pdfrwt beam="1">  1       21 0.93538606E-01 0.21114210E+03</pdfrwt>
<pdfrwt beam="2">  1       21 0.11280846E-01 0.21114210E+03</pdfrwt>
<totfact> 0.62387239E+04</totfact>
</mgrwt>
</event>
<event>
 4    3  0.4009700E+000  0.2569520E+03  0.7546771E-02  0.1108988E+00
         21   -1    0    0  503  502  0.00000000000E+00  0.00000000000E+00  0.80355843432E+03  0.80355843432E+03  0.00000000000E+00 0. -1.
         21   -1    0    0  501  503 -0.00000000000E+00 -0.00000000000E+00 -0.82195843302E+02  0.82195843302E+02  0.00000000000E+00 0. -1.
          6    1    1    2  501    0 -0.90424394514E+02 -0.16708911808E+03  0.35209632793E+03  0.43588549946E+03  0.17300000000E+03 0. -1.
         -6    1    1    2    0  502  0.90424394514E+02  0.16708911808E+03  0.36926626309E+03  0.44986877816E+03  0.17300000000E+03 0. -1.
<mgrwt>
<rscale>  2 0.25695203E+03</rscale>
<asrwt>0</asrwt>
<pdfrwt beam="1">  1       21 0.12362437E+00 0.25695203E+03</pdfrwt>
<pdfrwt beam="2">  1       21 0.12645515E-01 0.25695203E+03</pdfrwt>
<totfact> 0.25288281E+04</totfact>
</mgrwt>
</event>
<event>
 4    3  0.4009700E+000  0.2468571E+03  0.7546771E-02  0.1115307E+00
         21   -1    0    0  501  502  0.00000000000E+00  0.00000000000E+00  0.16418036008E+03  0.16418036008E+03  0.00000000000E+00 0. -1.
         21   -1    0    0  502  503 -0.00000000000E+00 -0.00000000000E+00 -0.67563069526E+03  0.67563069526E+03  0.00000000000E+00 0. -1.
          6    1    1    2  501    0  0.32915566410E+02 -0.17299124490E+03  0.26154884397E+02  0.24823876269E+03  0.17300000000E+03 0. -1.
         -6    1    1    2    0  503 -0.32915566410E+02  0.17299124490E+03 -0.53760521958E+03  0.59157229265E+03  0.17300000000E+03 0. -1.
<mgrwt>
<rscale>  2 0.24685705E+03</rscale>
<asrwt>0</asrwt>
<pdfrwt beam="1">  1       21 0.25258517E-01 0.24685705E+03</pdfrwt>
<pdfrwt beam="2">  1       21 0.10394318E+00 0.24685705E+03</pdfrwt>
<totfact> 0.10740070E+04</totfact>
</mgrwt>
</event>
<event>
 4    3  0.4009700E+000  0.2413600E+03  0.7546771E-02  0.1118890E+00
         21   -1    0    0  501  502  0.00000000000E+00  0.00000000000E+00  0.63783190597E+03  0.63783190597E+03  0.00000000000E+00 0.  1.
         21   -1    0    0  502  503 -0.00000000000E+00 -0.00000000000E+00 -0.10315481264E+03  0.10315481264E+03  0.00000000000E+00 0.  1.
          6    1    1    2  501    0  0.81888672007E+02 -0.14703704317E+03  0.39276548286E+03  0.46099823340E+03  0.17300000000E+03 0.  1.
         -6    1    1    2    0  503 -0.81888672007E+02  0.14703704317E+03  0.14191161047E+03  0.27998848521E+03  0.17300000000E+03 0.  1.
<mgrwt>
<rscale>  2 0.24135999E+03</rscale>
<asrwt>0</asrwt>
<pdfrwt beam="1">  1       21 0.98127983E-01 0.24135999E+03</pdfrwt>
<pdfrwt beam="2">  1       21 0.15869972E-01 0.24135999E+03</pdfrwt>
<totfact> 0.29607173E+04</totfact>
</mgrwt>
</event>
<event>
 4    3  0.4009700E+000  0.2056442E+03  0.7546771E-02  0.1145063E+00
         21   -1    0    0  501  502  0.00000000000E+00  0.00000000000E+00  0.22180268050E+03  0.22180268050E+03  0.00000000000E+00 0.  1.
         21   -1    0    0  502  503 -0.00000000000E+00 -0.00000000000E+00 -0.40212331859E+03  0.40212331859E+03  0.00000000000E+00 0. -1.
          6    1    1    2  501    0 -0.11000813234E+03 -0.16085313696E+02  0.13606336749E+03  0.24658216982E+03  0.17300000000E+03 0.  1.
         -6    1    1    2    0  503  0.11000813234E+03  0.16085313696E+02 -0.31638400558E+03  0.37734382927E+03  0.17300000000E+03 0. -1.
<mgrwt>
<rscale>  2 0.20564417E+03</rscale>
<asrwt>0</asrwt>
<pdfrwt beam="1">  1       21 0.34123489E-01 0.20564417E+03</pdfrwt>
<pdfrwt beam="2">  1       21 0.61865126E-01 0.20564417E+03</pdfrwt>
<totfact> 0.19918579E+04</totfact>
</mgrwt>
</event>
<event>
 4    3  0.4009700E+000  0.2104528E+03  0.7546771E-02  0.1141208E+00
         21   -1    0    0  503  502  0.00000000000E+00  0.00000000000E+00  0.13657503154E+04  0.13657503154E+04  0.00000000000E+00 0. -1.
         21   -1    0    0  501  503 -0.00000000000E+00 -0.00000000000E+00 -0.76349952990E+02  0.76349952990E+02  0.00000000000E+00 0. -1.
          6    1    1    2  501    0  0.11359341860E+03 -0.38182572254E+02  0.97816077983E+02  0.23207403708E+03  0.17300000000E+03 0. -1.
         -6    1    1    2    0  502 -0.11359341860E+03  0.38182572254E+02  0.11915842844E+04  0.12100262313E+04  0.17300000000E+03 0. -1.
<mgrwt>
<rscale>  2 0.21045278E+03</rscale>
<asrwt>0</asrwt>
<pdfrwt beam="1">  1       21 0.21011542E+00 0.21045278E+03</pdfrwt>
<pdfrwt beam="2">  1       21 0.11746148E-01 0.21045278E+03</pdfrwt>
<totfact> 0.69526550E+03</totfact>
</mgrwt>
</event>
<event>
 4    3  0.4009700E+000  0.2149139E+03  0.7546771E-02  0.1137733E+00
         21   -1    0    0  501  502  0.00000000000E+00  0.00000000000E+00  0.28664770356E+02  0.28664770356E+02  0.00000000000E+00 0. -1.
         21   -1    0    0  502  503 -0.00000000000E+00 -0.00000000000E+00 -0.17599634734E+04  0.17599634734E+04  0.00000000000E+00 0.  1.
          6    1    1    2  501    0  0.17700463195E+02 -0.12627612094E+03 -0.60574176080E+03  0.64273715148E+03  0.17300000000E+03 0.  1.
         -6    1    1    2    0  503 -0.17700463195E+02  0.12627612094E+03 -0.11255569423E+04  0.11458910923E+04  0.17300000000E+03 0.  1.
<mgrwt>
<rscale>  2 0.21491386E+03</rscale>
<asrwt>0</asrwt>
<pdfrwt beam="1">  1       21 0.44099628E-02 0.21491386E+03</pdfrwt>
<pdfrwt beam="2">  1       21 0.27076373E+00 0.21491386E+03</pdfrwt>
<totfact> 0.16399142E+04</totfact>
</mgrwt>
</event>
<event>
 4    3  0.4009700E+000  0.2077482E+03  0.7546771E-02  0.1143362E+00
         21   -1    0    0  503  502  0.00000000000E+00  0.00000000000E+00  0.48647150785E+02  0.48647150785E+02  0.00000000000E+00 0. -1.
         21   -1    0    0  501  503 -0.00000000000E+00 -0.00000000000E+00 -0.91233770649E+03  0.91233770649E+03  0.00000000000E+00 0. -1.
          6    1    1    2  501    0 -0.11372361043E+03 -0.17241446794E+02 -0.35207391028E+03  0.40879746252E+03  0.17300000000E+03 0. -1.
         -6    1    1    2    0  502  0.11372361043E+03  0.17241446794E+02 -0.51161664543E+03  0.55218739476E+03  0.17300000000E+03 0. -1.
<mgrwt>
<rscale>  2 0.20774823E+03</rscale>
<asrwt>0</asrwt>
<pdfrwt beam="1">  1       21 0.74841768E-02 0.20774823E+03</pdfrwt>
<pdfrwt beam="2">  1       21 0.14035965E+00 0.20774823E+03</pdfrwt>
<totfact> 0.47491871E+04</totfact>
</mgrwt>
</event>
<event>
 4    3  0.4009700E+000  0.1775027E+03  0.7546771E-02  0.1170242E+00
         21   -1    0    0  501  502  0.00000000000E+00  0.00000000000E+00  0.45645419329E+02  0.45645419329E+02  0.00000000000E+00 0.  1.
         21   -1    0    0  502  503 -0.00000000000E+00 -0.00000000000E+00 -0.22086823062E+04  0.22086823062E+04  0.00000000000E+00 0.  1.
          6    1    1    2  501    0 -0.11059527691E+02  0.38156331988E+02 -0.14693801575E+03  0.23043003124E+03  0.17300000000E+03 0.  1.
         -6    1    1    2    0  503  0.11059527691E+02 -0.38156331988E+02 -0.20160988711E+04  0.20238976943E+04  0.17300000000E+03 0.  1.
<mgrwt>
<rscale>  2 0.17750273E+03</rscale>
<asrwt>0</asrwt>
<pdfrwt beam="1">  1       21 0.70223705E-02 0.17750273E+03</pdfrwt>
<pdfrwt beam="2">  1       21 0.33979736E+00 0.17750273E+03</pdfrwt>
<totfact> 0.30833383E+03</totfact>
</mgrwt>
</event>
<event>
 4    3  0.4009700E+000  0.2009517E+03  0.7546771E-02  0.1148939E+00
         21   -1    0    0  503  502  0.00000000000E+00  0.00000000000E+00  0.46153943319E+02  0.46153943319E+02  0.00000000000E+00 0. -1.
         21   -1    0    0  501  503 -0.00000000000E+00 -0.00000000000E+00 -0.10806085026E+04  0.10806085026E+04  0.00000000000E+00 0. -1.
          6    1    1    2  501    0 -0.89358927592E+02 -0.49674676796E+02 -0.76301480795E+03  0.78903307193E+03  0.17300000000E+03 0. -1.
         -6    1    1    2    0  502  0.89358927592E+02  0.49674676796E+02 -0.27143975137E+03  0.33772937403E+03  0.17300000000E+03 0. -1.
<mgrwt>
<rscale>  2 0.20095171E+03</rscale>
<asrwt>0</asrwt>
<pdfrwt beam="1">  1       21 0.71006066E-02 0.20095171E+03</pdfrwt>
<pdfrwt beam="2">  1       21 0.16624746E+00 0.20095171E+03</pdfrwt>
<totfact> 0.33300441E+04</totfact>
</mgrwt>
</event>
<event>
 4    3  0.4009700E+000  0.3359195E+03  0.7546771E-02  0.1068547E+00
         21   -1    0    0  501  502  0.00000000000E+00  0.00000000000E+00  0.17959139739E+03  0.17959139739E+03  0.00000000000E+00 0.  1.
         21   -1    0    0  502  503 -0.00000000000E+00 -0.00000000000E+00 -0.76000465566E+03  0.76000465566E+03  0.00000000000E+00 0. -1.
          6    1    1    2  501    0 -0.63046620373E+01 -0.28787696019E+03 -0.48575816246E+03  0.59059536517E+03  0.17300000000E+03 0. -1.
         -6    1    1    2    0  503  0.63046620373E+01  0.28787696019E+03 -0.94655095816E+02  0.34900068788E+03  0.17300000000E+03 0. -1.
<mgrwt>
<rscale>  2 0.33591947E+03</rscale>
<asrwt>0</asrwt>
<pdfrwt beam="1">  1       21 0.27629446E-01 0.33591947E+03</pdfrwt>
<pdfrwt beam="2">  1       21 0.11692379E+00 0.33591947E+03</pdfrwt>
<totfact> 0.64685001E+03</totfact>
</mgrwt>
</event>
<event>
 4    3  0.4009700E+000  0.2512281E+03  0.7546771E-02  0.1112531E+00
         21   -1    0    0  503  502  0.00000000000E+00  0.00000000000E+00  0.72287859570E+02  0.72287859570E+02  0.00000000000E+00 0.  1.
         21   -1    0    0  501  503 -0.00000000000E+00 -0.00000000000E+00 -0.87826981301E+03  0.87826981301E+03  0.00000000000E+00 0. -1.
          6    1    1    2  501    0  0.10057690694E+03  0.15189091844E+03 -0.36657687333E+03  0.44440316085E+03  0.17300000000E+03 0.  1.
         -6    1    1    2    0  502 -0.10057690694E+03 -0.15189091844E+03 -0.43940508011E+03  0.50615451173E+03  0.17300000000E+03 0. -1.
<mgrwt>
<rscale>  2 0.25122811E+03</rscale>
<asrwt>0</asrwt>
<pdfrwt beam="1">  1       21 0.11121209E-01 0.25122811E+03</pdfrwt>
<pdfrwt beam="2">  1       21 0.13511843E+00 0.25122811E+03</pdfrwt>
<totfact> 0.25482868E+04</totfact>
</mgrwt>
</event>
<event>
 4    3  0.4009700E+000  0.1936395E+03  0.7546771E-02  0.1155219E+00
         21   -1    0    0  503  502  0.00000000000E+00  0.00000000000E+00  0.22123245048E+03  0.22123245048E+03  0.00000000000E+00 0. -1.
         21   -1    0    0  501  503 -0.00000000000E+00 -0.00000000000E+00 -0.11225233751E+04  0.11225233751E+04  0.00000000000E+00 0. -1.
          6    1    1    2  501    0 -0.42775930976E+02 -0.75746156514E+02 -0.10697260169E+04  0.10871108553E+04  0.17300000000E+03 0. -1.
         -6    1    1    2    0  502  0.42775930976E+02  0.75746156514E+02  0.16843509223E+03  0.25664497033E+03  0.17300000000E+03 0. -1.
<mgrwt>
<rscale>  2 0.19363951E+03</rscale>
<asrwt>0</asrwt>
<pdfrwt beam="1">  1       21 0.34035762E-01 0.19363951E+03</pdfrwt>
<pdfrwt beam="2">  1       21 0.17269590E+00 0.19363951E+03</pdfrwt>
<totfact> 0.16977169E+03</totfact>
</mgrwt>
</event>
<event>
 4    3  0.4009700E+000  0.1817503E+03  0.7546771E-02  0.1166120E+00
         21   -1    0    0  503  502  0.00000000000E+00  0.00000000000E+00  0.15269569005E+03  0.15269569005E+03  0.00000000000E+00 0. -1.
         21   -1    0    0  501  503 -0.00000000000E+00 -0.00000000000E+00 -0.26200039101E+03  0.26200039101E+03  0.00000000000E+00 0. -1.
          6    1    1    2  501    0 -0.51800543399E+02  0.20515299469E+02 -0.14121893612E+03  0.23016507495E+03  0.17300000000E+03 0. -1.
         -6    1    1    2    0  502  0.51800543399E+02 -0.20515299469E+02  0.31914235165E+02  0.18453100611E+03  0.17300000000E+03 0. -1.
<mgrwt>
<rscale>  2 0.18175031E+03</rscale>
<asrwt>0</asrwt>
<pdfrwt beam="1">  1       21 0.23491645E-01 0.18175031E+03</pdfrwt>
<pdfrwt beam="2">  1       21 0.40307752E-01 0.18175031E+03</pdfrwt>
<totfact> 0.10154097E+05</totfact>
</mgrwt>
</event>
<event>
 4    3  0.4009700E+000  0.2022900E+03  0.7546771E-02  0.1147821E+00
         21   -1    0    0  503  502  0.00000000000E+00  0.00000000000E+00  0.10711331383E+03  0.10711331383E+03  0.00000000000E+00 0. -1.
         21   -1    0    0  501  503 -0.00000000000E+00 -0.00000000000E+00 -0.40792279398E+03  0.40792279398E+03  0.00000000000E+00 0. -1.
          6    1    1    2  501    0 -0.10037290335E+02 -0.10436233399E+03 -0.85533852339E+02  0.21962987923E+03  0.17300000000E+03 0. -1.
         -6    1    1    2    0  502  0.10037290335E+02  0.10436233399E+03 -0.21527562781E+03  0.29540622858E+03  0.17300000000E+03 0. -1.
<mgrwt>
<rscale>  2 0.20229000E+03</rscale>
<asrwt>0</asrwt>
<pdfrwt beam="1">  1       21 0.16478972E-01 0.20229000E+03</pdfrwt>
<pdfrwt beam="2">  1       21 0.62757352E-01 0.20229000E+03</pdfrwt>
<totfact> 0.77366360E+04</totfact>
</mgrwt>
</event>
<event>
 4    3  0.4009700E+000  0.2126436E+03  0.7546771E-02  0.1139489E+00
         21   -1    0    0  503  502  0.00000000000E+00  0.00000000000E+00  0.11606168333E+03  0.11606168333E+03  0.00000000000E+00 0.  1.
         21   -1    0    0  501  503 -0.00000000000E+00 -0.00000000000E+00 -0.62895309554E+03  0.62895309554E+03  0.00000000000E+00 0. -1.
          6    1    1    2  501    0 -0.11255378495E+03  0.51185333537E+02 -0.48624460138E+03  0.53070811681E+03  0.17300000000E+03 0. -1.
         -6    1    1    2    0  502  0.11255378495E+03 -0.51185333537E+02 -0.26646810832E+02  0.21430666206E+03  0.17300000000E+03 0.  1.
<mgrwt>
<rscale>  2 0.21264358E+03</rscale>
<asrwt>0</asrwt>
<pdfrwt beam="1">  1       21 0.17855644E-01 0.21264358E+03</pdfrwt>
<pdfrwt beam="2">  1       21 0.96762013E-01 0.21264358E+03</pdfrwt>
<totfact> 0.24990938E+04</totfact>
</mgrwt>
</event>
<event>
 4    3  0.4009700E+000  0.1742485E+03  0.7546771E-02  0.1173488E+00
         21   -1    0    0  503  502  0.00000000000E+00  0.00000000000E+00  0.90128592647E+03  0.90128592647E+03  0.00000000000E+00 0. -1.
         21   -1    0    0  501  503 -0.00000000000E+00 -0.00000000000E+00 -0.39001315091E+02  0.39001315091E+02  0.00000000000E+00 0. -1.
          6    1    1    2  501    0  0.13849208588E+02  0.15548510000E+02  0.25761330939E+03  0.31100992575E+03  0.17300000000E+03 0. -1.
         -6    1    1    2    0  502 -0.13849208588E+02 -0.15548510000E+02  0.60467130199E+03  0.62927731581E+03  0.17300000000E+03 0. -1.
<mgrwt>
<rscale>  2 0.17424855E+03</rscale>
<asrwt>0</asrwt>
<pdfrwt beam="1">  1       21 0.13865936E+00 0.17424855E+03</pdfrwt>
<pdfrwt beam="2">  1       21 0.60002030E-02 0.17424855E+03</pdfrwt>
<totfact> 0.72999218E+04</totfact>
</mgrwt>
</event>
<event>
 4    3  0.4009700E+000  0.1778462E+03  0.7546771E-02  0.1169904E+00
         21   -1    0    0  501  502  0.00000000000E+00  0.00000000000E+00  0.48266742789E+03  0.48266742789E+03  0.00000000000E+00 0. -1.
         21   -1    0    0  502  503 -0.00000000000E+00 -0.00000000000E+00 -0.11505330958E+03  0.11505330958E+03  0.00000000000E+00 0.  1.
          6    1    1    2  501    0 -0.38490591055E+02  0.14790623471E+02  0.37988230494E+03  0.41945184914E+03  0.17300000000E+03 0. -1.
         -6    1    1    2    0  503  0.38490591055E+02 -0.14790623471E+02 -0.12268186634E+02  0.17826888833E+03  0.17300000000E+03 0.  1.
<mgrwt>
<rscale>  2 0.17784625E+03</rscale>
<asrwt>0</asrwt>
<pdfrwt beam="1">  1       21 0.74256526E-01 0.17784625E+03</pdfrwt>
<pdfrwt beam="2">  1       21 0.17700509E-01 0.17784625E+03</pdfrwt>
<totfact> 0.47420921E+04</totfact>
</mgrwt>
</event>
<event>
 4    3  0.4009700E+000  0.1915130E+03  0.7546771E-02  0.1157104E+00
         21   -1    0    0  501  502  0.00000000000E+00  0.00000000000E+00  0.68798573265E+02  0.68798573265E+02  0.00000000000E+00 0.  1.
         21   -1    0    0  502  503 -0.00000000000E+00 -0.00000000000E+00 -0.59045376487E+03  0.59045376487E+03  0.00000000000E+00 0.  1.
          6    1    1    2  501    0  0.95084878947E+01  0.81595375750E+02 -0.36355145456E+03  0.41090981590E+03  0.17300000000E+03 0.  1.
         -6    1    1    2    0  503 -0.95084878947E+01 -0.81595375750E+02 -0.15810373705E+03  0.24834252224E+03  0.17300000000E+03 0.  1.
<mgrwt>
<rscale>  2 0.19151297E+03</rscale>
<asrwt>0</asrwt>
<pdfrwt beam="1">  1       21 0.10584396E-01 0.19151297E+03</pdfrwt>
<pdfrwt beam="2">  1       21 0.90839039E-01 0.19151297E+03</pdfrwt>
<totfact> 0.75497270E+04</totfact>
</mgrwt>
</event>
<event>
 4    3  0.4009700E+000  0.1741236E+03  0.7546771E-02  0.1173615E+00
         21   -1    0    0  501  502  0.00000000000E+00  0.00000000000E+00  0.81923015717E+03  0.81923015717E+03  0.00000000000E+00 0.  1.
         21   -1    0    0  502  503 -0.00000000000E+00 -0.00000000000E+00 -0.55289772062E+02  0.55289772062E+02  0.00000000000E+00 0.  1.
          6    1    1    2  501    0  0.19594505649E+02 -0.24661375239E+01  0.63339758261E+03  0.65689536773E+03  0.17300000000E+03 0. -1.
         -6    1    1    2    0  503 -0.19594505649E+02  0.24661375239E+01  0.13054280250E+03  0.21762456150E+03  0.17300000000E+03 0. -1.
<mgrwt>
<rscale>  2 0.17412360E+03</rscale>
<asrwt>0</asrwt>
<pdfrwt beam="1">  1       21 0.12603540E+00 0.17412360E+03</pdfrwt>
<pdfrwt beam="2">  1       21 0.85061194E-02 0.17412360E+03</pdfrwt>
<totfact> 0.50882777E+04</totfact>
</mgrwt>
</event>
<event>
 4    3  0.4009700E+000  0.1963421E+03  0.7546771E-02  0.1152862E+00
         21   -1    0    0  501  502  0.00000000000E+00  0.00000000000E+00  0.12183535312E+04  0.12183535312E+04  0.00000000000E+00 0.  1.
         21   -1    0    0  502  503 -0.00000000000E+00 -0.00000000000E+00 -0.50408851053E+02  0.50408851053E+02  0.00000000000E+00 0.  1.
          6    1    1    2  501    0  0.83660117882E+02  0.40276489802E+02  0.97105297822E+03  0.99070383943E+03  0.17300000000E+03 0.  1.
         -6    1    1    2    0  503 -0.83660117882E+02 -0.40276489802E+02  0.19689170197E+03  0.27805854286E+03  0.17300000000E+03 0.  1.
<mgrwt>
<rscale>  2 0.19634208E+03</rscale>
<asrwt>0</asrwt>
<pdfrwt beam="1">  1       21 0.18743898E+00 0.19634208E+03</pdfrwt>
<pdfrwt beam="2">  1       21 0.77552088E-02 0.19634208E+03</pdfrwt>
<totfact> 0.20486348E+04</totfact>
</mgrwt>
</event>
<event>
 4    3  0.4009700E+000  0.2089028E+03  0.7546771E-02  0.1142438E+00
         21   -1    0    0  501  502  0.00000000000E+00  0.00000000000E+00  0.67065580436E+03  0.67065580436E+03  0.00000000000E+00 0.  1.
         21   -1    0    0  502  503 -0.00000000000E+00 -0.00000000000E+00 -0.74239758063E+02  0.74239758063E+02  0.00000000000E+00 0. -1.
          6    1    1    2  501    0 -0.90150663323E+02 -0.74727739311E+02  0.42909537092E+03  0.47724544468E+03  0.17300000000E+03 0.  1.
         -6    1    1    2    0  503  0.90150663323E+02  0.74727739311E+02  0.16732067538E+03  0.26765011774E+03  0.17300000000E+03 0. -1.
<mgrwt>
<rscale>  2 0.20890279E+03</rscale>
<asrwt>0</asrwt>
<pdfrwt beam="1">  1       21 0.10317781E+00 0.20890279E+03</pdfrwt>
<pdfrwt beam="2">  1       21 0.11421502E-01 0.20890279E+03</pdfrwt>
<totfact> 0.48428538E+04</totfact>
</mgrwt>
</event>
<event>
 4    3  0.4009700E+000  0.1769023E+03  0.7546771E-02  0.1170835E+00
         21   -1    0    0  501  502  0.00000000000E+00  0.00000000000E+00  0.13197565248E+03  0.13197565248E+03  0.00000000000E+00 0.  1.
         21   -1    0    0  502  503 -0.00000000000E+00 -0.00000000000E+00 -0.26915778667E+03  0.26915778667E+03  0.00000000000E+00 0.  1.
          6    1    1    2  501    0 -0.15396502021E+02  0.33590979766E+02 -0.13778519094E+03  0.22423016086E+03  0.17300000000E+03 0.  1.
         -6    1    1    2    0  503  0.15396502021E+02 -0.33590979766E+02  0.60305674850E+00  0.17690327830E+03  0.17300000000E+03 0.  1.
<mgrwt>
<rscale>  2 0.17690225E+03</rscale>
<asrwt>0</asrwt>
<pdfrwt beam="1">  1       21 0.20303947E-01 0.17690225E+03</pdfrwt>
<pdfrwt beam="2">  1       21 0.41408889E-01 0.17690225E+03</pdfrwt>
<totfact> 0.12671382E+05</totfact>
</mgrwt>
</event>
<event>
 4    3  0.4009700E+000  0.2000902E+03  0.7546771E-02  0.1149663E+00
         21   -1    0    0  501  502  0.00000000000E+00  0.00000000000E+00  0.10366068384E+04  0.10366068384E+04  0.00000000000E+00 0. -1.
         21   -1    0    0  502  503 -0.00000000000E+00 -0.00000000000E+00 -0.42306343997E+02  0.42306343997E+02  0.00000000000E+00 0. -1.
          6    1    1    2  501    0 -0.92464329713E+02  0.39464390058E+02  0.65634142633E+03  0.68616336121E+03  0.17300000000E+03 0.  1.
         -6    1    1    2    0  503  0.92464329713E+02 -0.39464390058E+02  0.33795906811E+03  0.39274982122E+03  0.17300000000E+03 0.  1.
<mgrwt>
<rscale>  2 0.20009021E+03</rscale>
<asrwt>0</asrwt>
<pdfrwt beam="1">  1       21 0.15947796E+00 0.20009021E+03</pdfrwt>
<pdfrwt beam="2">  1       21 0.65086691E-02 0.20009021E+03</pdfrwt>
<totfact> 0.43348944E+04</totfact>
</mgrwt>
</event>
<event>
 4    3  0.4009700E+000  0.1762013E+03  0.7546771E-02  0.1171531E+00
         21   -1    0    0  503  502  0.00000000000E+00  0.00000000000E+00  0.32460640274E+02  0.32460640274E+02  0.00000000000E+00 0.  1.
         21   -1    0    0  501  503 -0.00000000000E+00 -0.00000000000E+00 -0.12843959123E+04  0.12843959123E+04  0.00000000000E+00 0.  1.
          6    1    1    2  501    0 -0.17143123915E+02 -0.28705397088E+02 -0.95867469972E+03  0.97473281795E+03  0.17300000000E+03 0. -1.
         -6    1    1    2    0  502  0.17143123915E+02  0.28705397088E+02 -0.29326057232E+03  0.34212373463E+03  0.17300000000E+03 0. -1.
<mgrwt>
<rscale>  2 0.17620127E+03</rscale>
<asrwt>0</asrwt>
<pdfrwt beam="1">  1       21 0.49939452E-02 0.17620127E+03</pdfrwt>
<pdfrwt beam="2">  1       21 0.19759935E+00 0.17620127E+03</pdfrwt>
<totfact> 0.37933018E+04</totfact>
</mgrwt>
</event>
<event>
 4    3  0.4009700E+000  0.1802781E+03  0.7546771E-02  0.1167534E+00
         21   -1    0    0  503  502  0.00000000000E+00  0.00000000000E+00  0.32948158203E+03  0.32948158203E+03  0.00000000000E+00 0. -1.
         21   -1    0    0  501  503 -0.00000000000E+00 -0.00000000000E+00 -0.99985802674E+02  0.99985802674E+02  0.00000000000E+00 0.  1.
          6    1    1    2  501    0 -0.31508118248E+02  0.39729521339E+02  0.89838877144E+02  0.20142298833E+03  0.17300000000E+03 0. -1.
         -6    1    1    2    0  502  0.31508118248E+02 -0.39729521339E+02  0.13965690221E+03  0.22804439637E+03  0.17300000000E+03 0.  1.
<mgrwt>
<rscale>  2 0.18027811E+03</rscale>
<asrwt>0</asrwt>
<pdfrwt beam="1">  1       21 0.50689474E-01 0.18027811E+03</pdfrwt>
<pdfrwt beam="2">  1       21 0.15382431E-01 0.18027811E+03</pdfrwt>
<totfact> 0.13932584E+05</totfact>
</mgrwt>
</event>
<event>
 4    3  0.4009700E+000  0.1834727E+03  0.7546771E-02  0.1164484E+00
         21   -1    0    0  501  502  0.00000000000E+00  0.00000000000E+00  0.28287156777E+03  0.28287156777E+03  0.00000000000E+00 0.  1.
         21   -1    0    0  502  503 -0.00000000000E+00 -0.00000000000E+00 -0.20249611796E+03  0.20249611796E+03  0.00000000000E+00 0.  1.
          6    1    1    2  501    0 -0.37795128834E+00  0.61098921890E+02  0.19602129334E+03  0.26848941981E+03  0.17300000000E+03 0.  1.
         -6    1    1    2    0  503  0.37795128834E+00 -0.61098921890E+02 -0.11564584353E+03  0.21687826592E+03  0.17300000000E+03 0.  1.
<mgrwt>
<rscale>  2 0.18347267E+03</rscale>
<asrwt>0</asrwt>
<pdfrwt beam="1">  1       21 0.43518702E-01 0.18347267E+03</pdfrwt>
<pdfrwt beam="2">  1       21 0.31153249E-01 0.18347267E+03</pdfrwt>
<totfact> 0.50454715E+04</totfact>
</mgrwt>
</event>
<event>
 4    3  0.4009700E+000  0.2474713E+03  0.7546771E-02  0.1114913E+00
         21   -1    0    0  503  502  0.00000000000E+00  0.00000000000E+00  0.36058022454E+03  0.36058022454E+03  0.00000000000E+00 0.  1.
         21   -1    0    0  501  503 -0.00000000000E+00 -0.00000000000E+00 -0.17028542133E+03  0.17028542133E+03  0.00000000000E+00 0. -1.
          6    1    1    2  501    0 -0.98102229083E+02  0.14727187472E+03  0.10867589398E+03  0.27028226425E+03  0.17300000000E+03 0. -1.
         -6    1    1    2    0  502  0.98102229083E+02 -0.14727187472E+03  0.81618909233E+02  0.26058338162E+03  0.17300000000E+03 0. -1.
<mgrwt>
<rscale>  2 0.24747132E+03</rscale>
<asrwt>0</asrwt>
<pdfrwt beam="1">  1       21 0.55473881E-01 0.24747132E+03</pdfrwt>
<pdfrwt beam="2">  1       21 0.26197757E-01 0.24747132E+03</pdfrwt>
<totfact> 0.41343718E+04</totfact>
</mgrwt>
</event>
<event>
 4    3  0.4009700E+000  0.2036371E+03  0.7546771E-02  0.1146706E+00
         21   -1    0    0  503  502  0.00000000000E+00  0.00000000000E+00  0.18389744949E+03  0.18389744949E+03  0.00000000000E+00 0. -1.
         21   -1    0    0  501  503 -0.00000000000E+00 -0.00000000000E+00 -0.23401374311E+03  0.23401374311E+03  0.00000000000E+00 0. -1.
          6    1    1    2  501    0  0.82203696966E+02 -0.69149331956E+02 -0.64924278871E+02  0.21373637943E+03  0.17300000000E+03 0. -1.
         -6    1    1    2    0  502 -0.82203696966E+02  0.69149331956E+02  0.14807985258E+02  0.20417481317E+03  0.17300000000E+03 0. -1.
<mgrwt>
<rscale>  2 0.20363712E+03</rscale>
<asrwt>0</asrwt>
<pdfrwt beam="1">  1       21 0.28291915E-01 0.20363712E+03</pdfrwt>
<pdfrwt beam="2">  1       21 0.36002114E-01 0.20363712E+03</pdfrwt>
<totfact> 0.88436085E+04</totfact>
</mgrwt>
</event>
<event>
 4    3  0.4009700E+000  0.1876202E+03  0.7546771E-02  0.1160625E+00
         21   -1    0    0  503  502  0.00000000000E+00  0.00000000000E+00  0.34971856938E+03  0.34971856938E+03  0.00000000000E+00 0.  1.
         21   -1    0    0  501  503 -0.00000000000E+00 -0.00000000000E+00 -0.10157278666E+03  0.10157278666E+03  0.00000000000E+00 0.  1.
          6    1    1    2  501    0 -0.23901976501E+02 -0.68564226174E+02  0.14550745848E+03  0.23743162819E+03  0.17300000000E+03 0.  1.
         -6    1    1    2    0  502  0.23901976501E+02  0.68564226174E+02  0.10263832424E+03  0.21385972785E+03  0.17300000000E+03 0.  1.
<mgrwt>
<rscale>  2 0.18762025E+03</rscale>
<asrwt>0</asrwt>
<pdfrwt beam="1">  1       21 0.53802856E-01 0.18762025E+03</pdfrwt>
<pdfrwt beam="2">  1       21 0.15626583E-01 0.18762025E+03</pdfrwt>
<totfact> 0.11917658E+05</totfact>
</mgrwt>
</event>
<event>
 4    3  0.4009700E+000  0.2003841E+03  0.7546771E-02  0.1149415E+00
         21   -1    0    0  503  502  0.00000000000E+00  0.00000000000E+00  0.15716446641E+03  0.15716446641E+03  0.00000000000E+00 0. -1.
         21   -1    0    0  501  503 -0.00000000000E+00 -0.00000000000E+00 -0.30029229685E+03  0.30029229685E+03  0.00000000000E+00 0. -1.
          6    1    1    2  501    0  0.45498963768E+02  0.90302988591E+02 -0.15991322492E+03  0.25637087384E+03  0.17300000000E+03 0. -1.
         -6    1    1    2    0  502 -0.45498963768E+02 -0.90302988591E+02  0.16785394477E+02  0.20108588941E+03  0.17300000000E+03 0. -1.
<mgrwt>
<rscale>  2 0.20038409E+03</rscale>
<asrwt>0</asrwt>
<pdfrwt beam="1">  1       21 0.24179149E-01 0.20038409E+03</pdfrwt>
<pdfrwt beam="2">  1       21 0.46198815E-01 0.20038409E+03</pdfrwt>
<totfact> 0.72214599E+04</totfact>
</mgrwt>
</event>
<event>
 4    3  0.4009700E+000  0.1912168E+03  0.7546771E-02  0.1157368E+00
         21   -1    0    0  501  502  0.00000000000E+00  0.00000000000E+00  0.17834510001E+03  0.17834510001E+03  0.00000000000E+00 0. -1.
         21   -1    0    0  502  503 -0.00000000000E+00 -0.00000000000E+00 -0.11004058638E+04  0.11004058638E+04  0.00000000000E+00 0. -1.
          6    1    1    2  501    0  0.33222099833E+02 -0.74371638387E+02  0.11571653019E+03  0.22350428155E+03  0.17300000000E+03 0. -1.
         -6    1    1    2    0  503 -0.33222099833E+02  0.74371638387E+02 -0.10377772940E+04  0.10552466822E+04  0.17300000000E+03 0. -1.
<mgrwt>
<rscale>  2 0.19121676E+03</rscale>
<asrwt>0</asrwt>
<pdfrwt beam="1">  1       21 0.27437708E-01 0.19121676E+03</pdfrwt>
<pdfrwt beam="2">  1       21 0.16929321E+00 0.19121676E+03</pdfrwt>
<totfact> 0.27385945E+03</totfact>
</mgrwt>
</event>
<event>
 4    3  0.4009700E+000  0.1921730E+03  0.7546771E-02  0.1156516E+00
         21   -1    0    0  503  502  0.00000000000E+00  0.00000000000E+00  0.37765082611E+03  0.37765082611E+03  0.00000000000E+00 0. -1.
         21   -1    0    0  501  503 -0.00000000000E+00 -0.00000000000E+00 -0.10210185607E+03  0.10210185607E+03  0.00000000000E+00 0. -1.
          6    1    1    2  501    0 -0.64247836609E+02 -0.53606596101E+02  0.88479159004E+02  0.21156326059E+03  0.17300000000E+03 0. -1.
         -6    1    1    2    0  502  0.64247836609E+02  0.53606596101E+02  0.18706981103E+03  0.26818942159E+03  0.17300000000E+03 0. -1.
<mgrwt>
<rscale>  2 0.19217297E+03</rscale>
<asrwt>0</asrwt>
<pdfrwt beam="1">  1       21 0.58100127E-01 0.19217297E+03</pdfrwt>
<pdfrwt beam="2">  1       21 0.15707978E-01 0.19217297E+03</pdfrwt>
<totfact> 0.10013636E+05</totfact>
</mgrwt>
</event>
<event>
 4    3  0.4009700E+000  0.1991907E+03  0.7546771E-02  0.1150424E+00
         21   -1    0    0  501  502  0.00000000000E+00  0.00000000000E+00  0.55618946343E+03  0.55618946343E+03  0.00000000000E+00 0.  1.
         21   -1    0    0  502  503 -0.00000000000E+00 -0.00000000000E+00 -0.79369218653E+02  0.79369218653E+02  0.00000000000E+00 0. -1.
          6    1    1    2  501    0  0.78625552447E+02  0.59715569405E+02  0.33950181646E+03  0.39362216669E+03  0.17300000000E+03 0.  1.
         -6    1    1    2    0  503 -0.78625552447E+02 -0.59715569405E+02  0.13731842831E+03  0.24193651540E+03  0.17300000000E+03 0. -1.
<mgrwt>
<rscale>  2 0.19919068E+03</rscale>
<asrwt>0</asrwt>
<pdfrwt beam="1">  1       21 0.85567607E-01 0.19919068E+03</pdfrwt>
<pdfrwt beam="2">  1       21 0.12210649E-01 0.19919068E+03</pdfrwt>
<totfact> 0.66923291E+04</totfact>
</mgrwt>
</event>
<event>
 4    3  0.4009700E+000  0.1868940E+03  0.7546771E-02  0.1161293E+00
         21   -1    0    0  503  502  0.00000000000E+00  0.00000000000E+00  0.33733675547E+02  0.33733675547E+02  0.00000000000E+00 0.  1.
         21   -1    0    0  501  503 -0.00000000000E+00 -0.00000000000E+00 -0.20229177196E+04  0.20229177196E+04  0.00000000000E+00 0.  1.
          6    1    1    2  501    0 -0.45167794262E+02 -0.54408076758E+02 -0.17130545377E+04  0.17232194340E+04  0.17300000000E+03 0.  1.
         -6    1    1    2    0  502  0.45167794262E+02  0.54408076758E+02 -0.27612950631E+03  0.33343196114E+03  0.17300000000E+03 0.  1.
<mgrwt>
<rscale>  2 0.18689400E+03</rscale>
<asrwt>0</asrwt>
<pdfrwt beam="1">  1       21 0.51897970E-02 0.18689400E+03</pdfrwt>
<pdfrwt beam="2">  1       21 0.31121807E+00 0.18689400E+03</pdfrwt>
<totfact> 0.74773862E+03</totfact>
</mgrwt>
</event>
<event>
 4    3  0.4009700E+000  0.2057510E+03  0.7546771E-02  0.1144976E+00
         21   -1    0    0  503  502  0.00000000000E+00  0.00000000000E+00  0.24803924462E+03  0.24803924462E+03  0.00000000000E+00 0. -1.
         21   -1    0    0  501  503 -0.00000000000E+00 -0.00000000000E+00 -0.20743498457E+03  0.20743498457E+03  0.00000000000E+00 0. -1.
          6    1    1    2  501    0  0.78181993830E+02 -0.79322431282E+02 -0.75570662156E+02  0.21919032196E+03  0.17300000000E+03 0. -1.
         -6    1    1    2    0  502 -0.78181993830E+02  0.79322431282E+02  0.11617492220E+03  0.23628390722E+03  0.17300000000E+03 0. -1.
<mgrwt>
<rscale>  2 0.20575100E+03</rscale>
<asrwt>0</asrwt>
<pdfrwt beam="1">  1       21 0.38159884E-01 0.20575100E+03</pdfrwt>
<pdfrwt beam="2">  1       21 0.31913074E-01 0.20575100E+03</pdfrwt>
<totfact> 0.62159085E+04</totfact>
</mgrwt>
</event>
<event>
 4    3  0.4009700E+000  0.2542503E+03  0.7546771E-02  0.1110648E+00
         21   -1    0    0  501  502  0.00000000000E+00  0.00000000000E+00  0.50738255011E+03  0.50738255011E+03  0.00000000000E+00 0. -1.
         21   -1    0    0  502  503 -0.00000000000E+00 -0.00000000000E+00 -0.22654245522E+03  0.22654245522E+03  0.00000000000E+00 0.  1.
          6    1    1    2  501    0  0.13896920550E+03  0.12410379551E+03  0.38317341314E+03  0.45985329908E+03  0.17300000000E+03 0. -1.
         -6    1    1    2    0  503 -0.13896920550E+03 -0.12410379551E+03 -0.10233331826E+03  0.27407170625E+03  0.17300000000E+03 0.  1.
<mgrwt>
<rscale>  2 0.25425025E+03</rscale>
<asrwt>0</asrwt>
<pdfrwt beam="1">  1       21 0.78058854E-01 0.25425025E+03</pdfrwt>
<pdfrwt beam="2">  1       21 0.34852685E-01 0.25425025E+03</pdfrwt>
<totfact> 0.11110491E+04</totfact>
</mgrwt>
</event>
<event>
 4    3  0.4009700E+000  0.2400789E+03  0.7546771E-02  0.1119740E+00
         21   -1    0    0  501  502  0.00000000000E+00  0.00000000000E+00  0.12816487329E+04  0.12816487329E+04  0.00000000000E+00 0. -1.
         21   -1    0    0  502  503 -0.00000000000E+00 -0.00000000000E+00 -0.11123826764E+03  0.11123826764E+03  0.00000000000E+00 0. -1.
          6    1    1    2  501    0 -0.15887477037E+03  0.49676002670E+02  0.11227394089E+04  0.11481209336E+04  0.17300000000E+03 0. -1.
         -6    1    1    2    0  503  0.15887477037E+03 -0.49676002670E+02  0.47671056356E+02  0.24476606692E+03  0.17300000000E+03 0. -1.
<mgrwt>
<rscale>  2 0.24007894E+03</rscale>
<asrwt>0</asrwt>
<pdfrwt beam="1">  1       21 0.19717672E+00 0.24007894E+03</pdfrwt>
<pdfrwt beam="2">  1       21 0.17113580E-01 0.24007894E+03</pdfrwt>
<totfact> 0.41415253E+03</totfact>
</mgrwt>
</event>
<event>
 4    3  0.4009700E+000  0.2017299E+03  0.7546771E-02  0.1148288E+00
         21   -1    0    0  501  502  0.00000000000E+00  0.00000000000E+00  0.27251987659E+03  0.27251987659E+03  0.00000000000E+00 0.  1.
         21   -1    0    0  502  503 -0.00000000000E+00 -0.00000000000E+00 -0.16848138989E+03  0.16848138989E+03  0.00000000000E+00 0.  1.
          6    1    1    2  501    0  0.36142884927E+02 -0.97260806571E+02 -0.22325714262E+02  0.20296159771E+03  0.17300000000E+03 0.  1.
         -6    1    1    2    0  503 -0.36142884927E+02  0.97260806571E+02  0.12636420096E+03  0.23803966877E+03  0.17300000000E+03 0.  1.
<mgrwt>
<rscale>  2 0.20172995E+03</rscale>
<asrwt>0</asrwt>
<pdfrwt beam="1">  1       21 0.41926135E-01 0.20172995E+03</pdfrwt>
<pdfrwt beam="2">  1       21 0.25920214E-01 0.20172995E+03</pdfrwt>
<totfact> 0.77094801E+04</totfact>
</mgrwt>
</event>
<event>
 4    3  0.4009700E+000  0.1785717E+03  0.7546771E-02  0.1169193E+00
         21   -1    0    0  503  502  0.00000000000E+00  0.00000000000E+00  0.28013358687E+03  0.28013358687E+03  0.00000000000E+00 0.  1.
         21   -1    0    0  501  503 -0.00000000000E+00 -0.00000000000E+00 -0.11693918295E+03  0.11693918295E+03  0.00000000000E+00 0.  1.
          6    1    1    2  501    0  0.21616417953E+02  0.38620942008E+02  0.49228651232E+02  0.18523311472E+03  0.17300000000E+03 0.  1.
         -6    1    1    2    0  502 -0.21616417953E+02 -0.38620942008E+02  0.11396575269E+03  0.21183965510E+03  0.17300000000E+03 0.  1.
<mgrwt>
<rscale>  2 0.17857169E+03</rscale>
<asrwt>0</asrwt>
<pdfrwt beam="1">  1       21 0.43097475E-01 0.17857169E+03</pdfrwt>
<pdfrwt beam="2">  1       21 0.17990644E-01 0.17857169E+03</pdfrwt>
<totfact> 0.14615561E+05</totfact>
</mgrwt>
</event>
<event>
 4    3  0.4009700E+000  0.1755315E+03  0.7546771E-02  0.1172199E+00
         21   -1    0    0  503  502  0.00000000000E+00  0.00000000000E+00  0.14248930578E+03  0.14248930578E+03  0.00000000000E+00 0. -1.
         21   -1    0    0  501  503 -0.00000000000E+00 -0.00000000000E+00 -0.44521682147E+03  0.44521682147E+03  0.00000000000E+00 0. -1.
          6    1    1    2  501    0  0.29220367766E+02  0.53352629427E+01 -0.36210238448E+03  0.40240456231E+03  0.17300000000E+03 0. -1.
         -6    1    1    2    0  502 -0.29220367766E+02 -0.53352629427E+01  0.59374868799E+02  0.18530156494E+03  0.17300000000E+03 0. -1.
<mgrwt>
<rscale>  2 0.17553146E+03</rscale>
<asrwt>0</asrwt>
<pdfrwt beam="1">  1       21 0.21921432E-01 0.17553146E+03</pdfrwt>
<pdfrwt beam="2">  1       21 0.68494893E-01 0.17553146E+03</pdfrwt>
<totfact> 0.38110231E+04</totfact>
</mgrwt>
</event>
<event>
 4    3  0.4009700E+000  0.2064106E+03  0.7546771E-02  0.1144440E+00
         21   -1    0    0  501  502  0.00000000000E+00  0.00000000000E+00  0.97764294782E+03  0.97764294782E+03  0.00000000000E+00 0. -1.
         21   -1    0    0  502  503 -0.00000000000E+00 -0.00000000000E+00 -0.10920581025E+03  0.10920581025E+03  0.00000000000E+00 0.  1.
          6    1    1    2  501    0 -0.11227792984E+03  0.83670060210E+01  0.85548294288E+03  0.88003204821E+03  0.17300000000E+03 0. -1.
         -6    1    1    2    0  503  0.11227792984E+03 -0.83670060210E+01  0.12954194703E+02  0.20681670986E+03  0.17300000000E+03 0.  1.
<mgrwt>
<rscale>  2 0.20641061E+03</rscale>
<asrwt>0</asrwt>
<pdfrwt beam="1">  1       21 0.15040660E+00 0.20641061E+03</pdfrwt>
<pdfrwt beam="2">  1       21 0.16800895E-01 0.20641061E+03</pdfrwt>
<totfact> 0.93630688E+03</totfact>
</mgrwt>
</event>
<event>
 4    3  0.4009700E+000  0.1965742E+03  0.7546771E-02  0.1152662E+00
         21   -1    0    0  501  502  0.00000000000E+00  0.00000000000E+00  0.15225494110E+04  0.15225494110E+04  0.00000000000E+00 0.  1.
         21   -1    0    0  502  503 -0.00000000000E+00 -0.00000000000E+00 -0.36800776462E+02  0.36800776462E+02  0.00000000000E+00 0.  1.
          6    1    1    2  501    0 -0.41387298667E+02  0.83663131620E+02  0.11772284163E+04  0.11935276169E+04  0.17300000000E+03 0.  1.
         -6    1    1    2    0  503  0.41387298667E+02 -0.83663131620E+02  0.30852021814E+03  0.36582257050E+03  0.17300000000E+03 0.  1.
<mgrwt>
<rscale>  2 0.19657423E+03</rscale>
<asrwt>0</asrwt>
<pdfrwt beam="1">  1       21 0.23423832E+00 0.19657423E+03</pdfrwt>
<pdfrwt beam="2">  1       21 0.56616591E-02 0.19657423E+03</pdfrwt>
<totfact> 0.17896849E+04</totfact>
</mgrwt>
</event>
<event>
 4    3  0.4009700E+000  0.1862035E+03  0.7546771E-02  0.1161931E+00
         21   -1    0    0  503  502  0.00000000000E+00  0.00000000000E+00  0.45185353812E+02  0.45185353812E+02  0.00000000000E+00 0.  1.
         21   -1    0    0  501  503 -0.00000000000E+00 -0.00000000000E+00 -0.76765897549E+03  0.76765897549E+03  0.00000000000E+00 0.  1.
          6    1    1    2  501    0 -0.74552494883E+01 -0.68462841842E+02 -0.36974485702E+03  0.41398430012E+03  0.17300000000E+03 0.  1.
         -6    1    1    2    0  502  0.74552494883E+01  0.68462841842E+02 -0.35272876467E+03  0.39886002918E+03  0.17300000000E+03 0.  1.
<mgrwt>
<rscale>  2 0.18620349E+03</rscale>
<asrwt>0</asrwt>
<pdfrwt beam="1">  1       21 0.69515935E-02 0.18620349E+03</pdfrwt>
<pdfrwt beam="2">  1       21 0.11810137E+00 0.18620349E+03</pdfrwt>
<totfact> 0.84342738E+04</totfact>
</mgrwt>
</event>
<event>
 4    3  0.4009700E+000  0.2785314E+03  0.7546771E-02  0.1096494E+00
         21   -1    0    0  503  502  0.00000000000E+00  0.00000000000E+00  0.89830209834E+02  0.89830209834E+02  0.00000000000E+00 0. -1.
         21   -1    0    0  501  503 -0.00000000000E+00 -0.00000000000E+00 -0.94026139702E+03  0.94026139702E+03  0.00000000000E+00 0. -1.
          6    1    1    2  501    0 -0.60361120614E+02 -0.20977913398E+03 -0.57225536936E+03  0.63644006607E+03  0.17300000000E+03 0. -1.
         -6    1    1    2    0  502  0.60361120614E+02  0.20977913398E+03 -0.27817581782E+03  0.39365154078E+03  0.17300000000E+03 0. -1.
<mgrwt>
<rscale>  2 0.27853142E+03</rscale>
<asrwt>0</asrwt>
<pdfrwt beam="1">  1       21 0.13820032E-01 0.27853142E+03</pdfrwt>
<pdfrwt beam="2">  1       21 0.14465560E+00 0.27853142E+03</pdfrwt>
<totfact> 0.14205170E+04</totfact>
</mgrwt>
</event>
<event>
 4    3  0.4009700E+000  0.1765772E+03  0.7546771E-02  0.1171157E+00
         21   -1    0    0  501  502  0.00000000000E+00  0.00000000000E+00  0.62734377389E+03  0.62734377389E+03  0.00000000000E+00 0. -1.
         21   -1    0    0  502  503 -0.00000000000E+00 -0.00000000000E+00 -0.60975527401E+02  0.60975527401E+02  0.00000000000E+00 0. -1.
          6    1    1    2  501    0  0.30706637585E+02  0.17538647315E+02  0.43117493609E+03  0.46593060347E+03  0.17300000000E+03 0. -1.
         -6    1    1    2    0  503 -0.30706637585E+02 -0.17538647315E+02  0.13519331041E+03  0.22238869782E+03  0.17300000000E+03 0. -1.
<mgrwt>
<rscale>  2 0.17657718E+03</rscale>
<asrwt>0</asrwt>
<pdfrwt beam="1">  1       21 0.96514422E-01 0.17657718E+03</pdfrwt>
<pdfrwt beam="2">  1       21 0.93808508E-02 0.17657718E+03</pdfrwt>
<totfact> 0.81640916E+04</totfact>
</mgrwt>
</event>
<event>
 4    3  0.4009700E+000  0.1842987E+03  0.7546771E-02  0.1163706E+00
         21   -1    0    0  503  502  0.00000000000E+00  0.00000000000E+00  0.26105684552E+03  0.26105684552E+03  0.00000000000E+00 0. -1.
         21   -1    0    0  501  503 -0.00000000000E+00 -0.00000000000E+00 -0.13123758318E+03  0.13123758318E+03  0.00000000000E+00 0. -1.
          6    1    1    2  501    0 -0.59028074552E+02 -0.23509165087E+02  0.46724780337E+02  0.19012942835E+03  0.17300000000E+03 0.  1.
         -6    1    1    2    0  502  0.59028074552E+02  0.23509165087E+02  0.83094482004E+02  0.20216500035E+03  0.17300000000E+03 0.  1.
<mgrwt>
<rscale>  2 0.18429866E+03</rscale>
<asrwt>0</asrwt>
<pdfrwt beam="1">  1       21 0.40162592E-01 0.18429866E+03</pdfrwt>
<pdfrwt beam="2">  1       21 0.20190397E-01 0.18429866E+03</pdfrwt>
<totfact> 0.13586446E+05</totfact>
</mgrwt>
</event>
<event>
 4    3  0.4009700E+000  0.1742057E+03  0.7546771E-02  0.1173532E+00
         21   -1    0    0  503  502  0.00000000000E+00  0.00000000000E+00  0.44007861723E+03  0.44007861723E+03  0.00000000000E+00 0.  1.
         21   -1    0    0  501  503 -0.00000000000E+00 -0.00000000000E+00 -0.74133618154E+02  0.74133618154E+02  0.00000000000E+00 0.  1.
          6    1    1    2  501    0 -0.16600067055E+01  0.20393024626E+02  0.11504898434E+03  0.20876757381E+03  0.17300000000E+03 0.  1.
         -6    1    1    2    0  502  0.16600067055E+01 -0.20393024626E+02  0.25089601473E+03  0.30544466157E+03  0.17300000000E+03 0.  1.
<mgrwt>
<rscale>  2 0.17420571E+03</rscale>
<asrwt>0</asrwt>
<pdfrwt beam="1">  1       21 0.67704401E-01 0.17420571E+03</pdfrwt>
<pdfrwt beam="2">  1       21 0.11405172E-01 0.17420571E+03</pdfrwt>
<totfact> 0.12897018E+05</totfact>
</mgrwt>
</event>
<event>
 4    3  0.4009700E+000  0.3227694E+03  0.7546771E-02  0.1074382E+00
         21   -1    0    0  501  502  0.00000000000E+00  0.00000000000E+00  0.39325698640E+03  0.39325698640E+03  0.00000000000E+00 0. -1.
         21   -1    0    0  502  503 -0.00000000000E+00 -0.00000000000E+00 -0.37178786912E+03  0.37178786912E+03  0.00000000000E+00 0.  1.
          6    1    1    2  501    0  0.27053884504E+03  0.32554760054E+02  0.21582288457E+03  0.38827773124E+03  0.17300000000E+03 0. -1.
         -6    1    1    2    0  503 -0.27053884504E+03 -0.32554760054E+02 -0.19435376729E+03  0.37676712428E+03  0.17300000000E+03 0.  1.
<mgrwt>
<rscale>  2 0.32276939E+03</rscale>
<asrwt>0</asrwt>
<pdfrwt beam="1">  1       21 0.60501075E-01 0.32276939E+03</pdfrwt>
<pdfrwt beam="2">  1       21 0.57198134E-01 0.32276939E+03</pdfrwt>
<totfact> 0.67778977E+03</totfact>
</mgrwt>
</event>
<event>
 4    3  0.4009700E+000  0.2218242E+03  0.7546771E-02  0.1132530E+00
         21   -1    0    0  503  502  0.00000000000E+00  0.00000000000E+00  0.37645803838E+03  0.37645803838E+03  0.00000000000E+00 0.  1.
         21   -1    0    0  501  503 -0.00000000000E+00 -0.00000000000E+00 -0.65643466603E+03  0.65643466603E+03  0.00000000000E+00 0.  1.
          6    1    1    2  501    0  0.10186175566E+03  0.94345946986E+02 -0.60216664012E+03  0.64172473651E+03  0.17300000000E+03 0.  1.
         -6    1    1    2    0  502 -0.10186175566E+03 -0.94345946986E+02  0.32219001246E+03  0.39116796790E+03  0.17300000000E+03 0.  1.
<mgrwt>
<rscale>  2 0.22182420E+03</rscale>
<asrwt>0</asrwt>
<pdfrwt beam="1">  1       21 0.57916623E-01 0.22182420E+03</pdfrwt>
<pdfrwt beam="2">  1       21 0.10098995E+00 0.22182420E+03</pdfrwt>
<totfact> 0.21857308E+03</totfact>
</mgrwt>
</event>
<event>
 4    3  0.4009700E+000  0.2796954E+03  0.7546771E-02  0.1095855E+00
         21   -1    0    0  503  502  0.00000000000E+00  0.00000000000E+00  0.17471793214E+03  0.17471793214E+03  0.00000000000E+00 0. -1.
         21   -1    0    0  501  503 -0.00000000000E+00 -0.00000000000E+00 -0.48815914352E+03  0.48815914352E+03  0.00000000000E+00 0.  1.
          6    1    1    2  501    0  0.29873581965E+02  0.21773402178E+03 -0.25208252841E+03  0.37653039222E+03  0.17300000000E+03 0.  1.
         -6    1    1    2    0  502 -0.29873581965E+02 -0.21773402178E+03 -0.61358682972E+02  0.28634668344E+03  0.17300000000E+03 0. -1.
<mgrwt>
<rscale>  2 0.27969543E+03</rscale>
<asrwt>0</asrwt>
<pdfrwt beam="1">  1       21 0.26879682E-01 0.27969543E+03</pdfrwt>
<pdfrwt beam="2">  1       21 0.75101406E-01 0.27969543E+03</pdfrwt>
<totfact> 0.19973472E+04</totfact>
</mgrwt>
</event>
<event>
 4    3  0.4009700E+000  0.2371622E+03  0.7546771E-02  0.1121698E+00
         21   -1    0    0  501  502  0.00000000000E+00  0.00000000000E+00  0.11313521034E+03  0.11313521034E+03  0.00000000000E+00 0.  1.
         21   -1    0    0  502  503 -0.00000000000E+00 -0.00000000000E+00 -0.49879988467E+03  0.49879988467E+03  0.00000000000E+00 0. -1.
          6    1    1    2  501    0  0.11316164933E+03  0.11623830057E+03 -0.17526984068E+03  0.29489899703E+03  0.17300000000E+03 0.  1.
         -6    1    1    2    0  503 -0.11316164933E+03 -0.11623830057E+03 -0.21039483365E+03  0.31703609799E+03  0.17300000000E+03 0.  1.
<mgrwt>
<rscale>  2 0.23716218E+03</rscale>
<asrwt>0</asrwt>
<pdfrwt beam="1">  1       21 0.17405417E-01 0.23716218E+03</pdfrwt>
<pdfrwt beam="2">  1       21 0.76738445E-01 0.23716218E+03</pdfrwt>
<totfact> 0.44166432E+04</totfact>
</mgrwt>
</event>
<event>
 4    3  0.4009700E+000  0.1754565E+03  0.7546771E-02  0.1172274E+00
         21   -1    0    0  503  502  0.00000000000E+00  0.00000000000E+00  0.27076646756E+03  0.27076646756E+03  0.00000000000E+00 0. -1.
         21   -1    0    0  501  503 -0.00000000000E+00 -0.00000000000E+00 -0.19818757518E+03  0.19818757518E+03  0.00000000000E+00 0. -1.
          6    1    1    2  501    0  0.15349374302E+02 -0.24907215756E+02  0.18938749273E+03  0.25817163882E+03  0.17300000000E+03 0. -1.
         -6    1    1    2    0  502 -0.15349374302E+02  0.24907215756E+02 -0.11680860035E+03  0.21078240393E+03  0.17300000000E+03 0. -1.
<mgrwt>
<rscale>  2 0.17545647E+03</rscale>
<asrwt>0</asrwt>
<pdfrwt beam="1">  1       21 0.41656380E-01 0.17545647E+03</pdfrwt>
<pdfrwt beam="2">  1       21 0.30490396E-01 0.17545647E+03</pdfrwt>
<totfact> 0.57730674E+04</totfact>
</mgrwt>
</event>
<event>
 4    3  0.4009700E+000  0.3437068E+03  0.7546771E-02  0.1065228E+00
         21   -1    0    0  501  502  0.00000000000E+00  0.00000000000E+00  0.18123201296E+04  0.18123201296E+04  0.00000000000E+00 0. -1.
         21   -1    0    0  502  503 -0.00000000000E+00 -0.00000000000E+00 -0.10603756280E+03  0.10603756280E+03  0.00000000000E+00 0.  1.
          6    1    1    2  501    0 -0.27470921302E+03 -0.11287256923E+03  0.14485078168E+04  0.14887273974E+04  0.17300000000E+03 0.  1.
         -6    1    1    2    0  503  0.27470921302E+03  0.11287256923E+03  0.25777475003E+03  0.42963029497E+03  0.17300000000E+03 0. -1.
<mgrwt>
<rscale>  2 0.34370681E+03</rscale>
<asrwt>0</asrwt>
<pdfrwt beam="1">  1       21 0.27881846E+00 0.34370681E+03</pdfrwt>
<pdfrwt beam="2">  1       21 0.16313473E-01 0.34370681E+03</pdfrwt>
<totfact> 0.13224871E+03</totfact>
</mgrwt>
</event>
<event>
 4    3  0.4009700E+000  0.1783274E+03  0.7546771E-02  0.1169432E+00
         21   -1    0    0  501  502  0.00000000000E+00  0.00000000000E+00  0.11119672148E+03  0.11119672148E+03  0.00000000000E+00 0.  1.
         21   -1    0    0  502  503 -0.00000000000E+00 -0.00000000000E+00 -0.44518970937E+03  0.44518970937E+03  0.00000000000E+00 0.  1.
          6    1    1    2  501    0  0.32135128731E+02  0.28965362046E+02 -0.63563957082E+00  0.17832852474E+03  0.17300000000E+03 0.  1.
         -6    1    1    2    0  503 -0.32135128731E+02 -0.28965362046E+02 -0.33335734832E+03  0.37805790611E+03  0.17300000000E+03 0.  1.
<mgrwt>
<rscale>  2 0.17832739E+03</rscale>
<asrwt>0</asrwt>
<pdfrwt beam="1">  1       21 0.17107188E-01 0.17832739E+03</pdfrwt>
<pdfrwt beam="2">  1       21 0.68490726E-01 0.17832739E+03</pdfrwt>
<totfact> 0.60339685E+04</totfact>
</mgrwt>
</event>
<event>
 4    3  0.4009700E+000  0.2169129E+03  0.7546771E-02  0.1136206E+00
         21   -1    0    0  501  502  0.00000000000E+00  0.00000000000E+00  0.13545402257E+03  0.13545402257E+03  0.00000000000E+00 0. -1.
         21   -1    0    0  502  503 -0.00000000000E+00 -0.00000000000E+00 -0.35679061458E+03  0.35679061458E+03  0.00000000000E+00 0. -1.
          6    1    1    2  501    0  0.65540746614E+02 -0.11325470183E+03 -0.70652636519E+02  0.22812937558E+03  0.17300000000E+03 0. -1.
         -6    1    1    2    0  503 -0.65540746614E+02  0.11325470183E+03 -0.15068395549E+03  0.26411526157E+03  0.17300000000E+03 0. -1.
<mgrwt>
<rscale>  2 0.21691292E+03</rscale>
<asrwt>0</asrwt>
<pdfrwt beam="1">  1       21 0.20839080E-01 0.21691292E+03</pdfrwt>
<pdfrwt beam="2">  1       21 0.54890864E-01 0.21691292E+03</pdfrwt>
<totfact> 0.66230397E+04</totfact>
</mgrwt>
</event>
<event>
 4    3  0.4009700E+000  0.1956788E+03  0.7546771E-02  0.1153437E+00
         21   -1    0    0  503  502  0.00000000000E+00  0.00000000000E+00  0.46836498462E+03  0.46836498462E+03  0.00000000000E+00 0.  1.
         21   -1    0    0  501  503 -0.00000000000E+00 -0.00000000000E+00 -0.96925096807E+02  0.96925096807E+02  0.00000000000E+00 0. -1.
          6    1    1    2  501    0  0.43243577842E+02  0.80567785359E+02  0.73892573164E+02  0.20916569372E+03  0.17300000000E+03 0. -1.
         -6    1    1    2    0  502 -0.43243577842E+02 -0.80567785359E+02  0.29754731465E+03  0.35612438771E+03  0.17300000000E+03 0. -1.
<mgrwt>
<rscale>  2 0.19567875E+03</rscale>
<asrwt>0</asrwt>
<pdfrwt beam="1">  1       21 0.72056150E-01 0.19567875E+03</pdfrwt>
<pdfrwt beam="2">  1       21 0.14911554E-01 0.19567875E+03</pdfrwt>
<totfact> 0.68825422E+04</totfact>
</mgrwt>
</event>
<event>
 4    3  0.4009700E+000  0.1748077E+03  0.7546771E-02  0.1172925E+00
         21   -1    0    0  501  502  0.00000000000E+00  0.00000000000E+00  0.22601546653E+03  0.22601546653E+03  0.00000000000E+00 0.  1.
         21   -1    0    0  502  503 -0.00000000000E+00 -0.00000000000E+00 -0.15709179084E+03  0.15709179084E+03  0.00000000000E+00 0.  1.
          6    1    1    2  501    0 -0.25048002293E+02  0.11548396417E+01  0.10596656481E+03  0.20441782929E+03  0.17300000000E+03 0.  1.
         -6    1    1    2    0  503  0.25048002293E+02 -0.11548396417E+01 -0.37042889125E+02  0.17868942808E+03  0.17300000000E+03 0.  1.
<mgrwt>
<rscale>  2 0.17480771E+03</rscale>
<asrwt>0</asrwt>
<pdfrwt beam="1">  1       21 0.34771610E-01 0.17480771E+03</pdfrwt>
<pdfrwt beam="2">  1       21 0.24167968E-01 0.17480771E+03</pdfrwt>
<totfact> 0.12959373E+05</totfact>
</mgrwt>
</event>
<event>
 4    3  0.4009700E+000  0.1996428E+03  0.7546771E-02  0.1150041E+00
         21   -1    0    0  503  502  0.00000000000E+00  0.00000000000E+00  0.17983109668E+03  0.17983109668E+03  0.00000000000E+00 0. -1.
         21   -1    0    0  501  503 -0.00000000000E+00 -0.00000000000E+00 -0.27326639392E+03  0.27326639392E+03  0.00000000000E+00 0. -1.
          6    1    1    2  501    0  0.61799081296E+02 -0.78160832995E+02 -0.14519053157E+03  0.24685528700E+03  0.17300000000E+03 0. -1.
         -6    1    1    2    0  502 -0.61799081296E+02  0.78160832995E+02  0.51755234330E+02  0.20624220360E+03  0.17300000000E+03 0. -1.
<mgrwt>
<rscale>  2 0.19964279E+03</rscale>
<asrwt>0</asrwt>
<pdfrwt beam="1">  1       21 0.27666323E-01 0.19964279E+03</pdfrwt>
<pdfrwt beam="2">  1       21 0.42040983E-01 0.19964279E+03</pdfrwt>
<totfact> 0.67686043E+04</totfact>
</mgrwt>
</event>
<event>
 4    3  0.4009700E+000  0.2132211E+03  0.7546771E-02  0.1139040E+00
         21   -1    0    0  503  502  0.00000000000E+00  0.00000000000E+00  0.10884925403E+04  0.10884925403E+04  0.00000000000E+00 0.  1.
         21   -1    0    0  501  503 -0.00000000000E+00 -0.00000000000E+00 -0.42312630889E+02  0.42312630889E+02  0.00000000000E+00 0.  1.
          6    1    1    2  501    0  0.50263033217E+02 -0.11405208106E+03  0.45889427815E+03  0.50601107519E+03  0.17300000000E+03 0.  1.
         -6    1    1    2    0  502 -0.50263033217E+02  0.11405208106E+03  0.58728563127E+03  0.62479409600E+03  0.17300000000E+03 0.  1.
<mgrwt>
<rscale>  2 0.21322113E+03</rscale>
<asrwt>0</asrwt>
<pdfrwt beam="1">  1       21 0.16746037E+00 0.21322113E+03</pdfrwt>
<pdfrwt beam="2">  1       21 0.65096363E-02 0.21322113E+03</pdfrwt>
<totfact> 0.37643736E+04</totfact>
</mgrwt>
</event>
<event>
 4    3  0.4009700E+000  0.1824391E+03  0.7546771E-02  0.1165463E+00
         21   -1    0    0  503  502  0.00000000000E+00  0.00000000000E+00  0.79425048542E+03  0.79425048542E+03  0.00000000000E+00 0.  1.
         21   -1    0    0  501  503 -0.00000000000E+00 -0.00000000000E+00 -0.44175525152E+02  0.44175525152E+02  0.00000000000E+00 0. -1.
          6    1    1    2  501    0  0.20967346663E+02 -0.53994501524E+02  0.28002288830E+03  0.33421079245E+03  0.17300000000E+03 0. -1.
         -6    1    1    2    0  502 -0.20967346663E+02  0.53994501524E+02  0.47005207197E+03  0.50421521812E+03  0.17300000000E+03 0.  1.
<mgrwt>
<rscale>  2 0.18243913E+03</rscale>
<asrwt>0</asrwt>
<pdfrwt beam="1">  1       21 0.12219237E+00 0.18243913E+03</pdfrwt>
<pdfrwt beam="2">  1       21 0.67962353E-02 0.18243913E+03</pdfrwt>
<totfact> 0.80741621E+04</totfact>
</mgrwt>
</event>
<event>
 4    3  0.4009700E+000  0.1806446E+03  0.7546771E-02  0.1167181E+00
         21   -1    0    0  501  502  0.00000000000E+00  0.00000000000E+00  0.12868901154E+03  0.12868901154E+03  0.00000000000E+00 0. -1.
         21   -1    0    0  502  503 -0.00000000000E+00 -0.00000000000E+00 -0.25371548124E+03  0.25371548124E+03  0.00000000000E+00 0. -1.
          6    1    1    2  501    0  0.36655765221E+02  0.36876019216E+02 -0.58035284088E+02  0.18973818834E+03  0.17300000000E+03 0. -1.
         -6    1    1    2    0  503 -0.36655765221E+02 -0.36876019216E+02 -0.66991185608E+02  0.19266630444E+03  0.17300000000E+03 0. -1.
<mgrwt>
<rscale>  2 0.18064464E+03</rscale>
<asrwt>0</asrwt>
<pdfrwt beam="1">  1       21 0.19798310E-01 0.18064464E+03</pdfrwt>
<pdfrwt beam="2">  1       21 0.39033150E-01 0.18064464E+03</pdfrwt>
<totfact> 0.14944193E+05</totfact>
</mgrwt>
</event>
<event>
 4    3  0.4009700E+000  0.2179064E+03  0.7546771E-02  0.1135454E+00
         21   -1    0    0  503  502  0.00000000000E+00  0.00000000000E+00  0.35086158684E+03  0.35086158684E+03  0.00000000000E+00 0. -1.
         21   -1    0    0  501  503 -0.00000000000E+00 -0.00000000000E+00 -0.98195016996E+03  0.98195016996E+03  0.00000000000E+00 0. -1.
          6    1    1    2  501    0  0.11476057003E+03 -0.66213290323E+02 -0.93432619404E+03  0.95940013817E+03  0.17300000000E+03 0. -1.
         -6    1    1    2    0  502 -0.11476057003E+03  0.66213290323E+02  0.30323761092E+03  0.37341161863E+03  0.17300000000E+03 0. -1.
<mgrwt>
<rscale>  2 0.21790637E+03</rscale>
<asrwt>0</asrwt>
<pdfrwt beam="1">  1       21 0.53978705E-01 0.21790637E+03</pdfrwt>
<pdfrwt beam="2">  1       21 0.15106926E+00 0.21790637E+03</pdfrwt>
<totfact> 0.92789626E+02</totfact>
</mgrwt>
</event>
<event>
 4    3  0.4009700E+000  0.2504021E+03  0.7546771E-02  0.1113051E+00
         21   -1    0    0  503  502  0.00000000000E+00  0.00000000000E+00  0.48253449755E+02  0.48253449755E+02  0.00000000000E+00 0.  1.
         21   -1    0    0  501  503 -0.00000000000E+00 -0.00000000000E+00 -0.14045081920E+04  0.14045081920E+04  0.00000000000E+00 0. -1.
          6    1    1    2  501    0  0.20269002633E+02  0.17989266377E+03 -0.47943014176E+03  0.54088304076E+03  0.17300000000E+03 0.  1.
         -6    1    1    2    0  502 -0.20269002633E+02 -0.17989266377E+03 -0.87682460047E+03  0.91187860099E+03  0.17300000000E+03 0. -1.
<mgrwt>
<rscale>  2 0.25040208E+03</rscale>
<asrwt>0</asrwt>
<pdfrwt beam="1">  1       21 0.74236067E-02 0.25040208E+03</pdfrwt>
<pdfrwt beam="2">  1       21 0.21607821E+00 0.25040208E+03</pdfrwt>
<totfact> 0.13916143E+04</totfact>
</mgrwt>
</event>
<event>
 4    3  0.4009700E+000  0.2287248E+03  0.7546771E-02  0.1127541E+00
         21   -1    0    0  503  502  0.00000000000E+00  0.00000000000E+00  0.13051237307E+04  0.13051237307E+04  0.00000000000E+00 0.  1.
         21   -1    0    0  501  503 -0.00000000000E+00 -0.00000000000E+00 -0.40301133129E+02  0.40301133129E+02  0.00000000000E+00 0.  1.
          6    1    1    2  501    0 -0.52698019916E+02  0.14003198643E+03  0.68174934484E+03  0.71909471401E+03  0.17300000000E+03 0. -1.
         -6    1    1    2    0  502  0.52698019916E+02 -0.14003198643E+03  0.58307325276E+03  0.62633014985E+03  0.17300000000E+03 0. -1.
<mgrwt>
<rscale>  2 0.22872481E+03</rscale>
<asrwt>0</asrwt>
<pdfrwt beam="1">  1       21 0.20078823E+00 0.22872481E+03</pdfrwt>
<pdfrwt beam="2">  1       21 0.62001753E-02 0.22872481E+03</pdfrwt>
<totfact> 0.24118488E+04</totfact>
</mgrwt>
</event>
<event>
 4    3  0.4009700E+000  0.1735600E+03  0.7546771E-02  0.1174185E+00
         21   -1    0    0  503  502  0.00000000000E+00  0.00000000000E+00  0.10663564327E+03  0.10663564327E+03  0.00000000000E+00 0. -1.
         21   -1    0    0  501  503 -0.00000000000E+00 -0.00000000000E+00 -0.34330967138E+03  0.34330967138E+03  0.00000000000E+00 0. -1.
          6    1    1    2  501    0  0.92798375496E+01  0.10389600749E+02 -0.23642764126E+02  0.17516289414E+03  0.17300000000E+03 0. -1.
         -6    1    1    2    0  502 -0.92798375496E+01 -0.10389600749E+02 -0.21303126399E+03  0.27478242051E+03  0.17300000000E+03 0. -1.
<mgrwt>
<rscale>  2 0.17355996E+03</rscale>
<asrwt>0</asrwt>
<pdfrwt beam="1">  1       21 0.16405484E-01 0.17355996E+03</pdfrwt>
<pdfrwt beam="2">  1       21 0.52816872E-01 0.17355996E+03</pdfrwt>
<totfact> 0.11394552E+05</totfact>
</mgrwt>
</event>
<event>
 4    3  0.4009700E+000  0.1834816E+03  0.7546771E-02  0.1164475E+00
         21   -1    0    0  501  502  0.00000000000E+00  0.00000000000E+00  0.13628999222E+03  0.13628999222E+03  0.00000000000E+00 0. -1.
         21   -1    0    0  502  503 -0.00000000000E+00 -0.00000000000E+00 -0.29711502353E+03  0.29711502353E+03  0.00000000000E+00 0. -1.
          6    1    1    2  501    0  0.59656588902E+02  0.13325655974E+02  0.85745039435E+01  0.18368180047E+03  0.17300000000E+03 0.  1.
         -6    1    1    2    0  503 -0.59656588902E+02 -0.13325655974E+02 -0.16939953526E+03  0.24972321528E+03  0.17300000000E+03 0.  1.
<mgrwt>
<rscale>  2 0.18348156E+03</rscale>
<asrwt>0</asrwt>
<pdfrwt beam="1">  1       21 0.20967691E-01 0.18348156E+03</pdfrwt>
<pdfrwt beam="2">  1       21 0.45710003E-01 0.18348156E+03</pdfrwt>
<totfact> 0.97289819E+04</totfact>
</mgrwt>
</event>
<event>
 4    3  0.4009700E+000  0.2853673E+03  0.7546771E-02  0.1092793E+00
         21   -1    0    0  501  502  0.00000000000E+00  0.00000000000E+00  0.31084870561E+03  0.31084870561E+03  0.00000000000E+00 0.  1.
         21   -1    0    0  502  503 -0.00000000000E+00 -0.00000000000E+00 -0.32052335487E+03  0.32052335487E+03  0.00000000000E+00 0. -1.
          6    1    1    2  501    0 -0.22303669078E+03 -0.41953893100E+02  0.13008505945E+03  0.31361858566E+03  0.17300000000E+03 0.  1.
         -6    1    1    2    0  503  0.22303669078E+03  0.41953893100E+02 -0.13975970871E+03  0.31775347482E+03  0.17300000000E+03 0. -1.
<mgrwt>
<rscale>  2 0.28536730E+03</rscale>
<asrwt>0</asrwt>
<pdfrwt beam="1">  1       21 0.47822878E-01 0.28536730E+03</pdfrwt>
<pdfrwt beam="2">  1       21 0.49311285E-01 0.28536730E+03</pdfrwt>
<totfact> 0.15604124E+04</totfact>
</mgrwt>
</event>
<event>
 4    3  0.4009700E+000  0.3776933E+03  0.7546771E-02  0.1051790E+00
         21   -1    0    0  501  502  0.00000000000E+00  0.00000000000E+00  0.90163813270E+02  0.90163813270E+02  0.00000000000E+00 0. -1.
         21   -1    0    0  502  503 -0.00000000000E+00 -0.00000000000E+00 -0.18549512153E+04  0.18549512153E+04  0.00000000000E+00 0. -1.
          6    1    1    2  501    0  0.46451478377E+02  0.33251394911E+03 -0.50942204744E+03  0.63416329807E+03  0.17300000000E+03 0. -1.
         -6    1    1    2    0  503 -0.46451478377E+02 -0.33251394911E+03 -0.12553653546E+04  0.13109517305E+04  0.17300000000E+03 0. -1.
<mgrwt>
<rscale>  2 0.37769335E+03</rscale>
<asrwt>0</asrwt>
<pdfrwt beam="1">  1       21 0.13871358E-01 0.37769335E+03</pdfrwt>
<pdfrwt beam="2">  1       21 0.28537707E+00 0.37769335E+03</pdfrwt>
<totfact> 0.15955523E+03</totfact>
</mgrwt>
</event>
<event>
 4    3  0.4009700E+000  0.8254988E+03  0.7546771E-02  0.9523825E-01
         21   -1    0    0  503  502  0.00000000000E+00  0.00000000000E+00  0.85219837977E+03  0.85219837977E+03  0.00000000000E+00 0. -1.
         21   -1    0    0  501  503 -0.00000000000E+00 -0.00000000000E+00 -0.85601387215E+03  0.85601387215E+03  0.00000000000E+00 0.  1.
          6    1    1    2  501    0  0.79038955360E+03 -0.16371823507E+03  0.21728524565E+03  0.85361653271E+03  0.17300000000E+03 0. -1.
         -6    1    1    2    0  502 -0.79038955360E+03  0.16371823507E+03 -0.22110073803E+03  0.85459571921E+03  0.17300000000E+03 0.  1.
<mgrwt>
<rscale>  2 0.82549882E+03</rscale>
<asrwt>0</asrwt>
<pdfrwt beam="1">  1       21 0.13110744E+00 0.82549882E+03</pdfrwt>
<pdfrwt beam="2">  1       21 0.13169444E+00 0.82549882E+03</pdfrwt>
<totfact> 0.12447354E+02</totfact>
</mgrwt>
</event>
<event>
 4    3  0.4009700E+000  0.1757158E+03  0.7546771E-02  0.1172015E+00
         21   -1    0    0  503  502  0.00000000000E+00  0.00000000000E+00  0.80585162247E+03  0.80585162247E+03  0.00000000000E+00 0. -1.
         21   -1    0    0  501  503 -0.00000000000E+00 -0.00000000000E+00 -0.10695199122E+03  0.10695199122E+03  0.00000000000E+00 0. -1.
          6    1    1    2  501    0  0.21373229567E+02  0.22141051753E+02 -0.16172487109E+02  0.17645846665E+03  0.17300000000E+03 0. -1.
         -6    1    1    2    0  502 -0.21373229567E+02 -0.22141051753E+02  0.71507211835E+03  0.73634514703E+03  0.17300000000E+03 0. -1.
<mgrwt>
<rscale>  2 0.17571580E+03</rscale>
<asrwt>0</asrwt>
<pdfrwt beam="1">  1       21 0.12397717E+00 0.17571580E+03</pdfrwt>
<pdfrwt beam="2">  1       21 0.16454153E-01 0.17571580E+03</pdfrwt>
<totfact> 0.16314962E+04</totfact>
</mgrwt>
</event>
<event>
 4    3  0.4009700E+000  0.1758982E+03  0.7546771E-02  0.1171833E+00
         21   -1    0    0  503  502  0.00000000000E+00  0.00000000000E+00  0.25647903936E+03  0.25647903936E+03  0.00000000000E+00 0. -1.
         21   -1    0    0  501  503 -0.00000000000E+00 -0.00000000000E+00 -0.30003807257E+03  0.30003807257E+03  0.00000000000E+00 0. -1.
          6    1    1    2  501    0 -0.30246653479E+02 -0.98148655384E+01 -0.23694669472E+03  0.29509986067E+03  0.17300000000E+03 0. -1.
         -6    1    1    2    0  502  0.30246653479E+02  0.98148655384E+01  0.19338766151E+03  0.26141725126E+03  0.17300000000E+03 0. -1.
<mgrwt>
<rscale>  2 0.17589824E+03</rscale>
<asrwt>0</asrwt>
<pdfrwt beam="1">  1       21 0.39458314E-01 0.17589824E+03</pdfrwt>
<pdfrwt beam="2">  1       21 0.46159703E-01 0.17589824E+03</pdfrwt>
<totfact> 0.28103187E+04</totfact>
</mgrwt>
</event>
<event>
 4    3  0.4009700E+000  0.1863831E+03  0.7546771E-02  0.1161765E+00
         21   -1    0    0  501  502  0.00000000000E+00  0.00000000000E+00  0.25603894174E+04  0.25603894174E+04  0.00000000000E+00 0.  1.
         21   -1    0    0  502  503 -0.00000000000E+00 -0.00000000000E+00 -0.13859376893E+02  0.13859376893E+02  0.00000000000E+00 0. -1.
          6    1    1    2  501    0  0.69208320483E+02  0.44577968178E+01  0.14599803115E+04  0.14718291931E+04  0.17300000000E+03 0.  1.
         -6    1    1    2    0  503 -0.69208320483E+02 -0.44577968178E+01  0.10865497290E+04  0.11024196012E+04  0.17300000000E+03 0. -1.
<mgrwt>
<rscale>  2 0.18638311E+03</rscale>
<asrwt>0</asrwt>
<pdfrwt beam="1">  1       21 0.39390569E+00 0.18638311E+03</pdfrwt>
<pdfrwt beam="2">  1       21 0.21322139E-02 0.18638311E+03</pdfrwt>
<totfact> 0.10625661E+04</totfact>
</mgrwt>
</event>
<event>
 4    3  0.4009700E+000  0.1903224E+03  0.7546771E-02  0.1158171E+00
         21   -1    0    0  503  502  0.00000000000E+00  0.00000000000E+00  0.28217693883E+04  0.28217693883E+04  0.00000000000E+00 0.  1.
         21   -1    0    0  501  503 -0.00000000000E+00 -0.00000000000E+00 -0.28558692911E+02  0.28558692911E+02  0.00000000000E+00 0.  1.
          6    1    1    2  501    0  0.55562483473E+02  0.56625459991E+02  0.33918561778E+03  0.38893381905E+03  0.17300000000E+03 0.  1.
         -6    1    1    2    0  502 -0.55562483473E+02 -0.56625459991E+02  0.24540250776E+04  0.24613942622E+04  0.17300000000E+03 0.  1.
<mgrwt>
<rscale>  2 0.19032244E+03</rscale>
<asrwt>0</asrwt>
<pdfrwt beam="1">  1       21 0.43411815E+00 0.19032244E+03</pdfrwt>
<pdfrwt beam="2">  1       21 0.43936473E-02 0.19032244E+03</pdfrwt>
<totfact> 0.17762624E+03</totfact>
</mgrwt>
</event>
<event>
 4    3  0.4009700E+000  0.1748976E+03  0.7546771E-02  0.1172835E+00
         21   -1    0    0  503  502  0.00000000000E+00  0.00000000000E+00  0.17293084933E+03  0.17293084933E+03  0.00000000000E+00 0.  1.
         21   -1    0    0  501  503 -0.00000000000E+00 -0.00000000000E+00 -0.23961290778E+03  0.23961290778E+03  0.00000000000E+00 0.  1.
          6    1    1    2  501    0  0.10687343701E+02  0.23365628144E+02 -0.13887914654E+03  0.22333067241E+03  0.17300000000E+03 0.  1.
         -6    1    1    2    0  502 -0.10687343701E+02 -0.23365628144E+02  0.72197088090E+02  0.18921308470E+03  0.17300000000E+03 0.  1.
<mgrwt>
<rscale>  2 0.17489760E+03</rscale>
<asrwt>0</asrwt>
<pdfrwt beam="1">  1       21 0.26604746E-01 0.17489760E+03</pdfrwt>
<pdfrwt beam="2">  1       21 0.36863524E-01 0.17489760E+03</pdfrwt>
<totfact> 0.96076472E+04</totfact>
</mgrwt>
</event>
<event>
 4    3  0.4009700E+000  0.2395255E+03  0.7546771E-02  0.1120109E+00
         21   -1    0    0  501  502  0.00000000000E+00  0.00000000000E+00  0.19035853910E+03  0.19035853910E+03  0.00000000000E+00 0. -1.
         21   -1    0    0  502  503 -0.00000000000E+00 -0.00000000000E+00 -0.11304825275E+04  0.11304825275E+04  0.00000000000E+00 0.  1.
          6    1    1    2  501    0  0.11335111417E+03  0.12080972318E+03  0.95512378251E+02  0.25786639699E+03  0.17300000000E+03 0. -1.
         -6    1    1    2    0  503 -0.11335111417E+03 -0.12080972318E+03 -0.10356363666E+04  0.10629746696E+04  0.17300000000E+03 0.  1.
<mgrwt>
<rscale>  2 0.23952550E+03</rscale>
<asrwt>0</asrwt>
<pdfrwt beam="1">  1       21 0.29285929E-01 0.23952550E+03</pdfrwt>
<pdfrwt beam="2">  1       21 0.17392039E+00 0.23952550E+03</pdfrwt>
<totfact> 0.21448882E+03</totfact>
</mgrwt>
</event>
<event>
 4    3  0.4009700E+000  0.1850416E+03  0.7546771E-02  0.1163011E+00
         21   -1    0    0  501  502  0.00000000000E+00  0.00000000000E+00  0.36766649838E+03  0.36766649838E+03  0.00000000000E+00 0. -1.
         21   -1    0    0  502  503 -0.00000000000E+00 -0.00000000000E+00 -0.93404434991E+02  0.93404434991E+02  0.00000000000E+00 0. -1.
          6    1    1    2  501    0  0.64418162930E+02  0.12715454830E+02  0.12461030214E+03  0.22308767314E+03  0.17300000000E+03 0.  1.
         -6    1    1    2    0  503 -0.64418162930E+02 -0.12715454830E+02  0.14965176125E+03  0.23798326023E+03  0.17300000000E+03 0.  1.
<mgrwt>
<rscale>  2 0.18504157E+03</rscale>
<asrwt>0</asrwt>
<pdfrwt beam="1">  1       21 0.56564076E-01 0.18504157E+03</pdfrwt>
<pdfrwt beam="2">  1       21 0.14369913E-01 0.18504157E+03</pdfrwt>
<totfact> 0.12498457E+05</totfact>
</mgrwt>
</event>
<event>
 4    3  0.4009700E+000  0.1963752E+03  0.7546771E-02  0.1152834E+00
         21   -1    0    0  503  502  0.00000000000E+00  0.00000000000E+00  0.14377828954E+03  0.14377828954E+03  0.00000000000E+00 0. -1.
         21   -1    0    0  501  503 -0.00000000000E+00 -0.00000000000E+00 -0.33976638036E+03  0.33976638036E+03  0.00000000000E+00 0.  1.
          6    1    1    2  501    0 -0.88323467147E+02 -0.28865073061E+02 -0.20894499903E+03  0.28674246269E+03  0.17300000000E+03 0.  1.
         -6    1    1    2    0  502  0.88323467147E+02  0.28865073061E+02  0.12956908215E+02  0.19680220721E+03  0.17300000000E+03 0. -1.
<mgrwt>
<rscale>  2 0.19637522E+03</rscale>
<asrwt>0</asrwt>
<pdfrwt beam="1">  1       21 0.22119737E-01 0.19637522E+03</pdfrwt>
<pdfrwt beam="2">  1       21 0.52271750E-01 0.19637522E+03</pdfrwt>
<totfact> 0.66231071E+04</totfact>
</mgrwt>
</event>
<event>
 4    3  0.4009700E+000  0.2325013E+03  0.7546771E-02  0.1124892E+00
         21   -1    0    0  501  502  0.00000000000E+00  0.00000000000E+00  0.15514788628E+03  0.15514788628E+03  0.00000000000E+00 0. -1.
         21   -1    0    0  502  503 -0.00000000000E+00 -0.00000000000E+00 -0.41002505125E+03  0.41002505125E+03  0.00000000000E+00 0.  1.
          6    1    1    2  501    0  0.13974860882E+03 -0.67809814980E+02 -0.17904475385E+02  0.23318965439E+03  0.17300000000E+03 0. -1.
         -6    1    1    2    0  503 -0.13974860882E+03  0.67809814980E+02 -0.23697268959E+03  0.33198328314E+03  0.17300000000E+03 0.  1.
<mgrwt>
<rscale>  2 0.23250128E+03</rscale>
<asrwt>0</asrwt>
<pdfrwt beam="1">  1       21 0.23868906E-01 0.23250128E+03</pdfrwt>
<pdfrwt beam="2">  1       21 0.63080777E-01 0.23250128E+03</pdfrwt>
<totfact> 0.37724279E+04</totfact>
</mgrwt>
</event>
<event>
 4    3  0.4009700E+000  0.2366716E+03  0.7546771E-02  0.1122030E+00
         21   -1    0    0  501  502  0.00000000000E+00  0.00000000000E+00  0.51330416280E+03  0.51330416280E+03  0.00000000000E+00 0.  1.
         21   -1    0    0  502  503 -0.00000000000E+00 -0.00000000000E+00 -0.11546682491E+03  0.11546682491E+03  0.00000000000E+00 0.  1.
          6    1    1    2  501    0  0.14710747002E+03  0.66662105801E+02  0.27260708411E+03  0.36100978712E+03  0.17300000000E+03 0.  1.
         -6    1    1    2    0  503 -0.14710747002E+03 -0.66662105801E+02  0.12523025377E+03  0.26776120060E+03  0.17300000000E+03 0.  1.
<mgrwt>
<rscale>  2 0.23667160E+03</rscale>
<asrwt>0</asrwt>
<pdfrwt beam="1">  1       21 0.78969870E-01 0.23667160E+03</pdfrwt>
<pdfrwt beam="2">  1       21 0.17764127E-01 0.23667160E+03</pdfrwt>
<totfact> 0.39867070E+04</totfact>
</mgrwt>
</event>
<event>
 4    3  0.4009700E+000  0.2295181E+03  0.7546771E-02  0.1126979E+00
         21   -1    0    0  503  502  0.00000000000E+00  0.00000000000E+00  0.24074872904E+03  0.24074872904E+03  0.00000000000E+00 0. -1.
         21   -1    0    0  501  503 -0.00000000000E+00 -0.00000000000E+00 -0.65889194857E+03  0.65889194857E+03  0.00000000000E+00 0.  1.
          6    1    1    2  501    0  0.27083720678E+02  0.14837801534E+03 -0.57669072120E+03  0.62068571055E+03  0.17300000000E+03 0.  1.
         -6    1    1    2    0  502 -0.27083720678E+02 -0.14837801534E+03  0.15854750166E+03  0.27895496706E+03  0.17300000000E+03 0. -1.
<mgrwt>
<rscale>  2 0.22951811E+03</rscale>
<asrwt>0</asrwt>
<pdfrwt beam="1">  1       21 0.37038266E-01 0.22951811E+03</pdfrwt>
<pdfrwt beam="2">  1       21 0.10136799E+00 0.22951811E+03</pdfrwt>
<totfact> 0.54375591E+03</totfact>
</mgrwt>
</event>
<event>
 4    3  0.4009700E+000  0.4513700E+03  0.7546771E-02  0.1027314E+00
         21   -1    0    0  501  502  0.00000000000E+00  0.00000000000E+00  0.58649896416E+03  0.58649896416E+03  0.00000000000E+00 0. -1.
         21   -1    0    0  502  503 -0.00000000000E+00 -0.00000000000E+00 -0.35655674589E+03  0.35655674589E+03  0.00000000000E+00 0.  1.
          6    1    1    2  501    0 -0.14279265310E+03 -0.39168373379E+03  0.19063928477E+03  0.48997778112E+03  0.17300000000E+03 0.  1.
         -6    1    1    2    0  503  0.14279265310E+03  0.39168373379E+03  0.39302933506E+02  0.45307792892E+03  0.17300000000E+03 0. -1.
<mgrwt>
<rscale>  2 0.45137001E+03</rscale>
<asrwt>0</asrwt>
<pdfrwt beam="1">  1       21 0.90230610E-01 0.45137001E+03</pdfrwt>
<pdfrwt beam="2">  1       21 0.54854884E-01 0.45137001E+03</pdfrwt>
<totfact> 0.28463578E+03</totfact>
</mgrwt>
</event>
<event>
 4    3  0.4009700E+000  0.2226337E+03  0.7546771E-02  0.1131935E+00
         21   -1    0    0  503  502  0.00000000000E+00  0.00000000000E+00  0.15553461321E+03  0.15553461321E+03  0.00000000000E+00 0. -1.
         21   -1    0    0  501  503 -0.00000000000E+00 -0.00000000000E+00 -0.62207176486E+03  0.62207176486E+03  0.00000000000E+00 0. -1.
          6    1    1    2  501    0  0.48854382007E+02 -0.13133928078E+03 -0.50479464258E+03  0.55170951459E+03  0.17300000000E+03 0. -1.
         -6    1    1    2    0  502 -0.48854382007E+02  0.13133928078E+03  0.38257490930E+02  0.22589686348E+03  0.17300000000E+03 0. -1.
<mgrwt>
<rscale>  2 0.22263368E+03</rscale>
<asrwt>0</asrwt>
<pdfrwt beam="1">  1       21 0.23928402E-01 0.22263368E+03</pdfrwt>
<pdfrwt beam="2">  1       21 0.95703350E-01 0.22263368E+03</pdfrwt>
<totfact> 0.14709877E+04</totfact>
</mgrwt>
</event>
<event>
 4    3  0.4009700E+000  0.2661991E+03  0.7546771E-02  0.1103475E+00
         21   -1    0    0  503  502  0.00000000000E+00  0.00000000000E+00  0.55809914676E+03  0.55809914676E+03  0.00000000000E+00 0. -1.
         21   -1    0    0  501  503 -0.00000000000E+00 -0.00000000000E+00 -0.14457323717E+03  0.14457323717E+03  0.00000000000E+00 0. -1.
          6    1    1    2  501    0  0.89148651057E+02  0.18161905138E+03  0.32935794023E+03  0.42348390123E+03  0.17300000000E+03 0. -1.
         -6    1    1    2    0  502 -0.89148651057E+02 -0.18161905138E+03  0.84167969359E+02  0.27918848271E+03  0.17300000000E+03 0. -1.
<mgrwt>
<rscale>  2 0.26619910E+03</rscale>
<asrwt>0</asrwt>
<pdfrwt beam="1">  1       21 0.85861406E-01 0.26619910E+03</pdfrwt>
<pdfrwt beam="2">  1       21 0.22242037E-01 0.26619910E+03</pdfrwt>
<totfact> 0.21293438E+04</totfact>
</mgrwt>
</event>
<event>
 4    3  0.4009700E+000  0.1877156E+03  0.7546771E-02  0.1160538E+00
         21   -1    0    0  503  502  0.00000000000E+00  0.00000000000E+00  0.12587945362E+04  0.12587945362E+04  0.00000000000E+00 0. -1.
         21   -1    0    0  501  503 -0.00000000000E+00 -0.00000000000E+00 -0.11884235503E+03  0.11884235503E+03  0.00000000000E+00 0. -1.
          6    1    1    2  501    0  0.26366209893E+02  0.67918802602E+02 -0.32279205120E+02  0.19047070078E+03  0.17300000000E+03 0. -1.
         -6    1    1    2    0  502 -0.26366209893E+02 -0.67918802602E+02  0.11722313863E+04  0.11871661905E+04  0.17300000000E+03 0. -1.
<mgrwt>
<rscale>  2 0.18771558E+03</rscale>
<asrwt>0</asrwt>
<pdfrwt beam="1">  1       21 0.19366069E+00 0.18771558E+03</pdfrwt>
<pdfrwt beam="2">  1       21 0.18283440E-01 0.18771558E+03</pdfrwt>
<totfact> 0.40442986E+03</totfact>
</mgrwt>
</event>
<event>
 4    3  0.4009700E+000  0.2805423E+03  0.7546771E-02  0.1095393E+00
         21   -1    0    0  501  502  0.00000000000E+00  0.00000000000E+00  0.10574857423E+03  0.10574857423E+03  0.00000000000E+00 0.  1.
         21   -1    0    0  502  503 -0.00000000000E+00 -0.00000000000E+00 -0.92839307845E+03  0.92839307845E+03  0.00000000000E+00 0. -1.
          6    1    1    2  501    0  0.17281830693E+03  0.13750926091E+03 -0.18104277513E+03  0.33388688275E+03  0.17300000000E+03 0. -1.
         -6    1    1    2    0  503 -0.17281830693E+03 -0.13750926091E+03 -0.64160172909E+03  0.70025476993E+03  0.17300000000E+03 0.  1.
<mgrwt>
<rscale>  2 0.28054227E+03</rscale>
<asrwt>0</asrwt>
<pdfrwt beam="1">  1       21 0.16269012E-01 0.28054227E+03</pdfrwt>
<pdfrwt beam="2">  1       21 0.14282970E+00 0.28054227E+03</pdfrwt>
<totfact> 0.10874944E+04</totfact>
</mgrwt>
</event>
<event>
 4    3  0.4009700E+000  0.2049127E+03  0.7546771E-02  0.1145659E+00
         21   -1    0    0  503  502  0.00000000000E+00  0.00000000000E+00  0.45449204180E+03  0.45449204180E+03  0.00000000000E+00 0. -1.
         21   -1    0    0  501  503 -0.00000000000E+00 -0.00000000000E+00 -0.13588954312E+03  0.13588954312E+03  0.00000000000E+00 0.  1.
          6    1    1    2  501    0  0.10808916637E+03 -0.19415070139E+02 -0.77179854057E+01  0.20505799213E+03  0.17300000000E+03 0.  1.
         -6    1    1    2    0  502 -0.10808916637E+03  0.19415070139E+02  0.32632048408E+03  0.38532359280E+03  0.17300000000E+03 0. -1.
<mgrwt>
<rscale>  2 0.20491270E+03</rscale>
<asrwt>0</asrwt>
<pdfrwt beam="1">  1       21 0.69921852E-01 0.20491270E+03</pdfrwt>
<pdfrwt beam="2">  1       21 0.20906084E-01 0.20491270E+03</pdfrwt>
<totfact> 0.39211642E+04</totfact>
</mgrwt>
</event>
<event>
 4    3  0.4009700E+000  0.2428448E+03  0.7546771E-02  0.1117912E+00
         21   -1    0    0  503  502  0.00000000000E+00  0.00000000000E+00  0.19333103499E+03  0.19333103499E+03  0.00000000000E+00 0. -1.
         21   -1    0    0  501  503 -0.00000000000E+00 -0.00000000000E+00 -0.34842229687E+03  0.34842229687E+03  0.00000000000E+00 0. -1.
          6    1    1    2  501    0 -0.12780162501E+03 -0.11274464478E+03 -0.17312786810E+03  0.29823961675E+03  0.17300000000E+03 0. -1.
         -6    1    1    2    0  502  0.12780162501E+03  0.11274464478E+03  0.18036606224E+02  0.24351371511E+03  0.17300000000E+03 0. -1.
<mgrwt>
<rscale>  2 0.24284483E+03</rscale>
<asrwt>0</asrwt>
<pdfrwt beam="1">  1       21 0.29743236E-01 0.24284483E+03</pdfrwt>
<pdfrwt beam="2">  1       21 0.53603430E-01 0.24284483E+03</pdfrwt>
<totfact> 0.34815087E+04</totfact>
</mgrwt>
</event>
<event>
 4    3  0.4009700E+000  0.2077129E+03  0.7546771E-02  0.1143390E+00
         21   -1    0    0  503  502  0.00000000000E+00  0.00000000000E+00  0.10312414583E+04  0.10312414583E+04  0.00000000000E+00 0. -1.
         21   -1    0    0  501  503 -0.00000000000E+00 -0.00000000000E+00 -0.45442612663E+02  0.45442612663E+02  0.00000000000E+00 0. -1.
          6    1    1    2  501    0  0.11450074001E+02  0.11438762740E+03  0.34127050435E+03  0.39951244116E+03  0.17300000000E+03 0. -1.
         -6    1    1    2    0  502 -0.11450074001E+02 -0.11438762740E+03  0.64452834126E+03  0.67717162978E+03  0.17300000000E+03 0. -1.
<mgrwt>
<rscale>  2 0.20771286E+03</rscale>
<asrwt>0</asrwt>
<pdfrwt beam="1">  1       21 0.15865252E+00 0.20771286E+03</pdfrwt>
<pdfrwt beam="2">  1       21 0.69911719E-02 0.20771286E+03</pdfrwt>
<totfact> 0.38680532E+04</totfact>
</mgrwt>
</event>
<event>
 4    3  0.4009700E+000  0.1978633E+03  0.7546771E-02  0.1151554E+00
         21   -1    0    0  503  502  0.00000000000E+00  0.00000000000E+00  0.12187109121E+03  0.12187109121E+03  0.00000000000E+00 0.  1.
         21   -1    0    0  501  503 -0.00000000000E+00 -0.00000000000E+00 -0.34722634288E+03  0.34722634288E+03  0.00000000000E+00 0.  1.
          6    1    1    2  501    0  0.63258662064E+02  0.72244312272E+02 -0.17684248990E+03  0.26537363323E+03  0.17300000000E+03 0.  1.
         -6    1    1    2    0  502 -0.63258662064E+02 -0.72244312272E+02 -0.48512761770E+02  0.20372380086E+03  0.17300000000E+03 0.  1.
<mgrwt>
<rscale>  2 0.19786333E+03</rscale>
<asrwt>0</asrwt>
<pdfrwt beam="1">  1       21 0.18749399E-01 0.19786333E+03</pdfrwt>
<pdfrwt beam="2">  1       21 0.53419437E-01 0.19786333E+03</pdfrwt>
<totfact> 0.86165928E+04</totfact>
</mgrwt>
</event>
<event>
 4    3  0.4009700E+000  0.2298023E+03  0.7546771E-02  0.1126779E+00
         21   -1    0    0  503  502  0.00000000000E+00  0.00000000000E+00  0.12486419004E+03  0.12486419004E+03  0.00000000000E+00 0.  1.
         21   -1    0    0  501  503 -0.00000000000E+00 -0.00000000000E+00 -0.42722153138E+03  0.42722153138E+03  0.00000000000E+00 0. -1.
          6    1    1    2  501    0  0.85637556122E+02  0.12468480754E+03 -0.12351928940E+03  0.26089482000E+03  0.17300000000E+03 0.  1.
         -6    1    1    2    0  502 -0.85637556122E+02 -0.12468480754E+03 -0.17883805194E+03  0.29119090142E+03  0.17300000000E+03 0. -1.
<mgrwt>
<rscale>  2 0.22980229E+03</rscale>
<asrwt>0</asrwt>
<pdfrwt beam="1">  1       21 0.19209875E-01 0.22980229E+03</pdfrwt>
<pdfrwt beam="2">  1       21 0.65726390E-01 0.22980229E+03</pdfrwt>
<totfact> 0.52032220E+04</totfact>
</mgrwt>
</event>
<event>
 4    3  0.4009700E+000  0.1783825E+03  0.7546771E-02  0.1169378E+00
         21   -1    0    0  503  502  0.00000000000E+00  0.00000000000E+00  0.23545652049E+03  0.23545652049E+03  0.00000000000E+00 0. -1.
         21   -1    0    0  501  503 -0.00000000000E+00 -0.00000000000E+00 -0.21404392829E+03  0.21404392829E+03  0.00000000000E+00 0. -1.
          6    1    1    2  501    0 -0.63166822220E+01  0.43027981863E+02 -0.12574876569E+03  0.21824999375E+03  0.17300000000E+03 0. -1.
         -6    1    1    2    0  502  0.63166822220E+01 -0.43027981863E+02  0.14716135789E+03  0.23125045504E+03  0.17300000000E+03 0. -1.
<mgrwt>
<rscale>  2 0.17838248E+03</rscale>
<asrwt>0</asrwt>
<pdfrwt beam="1">  1       21 0.36224080E-01 0.17838248E+03</pdfrwt>
<pdfrwt beam="2">  1       21 0.32929835E-01 0.17838248E+03</pdfrwt>
<totfact> 0.65650319E+04</totfact>
</mgrwt>
</event>
<event>
 4    3  0.4009700E+000  0.1786989E+03  0.7546771E-02  0.1169068E+00
         21   -1    0    0  501  502  0.00000000000E+00  0.00000000000E+00  0.47164752204E+02  0.47164752204E+02  0.00000000000E+00 0. -1.
         21   -1    0    0  502  503 -0.00000000000E+00 -0.00000000000E+00 -0.69600851677E+03  0.69600851677E+03  0.00000000000E+00 0. -1.
          6    1    1    2  501    0 -0.14616422095E+02  0.42316125654E+02 -0.26310809881E+03  0.31805528756E+03  0.17300000000E+03 0. -1.
         -6    1    1    2    0  503  0.14616422095E+02 -0.42316125654E+02 -0.38573566575E+03  0.42511798141E+03  0.17300000000E+03 0. -1.
<mgrwt>
<rscale>  2 0.17869889E+03</rscale>
<asrwt>0</asrwt>
<pdfrwt beam="1">  1       21 0.72561154E-02 0.17869889E+03</pdfrwt>
<pdfrwt beam="2">  1       21 0.10707824E+00 0.17869889E+03</pdfrwt>
<totfact> 0.99659478E+04</totfact>
</mgrwt>
</event>
<event>
 4    3  0.4009700E+000  0.1731019E+03  0.7546771E-02  0.1174651E+00
         21   -1    0    0  501  502  0.00000000000E+00  0.00000000000E+00  0.50404034179E+02  0.50404034179E+02  0.00000000000E+00 0. -1.
         21   -1    0    0  502  503 -0.00000000000E+00 -0.00000000000E+00 -0.68925441335E+03  0.68925441335E+03  0.00000000000E+00 0. -1.
          6    1    1    2  501    0  0.28417053242E+01  0.52161120999E+01 -0.18228877879E+03  0.25138313783E+03  0.17300000000E+03 0. -1.
         -6    1    1    2    0  503 -0.28417053242E+01 -0.52161120999E+01 -0.45656160038E+03  0.48827530969E+03  0.17300000000E+03 0. -1.
<mgrwt>
<rscale>  2 0.17310194E+03</rscale>
<asrwt>0</asrwt>
<pdfrwt beam="1">  1       21 0.77544677E-02 0.17310194E+03</pdfrwt>
<pdfrwt beam="2">  1       21 0.10603913E+00 0.17310194E+03</pdfrwt>
<totfact> 0.91166733E+04</totfact>
</mgrwt>
</event>
<event>
 4    3  0.4009700E+000  0.1796834E+03  0.7546771E-02  0.1168110E+00
         21   -1    0    0  501  502  0.00000000000E+00  0.00000000000E+00  0.92791203125E+03  0.92791203125E+03  0.00000000000E+00 0. -1.
         21   -1    0    0  502  503 -0.00000000000E+00 -0.00000000000E+00 -0.66790939444E+02  0.66790939444E+02  0.00000000000E+00 0. -1.
          6    1    1    2  501    0  0.44681256417E+02  0.18992344605E+02  0.77479654384E+03  0.79535891783E+03  0.17300000000E+03 0. -1.
         -6    1    1    2    0  503 -0.44681256417E+02 -0.18992344605E+02  0.86324547961E+02  0.19934405286E+03  0.17300000000E+03 0. -1.
<mgrwt>
<rscale>  2 0.17968340E+03</rscale>
<asrwt>0</asrwt>
<pdfrwt beam="1">  1       21 0.14275569E+00 0.17968340E+03</pdfrwt>
<pdfrwt beam="2">  1       21 0.10275530E-01 0.17968340E+03</pdfrwt>
<totfact> 0.26526853E+04</totfact>
</mgrwt>
</event>
<event>
 4    3  0.4009700E+000  0.2091549E+03  0.7546771E-02  0.1142237E+00
         21   -1    0    0  501  502  0.00000000000E+00  0.00000000000E+00  0.79460314389E+02  0.79460314389E+02  0.00000000000E+00 0.  1.
         21   -1    0    0  502  503 -0.00000000000E+00 -0.00000000000E+00 -0.58201967131E+03  0.58201967131E+03  0.00000000000E+00 0.  1.
          6    1    1    2  501    0  0.74101415773E+02 -0.91245561142E+02 -0.32820331708E+03  0.38918272005E+03  0.17300000000E+03 0.  1.
         -6    1    1    2    0  503 -0.74101415773E+02  0.91245561142E+02 -0.17435603984E+03  0.27229726564E+03  0.17300000000E+03 0.  1.
<mgrwt>
<rscale>  2 0.20915490E+03</rscale>
<asrwt>0</asrwt>
<pdfrwt beam="1">  1       21 0.12224664E-01 0.20915490E+03</pdfrwt>
<pdfrwt beam="2">  1       21 0.89541486E-01 0.20915490E+03</pdfrwt>
<totfact> 0.59868909E+04</totfact>
</mgrwt>
</event>
<event>
 4    3  0.4009700E+000  0.1737857E+03  0.7546771E-02  0.1173956E+00
         21   -1    0    0  501  502  0.00000000000E+00  0.00000000000E+00  0.14910461403E+03  0.14910461403E+03  0.00000000000E+00 0. -1.
         21   -1    0    0  502  503 -0.00000000000E+00 -0.00000000000E+00 -0.33590878745E+03  0.33590878745E+03  0.00000000000E+00 0. -1.
          6    1    1    2  501    0  0.11319967063E+02 -0.12013876078E+02  0.59396809824E+02  0.18365580821E+03  0.17300000000E+03 0. -1.
         -6    1    1    2    0  503 -0.11319967063E+02  0.12013876078E+02 -0.24620098324E+03  0.30135759327E+03  0.17300000000E+03 0. -1.
<mgrwt>
<rscale>  2 0.17378572E+03</rscale>
<asrwt>0</asrwt>
<pdfrwt beam="1">  1       21 0.22939171E-01 0.17378572E+03</pdfrwt>
<pdfrwt beam="2">  1       21 0.51678275E-01 0.17378572E+03</pdfrwt>
<totfact> 0.63971137E+04</totfact>
</mgrwt>
</event>
<event>
 4    3  0.4009700E+000  0.2653950E+03  0.7546771E-02  0.1103944E+00
         21   -1    0    0  501  502  0.00000000000E+00  0.00000000000E+00  0.25812947574E+03  0.25812947574E+03  0.00000000000E+00 0.  1.
         21   -1    0    0  502  503 -0.00000000000E+00 -0.00000000000E+00 -0.34290075865E+03  0.34290075865E+03  0.00000000000E+00 0.  1.
          6    1    1    2  501    0 -0.10775527990E+03  0.16998329193E+03  0.93427493299E+02  0.28135958556E+03  0.17300000000E+03 0.  1.
         -6    1    1    2    0  503  0.10775527990E+03 -0.16998329193E+03 -0.17819877621E+03  0.31967064883E+03  0.17300000000E+03 0.  1.
<mgrwt>
<rscale>  2 0.26539503E+03</rscale>
<asrwt>0</asrwt>
<pdfrwt beam="1">  1       21 0.39712227E-01 0.26539503E+03</pdfrwt>
<pdfrwt beam="2">  1       21 0.52753963E-01 0.26539503E+03</pdfrwt>
<totfact> 0.20032988E+04</totfact>
</mgrwt>
</event>
<event>
 4    3  0.4009700E+000  0.1820044E+03  0.7546771E-02  0.1165877E+00
         21   -1    0    0  501  502  0.00000000000E+00  0.00000000000E+00  0.46259308209E+03  0.46259308209E+03  0.00000000000E+00 0. -1.
         21   -1    0    0  502  503 -0.00000000000E+00 -0.00000000000E+00 -0.11269143078E+03  0.11269143078E+03  0.00000000000E+00 0. -1.
          6    1    1    2  501    0  0.55020065191E+02  0.13015563454E+02  0.34862601039E+03  0.39327561275E+03  0.17300000000E+03 0. -1.
         -6    1    1    2    0  503 -0.55020065191E+02 -0.13015563454E+02  0.12756409209E+01  0.18200890013E+03  0.17300000000E+03 0. -1.
<mgrwt>
<rscale>  2 0.18200443E+03</rscale>
<asrwt>0</asrwt>
<pdfrwt beam="1">  1       21 0.71168165E-01 0.18200443E+03</pdfrwt>
<pdfrwt beam="2">  1       21 0.17337143E-01 0.18200443E+03</pdfrwt>
<totfact> 0.54019862E+04</totfact>
</mgrwt>
</event>
<event>
 4    3  0.4009700E+000  0.1867013E+03  0.7546771E-02  0.1161471E+00
         21   -1    0    0  501  502  0.00000000000E+00  0.00000000000E+00  0.58918552006E+03  0.58918552006E+03  0.00000000000E+00 0. -1.
         21   -1    0    0  502  503 -0.00000000000E+00 -0.00000000000E+00 -0.10265249800E+03  0.10265249800E+03  0.00000000000E+00 0.  1.
          6    1    1    2  501    0 -0.59630140855E+02 -0.37048751429E+02  0.46842437094E+03  0.50426060224E+03  0.17300000000E+03 0. -1.
         -6    1    1    2    0  503  0.59630140855E+02  0.37048751429E+02  0.18108651114E+02  0.18757741582E+03  0.17300000000E+03 0.  1.
<mgrwt>
<rscale>  2 0.18670127E+03</rscale>
<asrwt>0</asrwt>
<pdfrwt beam="1">  1       21 0.90643923E-01 0.18670127E+03</pdfrwt>
<pdfrwt beam="2">  1       21 0.15792692E-01 0.18670127E+03</pdfrwt>
<totfact> 0.37017966E+04</totfact>
</mgrwt>
</event>
<event>
 4    3  0.4009700E+000  0.1982891E+03  0.7546771E-02  0.1151191E+00
         21   -1    0    0  501  502  0.00000000000E+00  0.00000000000E+00  0.41356165989E+02  0.41356165989E+02  0.00000000000E+00 0.  1.
         21   -1    0    0  502  503 -0.00000000000E+00 -0.00000000000E+00 -0.96181852436E+03  0.96181852436E+03  0.00000000000E+00 0. -1.
          6    1    1    2  501    0  0.74988662478E+02  0.61369989492E+02 -0.40637644388E+03  0.45217296387E+03  0.17300000000E+03 0. -1.
         -6    1    1    2    0  503 -0.74988662478E+02 -0.61369989492E+02 -0.51408591449E+03  0.55100172648E+03  0.17300000000E+03 0. -1.
<mgrwt>
<rscale>  2 0.19828912E+03</rscale>
<asrwt>0</asrwt>
<pdfrwt beam="1">  1       21 0.63624871E-02 0.19828912E+03</pdfrwt>
<pdfrwt beam="2">  1       21 0.14797208E+00 0.19828912E+03</pdfrwt>
<totfact> 0.55064816E+04</totfact>
</mgrwt>
</event>
<event>
 4    3  0.4009700E+000  0.1764663E+03  0.7546771E-02  0.1171267E+00
         21   -1    0    0  503  502  0.00000000000E+00  0.00000000000E+00  0.51624761488E+03  0.51624761488E+03  0.00000000000E+00 0. -1.
         21   -1    0    0  501  503 -0.00000000000E+00 -0.00000000000E+00 -0.72177998475E+02  0.72177998475E+02  0.00000000000E+00 0. -1.
          6    1    1    2  501    0 -0.15455985258E+00  0.34804185646E+02  0.34128366957E+03  0.38420684318E+03  0.17300000000E+03 0. -1.
         -6    1    1    2    0  502  0.15455985258E+00 -0.34804185646E+02  0.10278594684E+03  0.20421877018E+03  0.17300000000E+03 0. -1.
<mgrwt>
<rscale>  2 0.17646630E+03</rscale>
<asrwt>0</asrwt>
<pdfrwt beam="1">  1       21 0.79422707E-01 0.17646630E+03</pdfrwt>
<pdfrwt beam="2">  1       21 0.11104308E-01 0.17646630E+03</pdfrwt>
<totfact> 0.94834185E+04</totfact>
</mgrwt>
</event>
<event>
 4    3  0.4009700E+000  0.2950008E+03  0.7546771E-02  0.1087767E+00
         21   -1    0    0  503  502  0.00000000000E+00  0.00000000000E+00  0.23760623763E+03  0.23760623763E+03  0.00000000000E+00 0. -1.
         21   -1    0    0  501  503 -0.00000000000E+00 -0.00000000000E+00 -0.88304714319E+03  0.88304714319E+03  0.00000000000E+00 0.  1.
          6    1    1    2  501    0 -0.12411775797E+03 -0.20418435787E+03 -0.75137314201E+03  0.80720943278E+03  0.17300000000E+03 0.  1.
         -6    1    1    2    0  502  0.12411775797E+03  0.20418435787E+03  0.10593223644E+03  0.31344394804E+03  0.17300000000E+03 0. -1.
<mgrwt>
<rscale>  2 0.29500080E+03</rscale>
<asrwt>0</asrwt>
<pdfrwt beam="1">  1       21 0.36554806E-01 0.29500080E+03</pdfrwt>
<pdfrwt beam="2">  1       21 0.13585341E+00 0.29500080E+03</pdfrwt>
<totfact> 0.25866214E+03</totfact>
</mgrwt>
</event>
<event>
 4    3  0.4009700E+000  0.1896531E+03  0.7546771E-02  0.1158775E+00
         21   -1    0    0  503  502  0.00000000000E+00  0.00000000000E+00  0.20446714411E+02  0.20446714411E+02  0.00000000000E+00 0.  1.
         21   -1    0    0  501  503 -0.00000000000E+00 -0.00000000000E+00 -0.17750089719E+04  0.17750089719E+04  0.00000000000E+00 0.  1.
          6    1    1    2  501    0 -0.77661858009E+02 -0.28138093542E+01 -0.96220971782E+03  0.98072209253E+03  0.17300000000E+03 0.  1.
         -6    1    1    2    0  502  0.77661858009E+02  0.28138093542E+01 -0.79235253967E+03  0.81473359378E+03  0.17300000000E+03 0.  1.
<mgrwt>
<rscale>  2 0.18965306E+03</rscale>
<asrwt>0</asrwt>
<pdfrwt beam="1">  1       21 0.31456478E-02 0.18965306E+03</pdfrwt>
<pdfrwt beam="2">  1       21 0.27307836E+00 0.18965306E+03</pdfrwt>
<totfact> 0.28616554E+04</totfact>
</mgrwt>
</event>
<event>
 4    3  0.4009700E+000  0.2273084E+03  0.7546771E-02  0.1128549E+00
         21   -1    0    0  501  502  0.00000000000E+00  0.00000000000E+00  0.62424493942E+02  0.62424493942E+02  0.00000000000E+00 0.  1.
         21   -1    0    0  502  503 -0.00000000000E+00 -0.00000000000E+00 -0.10343280333E+04  0.10343280333E+04  0.00000000000E+00 0. -1.
          6    1    1    2  501    0  0.23233025668E+02 -0.14560341262E+03 -0.24085486215E+03  0.33117999920E+03  0.17300000000E+03 0.  1.
         -6    1    1    2    0  503 -0.23233025668E+02  0.14560341262E+03 -0.73104867718E+03  0.76557252802E+03  0.17300000000E+03 0. -1.
<mgrwt>
<rscale>  2 0.22730844E+03</rscale>
<asrwt>0</asrwt>
<pdfrwt beam="1">  1       21 0.96037690E-02 0.22730844E+03</pdfrwt>
<pdfrwt beam="2">  1       21 0.15912738E+00 0.22730844E+03</pdfrwt>
<totfact> 0.21765890E+04</totfact>
</mgrwt>
</event>
<event>
 4    3  0.4009700E+000  0.2330139E+03  0.7546771E-02  0.1124536E+00
         21   -1    0    0  503  502  0.00000000000E+00  0.00000000000E+00  0.15354401329E+04  0.15354401329E+04  0.00000000000E+00 0.  1.
         21   -1    0    0  501  503 -0.00000000000E+00 -0.00000000000E+00 -0.52567250432E+02  0.52567250432E+02  0.00000000000E+00 0. -1.
          6    1    1    2  501    0 -0.15305547124E+03  0.30667273019E+02  0.28717930267E+03  0.36982078199E+03  0.17300000000E+03 0. -1.
         -6    1    1    2    0  502  0.15305547124E+03 -0.30667273019E+02  0.11956935798E+04  0.12181866014E+04  0.17300000000E+03 0.  1.
<mgrwt>
<rscale>  2 0.23301386E+03</rscale>
<asrwt>0</asrwt>
<pdfrwt beam="1">  1       21 0.23622153E+00 0.23301386E+03</pdfrwt>
<pdfrwt beam="2">  1       21 0.80872705E-02 0.23301386E+03</pdfrwt>
<totfact> 0.91230759E+03</totfact>
</mgrwt>
</event>
<event>
 4    3  0.4009700E+000  0.2688672E+03  0.7546771E-02  0.1101930E+00
         21   -1    0    0  503  502  0.00000000000E+00  0.00000000000E+00  0.13503660815E+03  0.13503660815E+03  0.00000000000E+00 0.  1.
         21   -1    0    0  501  503 -0.00000000000E+00 -0.00000000000E+00 -0.53584987722E+03  0.53584987722E+03  0.00000000000E+00 0. -1.
          6    1    1    2  501    0 -0.99584917453E+02 -0.18012057284E+03 -0.21082300730E+03  0.34166638253E+03  0.17300000000E+03 0. -1.
         -6    1    1    2    0  502  0.99584917453E+02  0.18012057284E+03 -0.18999026178E+03  0.32922010284E+03  0.17300000000E+03 0.  1.
<mgrwt>
<rscale>  2 0.26886721E+03</rscale>
<asrwt>0</asrwt>
<pdfrwt beam="1">  1       21 0.20774862E-01 0.26886721E+03</pdfrwt>
<pdfrwt beam="2">  1       21 0.82438445E-01 0.26886721E+03</pdfrwt>
<totfact> 0.26582936E+04</totfact>
</mgrwt>
</event>
<event>
 4    3  0.4009700E+000  0.1738034E+03  0.7546771E-02  0.1173939E+00
         21   -1    0    0  501  502  0.00000000000E+00  0.00000000000E+00  0.13643532316E+03  0.13643532316E+03  0.00000000000E+00 0.  1.
         21   -1    0    0  502  503 -0.00000000000E+00 -0.00000000000E+00 -0.22222031209E+03  0.22222031209E+03  0.00000000000E+00 0.  1.
          6    1    1    2  501    0 -0.44184939605E+01  0.16096076752E+02 -0.53747657329E+02  0.18192420797E+03  0.17300000000E+03 0.  1.
         -6    1    1    2    0  503  0.44184939605E+01 -0.16096076752E+02 -0.32037331602E+02  0.17673142729E+03  0.17300000000E+03 0.  1.
<mgrwt>
<rscale>  2 0.17380336E+03</rscale>
<asrwt>0</asrwt>
<pdfrwt beam="1">  1       21 0.20990050E-01 0.17380336E+03</pdfrwt>
<pdfrwt beam="2">  1       21 0.34187740E-01 0.17380336E+03</pdfrwt>
<totfact> 0.17484487E+05</totfact>
</mgrwt>
</event>
<event>
 4    3  0.4009700E+000  0.1872782E+03  0.7546771E-02  0.1160939E+00
         21   -1    0    0  503  502  0.00000000000E+00  0.00000000000E+00  0.69430897612E+03  0.69430897612E+03  0.00000000000E+00 0. -1.
         21   -1    0    0  501  503 -0.00000000000E+00 -0.00000000000E+00 -0.50665631581E+02  0.50665631581E+02  0.00000000000E+00 0. -1.
          6    1    1    2  501    0  0.28374347012E+02 -0.65871148162E+02  0.30152064940E+03  0.35494762113E+03  0.17300000000E+03 0. -1.
         -6    1    1    2    0  502 -0.28374347012E+02  0.65871148162E+02  0.34212269514E+03  0.39002698658E+03  0.17300000000E+03 0. -1.
<mgrwt>
<rscale>  2 0.18727817E+03</rscale>
<asrwt>0</asrwt>
<pdfrwt beam="1">  1       21 0.10681676E+00 0.18727817E+03</pdfrwt>
<pdfrwt beam="2">  1       21 0.77947131E-02 0.18727817E+03</pdfrwt>
<totfact> 0.88228264E+04</totfact>
</mgrwt>
</event>
<event>
 4    3  0.4009700E+000  0.2165075E+03  0.7546771E-02  0.1136514E+00
         21   -1    0    0  503  502  0.00000000000E+00  0.00000000000E+00  0.55211901242E+03  0.55211901242E+03  0.00000000000E+00 0. -1.
         21   -1    0    0  501  503 -0.00000000000E+00 -0.00000000000E+00 -0.86352936725E+02  0.86352936725E+02  0.00000000000E+00 0.  1.
          6    1    1    2  501    0 -0.24145580385E+02 -0.12791991017E+03  0.27427651334E+03  0.34943256608E+03  0.17300000000E+03 0.  1.
         -6    1    1    2    0  502  0.24145580385E+02  0.12791991017E+03  0.19148956236E+03  0.28903938307E+03  0.17300000000E+03 0.  1.
<mgrwt>
<rscale>  2 0.21650753E+03</rscale>
<asrwt>0</asrwt>
<pdfrwt beam="1">  1       21 0.84941384E-01 0.21650753E+03</pdfrwt>
<pdfrwt beam="2">  1       21 0.13285068E-01 0.21650753E+03</pdfrwt>
<totfact> 0.58005501E+04</totfact>
</mgrwt>
</event>
<event>
 4    3  0.4009700E+000  0.3847721E+03  0.7546771E-02  0.1049184E+00
         21   -1    0    0  503  502  0.00000000000E+00  0.00000000000E+00  0.82684984710E+03  0.82684984710E+03  0.00000000000E+00 0.  1.
         21   -1    0    0  501  503 -0.00000000000E+00 -0.00000000000E+00 -0.18593179319E+03  0.18593179319E+03  0.00000000000E+00 0. -1.
          6    1    1    2  501    0  0.75883829935E+02  0.33520472831E+03  0.22305438948E+03  0.44475029645E+03  0.17300000000E+03 0. -1.
         -6    1    1    2    0  502 -0.75883829935E+02 -0.33520472831E+03  0.41786366444E+03  0.56803134384E+03  0.17300000000E+03 0.  1.
<mgrwt>
<rscale>  2 0.38477210E+03</rscale>
<asrwt>0</asrwt>
<pdfrwt beam="1">  1       21 0.12720767E+00 0.38477210E+03</pdfrwt>
<pdfrwt beam="2">  1       21 0.28604892E-01 0.38477210E+03</pdfrwt>
<totfact> 0.47789337E+03</totfact>
</mgrwt>
</event>
<event>
 4    3  0.4009700E+000  0.1928678E+03  0.7546771E-02  0.1155900E+00
         21   -1    0    0  501  502  0.00000000000E+00  0.00000000000E+00  0.74591074798E+03  0.74591074798E+03  0.00000000000E+00 0.  1.
         21   -1    0    0  502  503 -0.00000000000E+00 -0.00000000000E+00 -0.12509364160E+03  0.12509364160E+03  0.00000000000E+00 0.  1.
          6    1    1    2  501    0  0.81679248107E+02 -0.24443472120E+02  0.64812497215E+03  0.67621295642E+03  0.17300000000E+03 0.  1.
         -6    1    1    2    0  503 -0.81679248107E+02  0.24443472120E+02 -0.27307865774E+02  0.19479143316E+03  0.17300000000E+03 0.  1.
<mgrwt>
<rscale>  2 0.19286779E+03</rscale>
<asrwt>0</asrwt>
<pdfrwt beam="1">  1       21 0.11475550E+00 0.19286779E+03</pdfrwt>
<pdfrwt beam="2">  1       21 0.19245176E-01 0.19286779E+03</pdfrwt>
<totfact> 0.14613527E+04</totfact>
</mgrwt>
</event>
<event>
 4    3  0.4009700E+000  0.2622276E+03  0.7546771E-02  0.1105812E+00
         21   -1    0    0  501  502  0.00000000000E+00  0.00000000000E+00  0.13367750975E+03  0.13367750975E+03  0.00000000000E+00 0.  1.
         21   -1    0    0  502  503 -0.00000000000E+00 -0.00000000000E+00 -0.11980292959E+04  0.11980292959E+04  0.00000000000E+00 0. -1.
          6    1    1    2  501    0 -0.19692789071E+03 -0.73285649880E+01 -0.29189531849E+02  0.26384717314E+03  0.17300000000E+03 0.  1.
         -6    1    1    2    0  503  0.19692789071E+03  0.73285649880E+01 -0.10351622543E+04  0.10678596325E+04  0.17300000000E+03 0. -1.
<mgrwt>
<rscale>  2 0.26222758E+03</rscale>
<asrwt>0</asrwt>
<pdfrwt beam="1">  1       21 0.20565770E-01 0.26222758E+03</pdfrwt>
<pdfrwt beam="2">  1       21 0.18431220E+00 0.26222758E+03</pdfrwt>
<totfact> 0.35216719E+03</totfact>
</mgrwt>
</event>
<event>
 4    3  0.4009700E+000  0.1772180E+03  0.7546771E-02  0.1170523E+00
         21   -1    0    0  503  502  0.00000000000E+00  0.00000000000E+00  0.14209773444E+04  0.14209773444E+04  0.00000000000E+00 0. -1.
         21   -1    0    0  501  503 -0.00000000000E+00 -0.00000000000E+00 -0.37310782770E+02  0.37310782770E+02  0.00000000000E+00 0.  1.
          6    1    1    2  501    0 -0.37539943005E+02 -0.82446861334E+01  0.22630550982E+03  0.28743765575E+03  0.17300000000E+03 0.  1.
         -6    1    1    2    0  502  0.37539943005E+02  0.82446861334E+01  0.11573610518E+04  0.11708504715E+04  0.17300000000E+03 0. -1.
<mgrwt>
<rscale>  2 0.17721801E+03</rscale>
<asrwt>0</asrwt>
<pdfrwt beam="1">  1       21 0.21861186E+00 0.17721801E+03</pdfrwt>
<pdfrwt beam="2">  1       21 0.57401215E-02 0.17721801E+03</pdfrwt>
<totfact> 0.22093617E+04</totfact>
</mgrwt>
</event>
<event>
 4    3  0.4009700E+000  0.1761670E+03  0.7546771E-02  0.1171565E+00
         21   -1    0    0  501  502  0.00000000000E+00  0.00000000000E+00  0.13196695663E+03  0.13196695663E+03  0.00000000000E+00 0. -1.
         21   -1    0    0  502  503 -0.00000000000E+00 -0.00000000000E+00 -0.25449689510E+03  0.25449689510E+03  0.00000000000E+00 0. -1.
          6    1    1    2  501    0  0.70702523367E+00  0.33246216910E+02 -0.80165617020E+01  0.17634930135E+03  0.17300000000E+03 0. -1.
         -6    1    1    2    0  503 -0.70702523367E+00 -0.33246216910E+02 -0.11451337677E+03  0.21011455039E+03  0.17300000000E+03 0. -1.
<mgrwt>
<rscale>  2 0.17616700E+03</rscale>
<asrwt>0</asrwt>
<pdfrwt beam="1">  1       21 0.20302609E-01 0.17616700E+03</pdfrwt>
<pdfrwt beam="2">  1       21 0.39153368E-01 0.17616700E+03</pdfrwt>
<totfact> 0.14192846E+05</totfact>
</mgrwt>
</event>
<event>
 4    3  0.4009700E+000  0.2038757E+03  0.7546771E-02  0.1146510E+00
         21   -1    0    0  501  502  0.00000000000E+00  0.00000000000E+00  0.20210838617E+03  0.20210838617E+03  0.00000000000E+00 0.  1.
         21   -1    0    0  502  503 -0.00000000000E+00 -0.00000000000E+00 -0.31987191463E+03  0.31987191463E+03  0.00000000000E+00 0.  1.
          6    1    1    2  501    0  0.27151127049E+02  0.10439892407E+03  0.97071515452E+02  0.22580566459E+03  0.17300000000E+03 0.  1.
         -6    1    1    2    0  503 -0.27151127049E+02 -0.10439892407E+03 -0.21483504391E+03  0.29617463622E+03  0.17300000000E+03 0.  1.
<mgrwt>
<rscale>  2 0.20387574E+03</rscale>
<asrwt>0</asrwt>
<pdfrwt beam="1">  1       21 0.31093598E-01 0.20387574E+03</pdfrwt>
<pdfrwt beam="2">  1       21 0.49211064E-01 0.20387574E+03</pdfrwt>
<totfact> 0.38910258E+04</totfact>
</mgrwt>
</event>
<event>
 4    3  0.4009700E+000  0.1968499E+03  0.7546771E-02  0.1152424E+00
         21   -1    0    0  503  502  0.00000000000E+00  0.00000000000E+00  0.52472168407E+03  0.52472168407E+03  0.00000000000E+00 0.  1.
         21   -1    0    0  501  503 -0.00000000000E+00 -0.00000000000E+00 -0.76359187424E+02  0.76359187424E+02  0.00000000000E+00 0.  1.
          6    1    1    2  501    0  0.93513619741E+02 -0.87232813209E+01  0.27867808798E+03  0.34119110398E+03  0.17300000000E+03 0.  1.
         -6    1    1    2    0  502 -0.93513619741E+02  0.87232813209E+01  0.16968440867E+03  0.25988976751E+03  0.17300000000E+03 0.  1.
<mgrwt>
<rscale>  2 0.19684992E+03</rscale>
<asrwt>0</asrwt>
<pdfrwt beam="1">  1       21 0.80726411E-01 0.19684992E+03</pdfrwt>
<pdfrwt beam="2">  1       21 0.11747568E-01 0.19684992E+03</pdfrwt>
<totfact> 0.81987690E+04</totfact>
</mgrwt>
</event>
<event>
 4    3  0.4009700E+000  0.2005938E+03  0.7546771E-02  0.1149239E+00
         21   -1    0    0  503  502  0.00000000000E+00  0.00000000000E+00  0.22868257830E+03  0.22868257830E+03  0.00000000000E+00 0.  1.
         21   -1    0    0  501  503 -0.00000000000E+00 -0.00000000000E+00 -0.30352315825E+03  0.30352315825E+03  0.00000000000E+00 0. -1.
          6    1    1    2  501    0  0.57433186538E+01 -0.10137001602E+03 -0.20993439624E+03  0.29036238837E+03  0.17300000000E+03 0. -1.
         -6    1    1    2    0  502 -0.57433186538E+01  0.10137001602E+03  0.13509381629E+03  0.24184334817E+03  0.17300000000E+03 0.  1.
<mgrwt>
<rscale>  2 0.20059378E+03</rscale>
<asrwt>0</asrwt>
<pdfrwt beam="1">  1       21 0.35181935E-01 0.20059378E+03</pdfrwt>
<pdfrwt beam="2">  1       21 0.46695871E-01 0.20059378E+03</pdfrwt>
<totfact> 0.34056271E+04</totfact>
</mgrwt>
</event>
<event>
 4    3  0.4009700E+000  0.2090943E+03  0.7546771E-02  0.1142285E+00
         21   -1    0    0  503  502  0.00000000000E+00  0.00000000000E+00  0.13814967170E+03  0.13814967170E+03  0.00000000000E+00 0.  1.
         21   -1    0    0  501  503 -0.00000000000E+00 -0.00000000000E+00 -0.44545160420E+03  0.44545160420E+03  0.00000000000E+00 0.  1.
          6    1    1    2  501    0 -0.11641234718E+03 -0.15478173879E+02 -0.31066831662E+03  0.37447992122E+03  0.17300000000E+03 0.  1.
         -6    1    1    2    0  502  0.11641234718E+03  0.15478173879E+02  0.33663841220E+01  0.20912135468E+03  0.17300000000E+03 0.  1.
<mgrwt>
<rscale>  2 0.20909426E+03</rscale>
<asrwt>0</asrwt>
<pdfrwt beam="1">  1       21 0.21253796E-01 0.20909426E+03</pdfrwt>
<pdfrwt beam="2">  1       21 0.68531016E-01 0.20909426E+03</pdfrwt>
<totfact> 0.39651217E+04</totfact>
</mgrwt>
</event>
<event>
 4    3  0.4009700E+000  0.3149217E+03  0.7546771E-02  0.1078011E+00
         21   -1    0    0  503  502  0.00000000000E+00  0.00000000000E+00  0.25896318927E+03  0.25896318927E+03  0.00000000000E+00 0.  1.
         21   -1    0    0  501  503 -0.00000000000E+00 -0.00000000000E+00 -0.45533400196E+03  0.45533400196E+03  0.00000000000E+00 0.  1.
          6    1    1    2  501    0  0.50028493485E+02  0.25834822466E+03 -0.24056217642E+03  0.39629006557E+03  0.17300000000E+03 0.  1.
         -6    1    1    2    0  502 -0.50028493485E+02 -0.25834822466E+03  0.44191363728E+02  0.31800712566E+03  0.17300000000E+03 0.  1.
<mgrwt>
<rscale>  2 0.31492167E+03</rscale>
<asrwt>0</asrwt>
<pdfrwt beam="1">  1       21 0.39840491E-01 0.31492167E+03</pdfrwt>
<pdfrwt beam="2">  1       21 0.70051385E-01 0.31492167E+03</pdfrwt>
<totfact> 0.10511140E+04</totfact>
</mgrwt>
</event>
<event>
 4    3  0.4009700E+000  0.2534581E+03  0.7546771E-02  0.1111139E+00
         21   -1    0    0  503  502  0.00000000000E+00  0.00000000000E+00  0.25542026729E+03  0.25542026729E+03  0.00000000000E+00 0.  1.
         21   -1    0    0  501  503 -0.00000000000E+00 -0.00000000000E+00 -0.28172166876E+03  0.28172166876E+03  0.00000000000E+00 0.  1.
          6    1    1    2  501    0 -0.15327834363E+03 -0.10400852062E+03 -0.10109924468E+03  0.27287740885E+03  0.17300000000E+03 0.  1.
         -6    1    1    2    0  502  0.15327834363E+03  0.10400852062E+03  0.74797843207E+02  0.26426452720E+03  0.17300000000E+03 0.  1.
<mgrwt>
<rscale>  2 0.25345813E+03</rscale>
<asrwt>0</asrwt>
<pdfrwt beam="1">  1       21 0.39295426E-01 0.25345813E+03</pdfrwt>
<pdfrwt beam="2">  1       21 0.43341795E-01 0.25345813E+03</pdfrwt>
<totfact> 0.31008047E+04</totfact>
</mgrwt>
</event>
<event>
 4    3  0.4009700E+000  0.2282421E+03  0.7546771E-02  0.1127883E+00
         21   -1    0    0  501  502  0.00000000000E+00  0.00000000000E+00  0.28088581932E+03  0.28088581932E+03  0.00000000000E+00 0. -1.
         21   -1    0    0  502  503 -0.00000000000E+00 -0.00000000000E+00 -0.20186221292E+03  0.20186221292E+03  0.00000000000E+00 0.  1.
          6    1    1    2  501    0 -0.71665476161E+02  0.13049717439E+03  0.10830566547E+03  0.25263525124E+03  0.17300000000E+03 0. -1.
         -6    1    1    2    0  503  0.71665476161E+02 -0.13049717439E+03 -0.29282059073E+02  0.23011278100E+03  0.17300000000E+03 0.  1.
<mgrwt>
<rscale>  2 0.22824209E+03</rscale>
<asrwt>0</asrwt>
<pdfrwt beam="1">  1       21 0.43213203E-01 0.22824209E+03</pdfrwt>
<pdfrwt beam="2">  1       21 0.31055725E-01 0.22824209E+03</pdfrwt>
<totfact> 0.50440820E+04</totfact>
</mgrwt>
</event>
<event>
 4    3  0.4009700E+000  0.1819682E+03  0.7546771E-02  0.1165912E+00
         21   -1    0    0  501  502  0.00000000000E+00  0.00000000000E+00  0.14467610823E+04  0.14467610823E+04  0.00000000000E+00 0.  1.
         21   -1    0    0  502  503 -0.00000000000E+00 -0.00000000000E+00 -0.24727003939E+02  0.24727003939E+02  0.00000000000E+00 0. -1.
          6    1    1    2  501    0  0.53967096726E+02 -0.16460904694E+02  0.91170380213E+03  0.92968609311E+03  0.17300000000E+03 0.  1.
         -6    1    1    2    0  503 -0.53967096726E+02  0.16460904694E+02  0.51033027620E+03  0.54180199309E+03  0.17300000000E+03 0. -1.
<mgrwt>
<rscale>  2 0.18196815E+03</rscale>
<asrwt>0</asrwt>
<pdfrwt beam="1">  1       21 0.22257856E+00 0.18196815E+03</pdfrwt>
<pdfrwt beam="2">  1       21 0.38041556E-02 0.18196815E+03</pdfrwt>
<totfact> 0.41670925E+04</totfact>
</mgrwt>
</event>
<event>
 4    3  0.4009700E+000  0.2036750E+03  0.7546771E-02  0.1146675E+00
         21   -1    0    0  501  502  0.00000000000E+00  0.00000000000E+00  0.64027149541E+03  0.64027149541E+03  0.00000000000E+00 0.  1.
         21   -1    0    0  502  503 -0.00000000000E+00 -0.00000000000E+00 -0.66998566367E+02  0.66998566367E+02  0.00000000000E+00 0.  1.
          6    1    1    2  501    0  0.65300131143E+02 -0.85383774674E+02  0.22243709400E+03  0.30159866859E+03  0.17300000000E+03 0.  1.
         -6    1    1    2    0  503 -0.65300131143E+02  0.85383774674E+02  0.35083583504E+03  0.40567139319E+03  0.17300000000E+03 0.  1.
<mgrwt>
<rscale>  2 0.20367498E+03</rscale>
<asrwt>0</asrwt>
<pdfrwt beam="1">  1       21 0.98503303E-01 0.20367498E+03</pdfrwt>
<pdfrwt beam="2">  1       21 0.10307472E-01 0.20367498E+03</pdfrwt>
<totfact> 0.65089176E+04</totfact>
</mgrwt>
</event>
<event>
 4    3  0.4009700E+000  0.1798954E+03  0.7546771E-02  0.1167904E+00
         21   -1    0    0  503  502  0.00000000000E+00  0.00000000000E+00  0.13261475672E+03  0.13261475672E+03  0.00000000000E+00 0. -1.
         21   -1    0    0  501  503 -0.00000000000E+00 -0.00000000000E+00 -0.46039785264E+03  0.46039785264E+03  0.00000000000E+00 0. -1.
          6    1    1    2  501    0  0.96408440978E+01 -0.48377650212E+02 -0.36715575105E+03  0.40885900802E+03  0.17300000000E+03 0. -1.
         -6    1    1    2    0  502 -0.96408440978E+01  0.48377650212E+02  0.39372655127E+02  0.18415360134E+03  0.17300000000E+03 0. -1.
<mgrwt>
<rscale>  2 0.17989537E+03</rscale>
<asrwt>0</asrwt>
<pdfrwt beam="1">  1       21 0.20402270E-01 0.17989537E+03</pdfrwt>
<pdfrwt beam="2">  1       21 0.70830439E-01 0.17989537E+03</pdfrwt>
<totfact> 0.40409558E+04</totfact>
</mgrwt>
</event>
<event>
 4    3  0.4009700E+000  0.1817827E+03  0.7546771E-02  0.1166089E+00
         21   -1    0    0  503  502  0.00000000000E+00  0.00000000000E+00  0.24213645732E+02  0.24213645732E+02  0.00000000000E+00 0.  1.
         21   -1    0    0  501  503 -0.00000000000E+00 -0.00000000000E+00 -0.16505537709E+04  0.16505537709E+04  0.00000000000E+00 0. -1.
          6    1    1    2  501    0  0.27264462103E+02  0.48709369347E+02 -0.11616382067E+04  0.11757756065E+04  0.17300000000E+03 0.  1.
         -6    1    1    2    0  502 -0.27264462103E+02 -0.48709369347E+02 -0.46470191842E+03  0.49899181009E+03  0.17300000000E+03 0.  1.
<mgrwt>
<rscale>  2 0.18178271E+03</rscale>
<asrwt>0</asrwt>
<pdfrwt beam="1">  1       21 0.37251766E-02 0.18178271E+03</pdfrwt>
<pdfrwt beam="2">  1       21 0.25393133E+00 0.18178271E+03</pdfrwt>
<totfact> 0.28094890E+04</totfact>
</mgrwt>
</event>
<event>
 4    3  0.4009700E+000  0.2025562E+03  0.7546771E-02  0.1147600E+00
         21   -1    0    0  503  502  0.00000000000E+00  0.00000000000E+00  0.38076374497E+03  0.38076374497E+03  0.00000000000E+00 0.  1.
         21   -1    0    0  501  503 -0.00000000000E+00 -0.00000000000E+00 -0.20149051280E+03  0.20149051280E+03  0.00000000000E+00 0.  1.
          6    1    1    2  501    0  0.57018719646E+02  0.88594001240E+02 -0.10893101990E+03  0.22998912701E+03  0.17300000000E+03 0.  1.
         -6    1    1    2    0  502 -0.57018719646E+02 -0.88594001240E+02  0.28820425207E+03  0.35226513077E+03  0.17300000000E+03 0.  1.
<mgrwt>
<rscale>  2 0.20255624E+03</rscale>
<asrwt>0</asrwt>
<pdfrwt beam="1">  1       21 0.58579038E-01 0.20255624E+03</pdfrwt>
<pdfrwt beam="2">  1       21 0.30998540E-01 0.20255624E+03</pdfrwt>
<totfact> 0.27115162E+04</totfact>
</mgrwt>
</event>
<event>
 4    3  0.4009700E+000  0.1979923E+03  0.7546771E-02  0.1151444E+00
         21   -1    0    0  501  502  0.00000000000E+00  0.00000000000E+00  0.41819730894E+02  0.41819730894E+02  0.00000000000E+00 0. -1.
         21   -1    0    0  502  503 -0.00000000000E+00 -0.00000000000E+00 -0.14985666578E+04  0.14985666578E+04  0.00000000000E+00 0. -1.
          6    1    1    2  501    0  0.38502520337E+02  0.88258206180E+02 -0.25705382322E+03  0.32446513382E+03  0.17300000000E+03 0. -1.
         -6    1    1    2    0  503 -0.38502520337E+02 -0.88258206180E+02 -0.11996931037E+04  0.12159212549E+04  0.17300000000E+03 0. -1.
<mgrwt>
<rscale>  2 0.19799231E+03</rscale>
<asrwt>0</asrwt>
<pdfrwt beam="1">  1       21 0.64338056E-02 0.19799231E+03</pdfrwt>
<pdfrwt beam="2">  1       21 0.23054869E+00 0.19799231E+03</pdfrwt>
<totfact> 0.15112543E+04</totfact>
</mgrwt>
</event>
<event>
 4    3  0.4009700E+000  0.2409099E+03  0.7546771E-02  0.1119188E+00
         21   -1    0    0  503  502  0.00000000000E+00  0.00000000000E+00  0.25659745963E+03  0.25659745963E+03  0.00000000000E+00 0.  1.
         21   -1    0    0  501  503 -0.00000000000E+00 -0.00000000000E+00 -0.26283831000E+03  0.26283831000E+03  0.00000000000E+00 0. -1.
          6    1    1    2  501    0  0.16679775841E+03 -0.16943627149E+02 -0.10011229036E+03  0.26088321025E+03  0.17300000000E+03 0. -1.
         -6    1    1    2    0  502 -0.16679775841E+03  0.16943627149E+02  0.93871439995E+02  0.25855255937E+03  0.17300000000E+03 0.  1.
<mgrwt>
<rscale>  2 0.24090990E+03</rscale>
<asrwt>0</asrwt>
<pdfrwt beam="1">  1       21 0.39476532E-01 0.24090990E+03</pdfrwt>
<pdfrwt beam="2">  1       21 0.40436663E-01 0.24090990E+03</pdfrwt>
<totfact> 0.35599160E+04</totfact>
</mgrwt>
</event>
<event>
 4    3  0.4009700E+000  0.2110708E+03  0.7546771E-02  0.1140721E+00
         21   -1    0    0  501  502  0.00000000000E+00  0.00000000000E+00  0.31182916470E+03  0.31182916470E+03  0.00000000000E+00 0. -1.
         21   -1    0    0  502  503 -0.00000000000E+00 -0.00000000000E+00 -0.30523368408E+03  0.30523368408E+03  0.00000000000E+00 0. -1.
          6    1    1    2  501    0  0.11615821713E+03 -0.33603092077E+02  0.22832140655E+03  0.31093659143E+03  0.17300000000E+03 0. -1.
         -6    1    1    2    0  503 -0.11615821713E+03  0.33603092077E+02 -0.22172592593E+03  0.30612625734E+03  0.17300000000E+03 0. -1.
<mgrwt>
<rscale>  2 0.21107084E+03</rscale>
<asrwt>0</asrwt>
<pdfrwt beam="1">  1       21 0.47973718E-01 0.21107084E+03</pdfrwt>
<pdfrwt beam="2">  1       21 0.46959028E-01 0.21107084E+03</pdfrwt>
<totfact> 0.17823761E+04</totfact>
</mgrwt>
</event>
<event>
 4    3  0.4009700E+000  0.1822569E+03  0.7546771E-02  0.1165637E+00
         21   -1    0    0  503  502  0.00000000000E+00  0.00000000000E+00  0.98942009161E+03  0.98942009161E+03  0.00000000000E+00 0.  1.
         21   -1    0    0  501  503 -0.00000000000E+00 -0.00000000000E+00 -0.61519985324E+02  0.61519985324E+02  0.00000000000E+00 0.  1.
          6    1    1    2  501    0  0.16340342004E+02 -0.54968797184E+02  0.10978223228E+03  0.21276680654E+03  0.17300000000E+03 0.  1.
         -6    1    1    2    0  502 -0.16340342004E+02  0.54968797184E+02  0.81811787400E+03  0.83817327039E+03  0.17300000000E+03 0.  1.
<mgrwt>
<rscale>  2 0.18225689E+03</rscale>
<asrwt>0</asrwt>
<pdfrwt beam="1">  1       21 0.15221846E+00 0.18225689E+03</pdfrwt>
<pdfrwt beam="2">  1       21 0.94646138E-02 0.18225689E+03</pdfrwt>
<totfact> 0.25883863E+04</totfact>
</mgrwt>
</event>
<event>
 4    3  0.4009700E+000  0.1856066E+03  0.7546771E-02  0.1162485E+00
         21   -1    0    0  503  502  0.00000000000E+00  0.00000000000E+00  0.32721128190E+03  0.32721128190E+03  0.00000000000E+00 0.  1.
         21   -1    0    0  501  503 -0.00000000000E+00 -0.00000000000E+00 -0.11961886223E+03  0.11961886223E+03  0.00000000000E+00 0.  1.
          6    1    1    2  501    0  0.62449451193E+02 -0.24917404736E+02  0.26452792329E+02  0.18748216245E+03  0.17300000000E+03 0.  1.
         -6    1    1    2    0  502 -0.62449451193E+02  0.24917404736E+02  0.18113962734E+03  0.25934798169E+03  0.17300000000E+03 0.  1.
<mgrwt>
<rscale>  2 0.18560660E+03</rscale>
<asrwt>0</asrwt>
<pdfrwt beam="1">  1       21 0.50340197E-01 0.18560660E+03</pdfrwt>
<pdfrwt beam="2">  1       21 0.18402902E-01 0.18560660E+03</pdfrwt>
<totfact> 0.10151185E+05</totfact>
</mgrwt>
</event>
<event>
 4    3  0.4009700E+000  0.1895874E+03  0.7546771E-02  0.1158834E+00
         21   -1    0    0  501  502  0.00000000000E+00  0.00000000000E+00  0.47354109614E+03  0.47354109614E+03  0.00000000000E+00 0.  1.
         21   -1    0    0  502  503 -0.00000000000E+00 -0.00000000000E+00 -0.16152720129E+03  0.16152720129E+03  0.00000000000E+00 0. -1.
          6    1    1    2  501    0  0.77540008554E+02 -0.13884557819E+01  0.38719471310E+03  0.43111846004E+03  0.17300000000E+03 0.  1.
         -6    1    1    2    0  503 -0.77540008554E+02  0.13884557819E+01 -0.75180818257E+02  0.20394983739E+03  0.17300000000E+03 0. -1.
<mgrwt>
<rscale>  2 0.18958740E+03</rscale>
<asrwt>0</asrwt>
<pdfrwt beam="1">  1       21 0.72852476E-01 0.18958740E+03</pdfrwt>
<pdfrwt beam="2">  1       21 0.24850339E-01 0.18958740E+03</pdfrwt>
<totfact> 0.26032981E+04</totfact>
</mgrwt>
</event>
<event>
 4    3  0.4009700E+000  0.2061309E+03  0.7546771E-02  0.1144667E+00
         21   -1    0    0  501  502  0.00000000000E+00  0.00000000000E+00  0.75530969142E+02  0.75530969142E+02  0.00000000000E+00 0. -1.
         21   -1    0    0  502  503 -0.00000000000E+00 -0.00000000000E+00 -0.97285849800E+03  0.97285849800E+03  0.00000000000E+00 0.  1.
          6    1    1    2  501    0 -0.81874057402E+02 -0.76534825929E+02 -0.10823745879E+03  0.23282029194E+03  0.17300000000E+03 0. -1.
         -6    1    1    2    0  503  0.81874057402E+02  0.76534825929E+02 -0.78909007006E+03  0.81556917520E+03  0.17300000000E+03 0.  1.
<mgrwt>
<rscale>  2 0.20613088E+03</rscale>
<asrwt>0</asrwt>
<pdfrwt beam="1">  1       21 0.11620150E-01 0.20613088E+03</pdfrwt>
<pdfrwt beam="2">  1       21 0.14967053E+00 0.20613088E+03</pdfrwt>
<totfact> 0.18515474E+04</totfact>
</mgrwt>
</event>
<event>
 4    3  0.4009700E+000  0.2452294E+03  0.7546771E-02  0.1116357E+00
         21   -1    0    0  503  502  0.00000000000E+00  0.00000000000E+00  0.48640888014E+03  0.48640888014E+03  0.00000000000E+00 0.  1.
         21   -1    0    0  501  503 -0.00000000000E+00 -0.00000000000E+00 -0.12502796088E+03  0.12502796088E+03  0.00000000000E+00 0.  1.
          6    1    1    2  501    0 -0.70501299282E+02  0.15886487439E+03  0.14842892410E+03  0.28665070561E+03  0.17300000000E+03 0.  1.
         -6    1    1    2    0  502  0.70501299282E+02 -0.15886487439E+03  0.21295199516E+03  0.32478613541E+03  0.17300000000E+03 0.  1.
<mgrwt>
<rscale>  2 0.24522945E+03</rscale>
<asrwt>0</asrwt>
<pdfrwt beam="1">  1       21 0.74832134E-01 0.24522945E+03</pdfrwt>
<pdfrwt beam="2">  1       21 0.19235071E-01 0.24522945E+03</pdfrwt>
<totfact> 0.38667543E+04</totfact>
</mgrwt>
</event>
<event>
 4    3  0.4009700E+000  0.1744059E+03  0.7546771E-02  0.1173330E+00
         21   -1    0    0  501  502  0.00000000000E+00  0.00000000000E+00  0.10066606861E+03  0.10066606861E+03  0.00000000000E+00 0. -1.
         21   -1    0    0  502  503 -0.00000000000E+00 -0.00000000000E+00 -0.30220027977E+03  0.30220027977E+03  0.00000000000E+00 0. -1.
          6    1    1    2  501    0 -0.16884407403E+01  0.22035409069E+02 -0.98485200802E+02  0.20029164951E+03  0.17300000000E+03 0. -1.
         -6    1    1    2    0  503  0.16884407403E+01 -0.22035409069E+02 -0.10304901036E+03  0.20257469887E+03  0.17300000000E+03 0. -1.
<mgrwt>
<rscale>  2 0.17440588E+03</rscale>
<asrwt>0</asrwt>
<pdfrwt beam="1">  1       21 0.15487088E-01 0.17440588E+03</pdfrwt>
<pdfrwt beam="2">  1       21 0.46492350E-01 0.17440588E+03</pdfrwt>
<totfact> 0.16492371E+05</totfact>
</mgrwt>
</event>
<event>
 4    3  0.4009700E+000  0.1895588E+03  0.7546771E-02  0.1158860E+00
         21   -1    0    0  501  502  0.00000000000E+00  0.00000000000E+00  0.17510619459E+03  0.17510619459E+03  0.00000000000E+00 0.  1.
         21   -1    0    0  502  503 -0.00000000000E+00 -0.00000000000E+00 -0.20707605652E+03  0.20707605652E+03  0.00000000000E+00 0.  1.
          6    1    1    2  501    0  0.25999883191E+02  0.72990067993E+02 -0.34152647371E+02  0.19261087008E+03  0.17300000000E+03 0.  1.
         -6    1    1    2    0  503 -0.25999883191E+02 -0.72990067993E+02  0.21827854357E+01  0.18957138103E+03  0.17300000000E+03 0.  1.
<mgrwt>
<rscale>  2 0.18955881E+03</rscale>
<asrwt>0</asrwt>
<pdfrwt beam="1">  1       21 0.26939415E-01 0.18955881E+03</pdfrwt>
<pdfrwt beam="2">  1       21 0.31857855E-01 0.18955881E+03</pdfrwt>
<totfact> 0.12450001E+05</totfact>
</mgrwt>
</event>
<event>
 4    3  0.4009700E+000  0.2265759E+03  0.7546771E-02  0.1129073E+00
         21   -1    0    0  501  502  0.00000000000E+00  0.00000000000E+00  0.35408110604E+03  0.35408110604E+03  0.00000000000E+00 0. -1.
         21   -1    0    0  502  503 -0.00000000000E+00 -0.00000000000E+00 -0.15774381840E+03  0.15774381840E+03  0.00000000000E+00 0. -1.
          6    1    1    2  501    0 -0.20560260231E+02  0.14486176240E+03  0.17094840366E+03  0.28383095536E+03  0.17300000000E+03 0. -1.
         -6    1    1    2    0  503  0.20560260231E+02 -0.14486176240E+03  0.25388883978E+02  0.22799396908E+03  0.17300000000E+03 0. -1.
<mgrwt>
<rscale>  2 0.22657594E+03</rscale>
<asrwt>0</asrwt>
<pdfrwt beam="1">  1       21 0.54474016E-01 0.22657594E+03</pdfrwt>
<pdfrwt beam="2">  1       21 0.24268280E-01 0.22657594E+03</pdfrwt>
<totfact> 0.50219519E+04</totfact>
</mgrwt>
</event>
<event>
 4    3  0.4009700E+000  0.2168986E+03  0.7546771E-02  0.1136217E+00
         21   -1    0    0  501  502  0.00000000000E+00  0.00000000000E+00  0.21391235701E+03  0.21391235701E+03  0.00000000000E+00 0. -1.
         21   -1    0    0  502  503 -0.00000000000E+00 -0.00000000000E+00 -0.22973118544E+03  0.22973118544E+03  0.00000000000E+00 0. -1.
          6    1    1    2  501    0 -0.51397505417E+02 -0.12030926428E+03 -0.53735025310E+02  0.22345575755E+03  0.17300000000E+03 0. -1.
         -6    1    1    2    0  503  0.51397505417E+02  0.12030926428E+03  0.37916196875E+02  0.22018778490E+03  0.17300000000E+03 0. -1.
<mgrwt>
<rscale>  2 0.21689865E+03</rscale>
<asrwt>0</asrwt>
<pdfrwt beam="1">  1       21 0.32909593E-01 0.21689865E+03</pdfrwt>
<pdfrwt beam="2">  1       21 0.35343259E-01 0.21689865E+03</pdfrwt>
<totfact> 0.67876829E+04</totfact>
</mgrwt>
</event>
<event>
 4    3  0.4009700E+000  0.2399661E+03  0.7546771E-02  0.1119815E+00
         21   -1    0    0  503  502  0.00000000000E+00  0.00000000000E+00  0.73381861236E+03  0.73381861236E+03  0.00000000000E+00 0.  1.
         21   -1    0    0  501  503 -0.00000000000E+00 -0.00000000000E+00 -0.12669426118E+03  0.12669426118E+03  0.00000000000E+00 0.  1.
          6    1    1    2  501    0  0.23269191110E+02 -0.16466114215E+03  0.38116559807E+02  0.24297452361E+03  0.17300000000E+03 0.  1.
         -6    1    1    2    0  502 -0.23269191110E+02  0.16466114215E+03  0.56900779137E+03  0.61753834993E+03  0.17300000000E+03 0.  1.
<mgrwt>
<rscale>  2 0.23996614E+03</rscale>
<asrwt>0</asrwt>
<pdfrwt beam="1">  1       21 0.11289517E+00 0.23996614E+03</pdfrwt>
<pdfrwt beam="2">  1       21 0.19491425E-01 0.23996614E+03</pdfrwt>
<totfact> 0.14421240E+04</totfact>
</mgrwt>
</event>
<event>
 4    3  0.4009700E+000  0.2071621E+03  0.7546771E-02  0.1143833E+00
         21   -1    0    0  503  502  0.00000000000E+00  0.00000000000E+00  0.11970669688E+03  0.11970669688E+03  0.00000000000E+00 0. -1.
         21   -1    0    0  501  503 -0.00000000000E+00 -0.00000000000E+00 -0.52976953598E+03  0.52976953598E+03  0.00000000000E+00 0. -1.
          6    1    1    2  501    0 -0.94539667117E+02  0.63634906691E+02 -0.38966728941E+03  0.44131252696E+03  0.17300000000E+03 0. -1.
         -6    1    1    2    0  502  0.94539667117E+02 -0.63634906691E+02 -0.20395549680E+02  0.20816370590E+03  0.17300000000E+03 0. -1.
<mgrwt>
<rscale>  2 0.20716213E+03</rscale>
<asrwt>0</asrwt>
<pdfrwt beam="1">  1       21 0.18416415E-01 0.20716213E+03</pdfrwt>
<pdfrwt beam="2">  1       21 0.81503003E-01 0.20716213E+03</pdfrwt>
<totfact> 0.35209683E+04</totfact>
</mgrwt>
</event>
<event>
 4    3  0.4009700E+000  0.2320038E+03  0.7546771E-02  0.1125237E+00
         21   -1    0    0  503  502  0.00000000000E+00  0.00000000000E+00  0.26412585908E+03  0.26412585908E+03  0.00000000000E+00 0. -1.
         21   -1    0    0  501  503 -0.00000000000E+00 -0.00000000000E+00 -0.25352388908E+03  0.25352388908E+03  0.00000000000E+00 0.  1.
          6    1    1    2  501    0 -0.97194214248E+02 -0.12020841069E+03 -0.10933736101E+03  0.25647696933E+03  0.17300000000E+03 0.  1.
         -6    1    1    2    0  502  0.97194214248E+02  0.12020841069E+03  0.11993933101E+03  0.26117277884E+03  0.17300000000E+03 0. -1.
<mgrwt>
<rscale>  2 0.23200383E+03</rscale>
<asrwt>0</asrwt>
<pdfrwt beam="1">  1       21 0.40634747E-01 0.23200383E+03</pdfrwt>
<pdfrwt beam="2">  1       21 0.39003675E-01 0.23200383E+03</pdfrwt>
<totfact> 0.36261580E+04</totfact>
</mgrwt>
</event>
<event>
 4    3  0.4009700E+000  0.1909250E+03  0.7546771E-02  0.1157630E+00
         21   -1    0    0  501  502  0.00000000000E+00  0.00000000000E+00  0.18484420522E+03  0.18484420522E+03  0.00000000000E+00 0.  1.
         21   -1    0    0  502  503 -0.00000000000E+00 -0.00000000000E+00 -0.26738113061E+03  0.26738113061E+03  0.00000000000E+00 0.  1.
          6    1    1    2  501    0 -0.27877131098E+02  0.75803809796E+02  0.74569712082E+02  0.20497071493E+03  0.17300000000E+03 0.  1.
         -6    1    1    2    0  503  0.27877131098E+02 -0.75803809796E+02 -0.15710663747E+03  0.24725462090E+03  0.17300000000E+03 0.  1.
<mgrwt>
<rscale>  2 0.19092499E+03</rscale>
<asrwt>0</asrwt>
<pdfrwt beam="1">  1       21 0.28437570E-01 0.19092499E+03</pdfrwt>
<pdfrwt beam="2">  1       21 0.41135559E-01 0.19092499E+03</pdfrwt>
<totfact> 0.67346252E+04</totfact>
</mgrwt>
</event>
<event>
 4    3  0.4009700E+000  0.1787349E+03  0.7546771E-02  0.1169033E+00
         21   -1    0    0  501  502  0.00000000000E+00  0.00000000000E+00  0.72856551122E+03  0.72856551122E+03  0.00000000000E+00 0. -1.
         21   -1    0    0  502  503 -0.00000000000E+00 -0.00000000000E+00 -0.51609520066E+02  0.51609520066E+02  0.00000000000E+00 0. -1.
          6    1    1    2  501    0 -0.43721750335E+02  0.10274618593E+02  0.48975391990E+03  0.52134926997E+03  0.17300000000E+03 0.  1.
         -6    1    1    2    0  503  0.43721750335E+02 -0.10274618593E+02  0.18720207126E+03  0.25882576132E+03  0.17300000000E+03 0.  1.
<mgrwt>
<rscale>  2 0.17873489E+03</rscale>
<asrwt>0</asrwt>
<pdfrwt beam="1">  1       21 0.11208699E+00 0.17873489E+03</pdfrwt>
<pdfrwt beam="2">  1       21 0.79399267E-02 0.17873489E+03</pdfrwt>
<totfact> 0.76358576E+04</totfact>
</mgrwt>
</event>
<event>
 4    3  0.4009700E+000  0.1759633E+03  0.7546771E-02  0.1171768E+00
         21   -1    0    0  501  502  0.00000000000E+00  0.00000000000E+00  0.94604639324E+02  0.94604639324E+02  0.00000000000E+00 0. -1.
         21   -1    0    0  502  503 -0.00000000000E+00 -0.00000000000E+00 -0.35511886908E+03  0.35511886908E+03  0.00000000000E+00 0. -1.
          6    1    1    2  501    0 -0.29041575050E+02 -0.13807760910E+02 -0.67308886109E+02  0.18839732878E+03  0.17300000000E+03 0. -1.
         -6    1    1    2    0  503  0.29041575050E+02  0.13807760910E+02 -0.19320534365E+03  0.26132617962E+03  0.17300000000E+03 0. -1.
<mgrwt>
<rscale>  2 0.17596326E+03</rscale>
<asrwt>0</asrwt>
<pdfrwt beam="1">  1       21 0.14554560E-01 0.17596326E+03</pdfrwt>
<pdfrwt beam="2">  1       21 0.54633672E-01 0.17596326E+03</pdfrwt>
<totfact> 0.13185663E+05</totfact>
</mgrwt>
</event>
<event>
 4    3  0.4009700E+000  0.2031448E+03  0.7546771E-02  0.1147113E+00
         21   -1    0    0  503  502  0.00000000000E+00  0.00000000000E+00  0.15056100385E+03  0.15056100385E+03  0.00000000000E+00 0. -1.
         21   -1    0    0  501  503 -0.00000000000E+00 -0.00000000000E+00 -0.39681363585E+03  0.39681363585E+03  0.00000000000E+00 0.  1.
          6    1    1    2  501    0 -0.16445605901E+02  0.10520626960E+03 -0.27532784221E+03  0.34215966714E+03  0.17300000000E+03 0.  1.
         -6    1    1    2    0  502  0.16445605901E+02 -0.10520626960E+03  0.29075210206E+02  0.20521497256E+03  0.17300000000E+03 0.  1.
<mgrwt>
<rscale>  2 0.20314482E+03</rscale>
<asrwt>0</asrwt>
<pdfrwt beam="1">  1       21 0.23163232E-01 0.20314482E+03</pdfrwt>
<pdfrwt beam="2">  1       21 0.61048251E-01 0.20314482E+03</pdfrwt>
<totfact> 0.43486432E+04</totfact>
</mgrwt>
</event>
<event>
 4    3  0.4009700E+000  0.2169422E+03  0.7546771E-02  0.1136184E+00
         21   -1    0    0  503  502  0.00000000000E+00  0.00000000000E+00  0.59014476161E+03  0.59014476161E+03  0.00000000000E+00 0. -1.
         21   -1    0    0  501  503 -0.00000000000E+00 -0.00000000000E+00 -0.12521141683E+03  0.12521141683E+03  0.00000000000E+00 0.  1.
          6    1    1    2  501    0  0.68563463182E+02 -0.11150764760E+03  0.44798936023E+03  0.49775332328E+03  0.17300000000E+03 0. -1.
         -6    1    1    2    0  502 -0.68563463182E+02  0.11150764760E+03  0.16943984548E+02  0.21760285515E+03  0.17300000000E+03 0.  1.
<mgrwt>
<rscale>  2 0.21694217E+03</rscale>
<asrwt>0</asrwt>
<pdfrwt beam="1">  1       21 0.90791500E-01 0.21694217E+03</pdfrwt>
<pdfrwt beam="2">  1       21 0.19263295E-01 0.21694217E+03</pdfrwt>
<totfact> 0.25133771E+04</totfact>
</mgrwt>
</event>
<event>
 4    3  0.4009700E+000  0.1874862E+03  0.7546771E-02  0.1160748E+00
         21   -1    0    0  501  502  0.00000000000E+00  0.00000000000E+00  0.33861282328E+03  0.33861282328E+03  0.00000000000E+00 0. -1.
         21   -1    0    0  502  503 -0.00000000000E+00 -0.00000000000E+00 -0.17508575379E+03  0.17508575379E+03  0.00000000000E+00 0. -1.
          6    1    1    2  501    0 -0.52941663348E+02 -0.49186106207E+02  0.24564378195E+03  0.30901773472E+03  0.17300000000E+03 0. -1.
         -6    1    1    2    0  503  0.52941663348E+02  0.49186106207E+02 -0.82116712460E+02  0.20468084235E+03  0.17300000000E+03 0. -1.
<mgrwt>
<rscale>  2 0.18748625E+03</rscale>
<asrwt>0</asrwt>
<pdfrwt beam="1">  1       21 0.52094281E-01 0.18748625E+03</pdfrwt>
<pdfrwt beam="2">  1       21 0.26936270E-01 0.18748625E+03</pdfrwt>
<totfact> 0.46026431E+04</totfact>
</mgrwt>
</event>
<event>
 4    3  0.4009700E+000  0.2029741E+03  0.7546771E-02  0.1147254E+00
         21   -1    0    0  503  502  0.00000000000E+00  0.00000000000E+00  0.12734898911E+03  0.12734898911E+03  0.00000000000E+00 0.  1.
         21   -1    0    0  501  503 -0.00000000000E+00 -0.00000000000E+00 -0.42295833924E+03  0.42295833924E+03  0.00000000000E+00 0.  1.
          6    1    1    2  501    0  0.53432003007E+02  0.91730683027E+02 -0.28122692523E+03  0.34682427918E+03  0.17300000000E+03 0.  1.
         -6    1    1    2    0  502 -0.53432003007E+02 -0.91730683027E+02 -0.14382424903E+02  0.20348304917E+03  0.17300000000E+03 0.  1.
<mgrwt>
<rscale>  2 0.20297413E+03</rscale>
<asrwt>0</asrwt>
<pdfrwt beam="1">  1       21 0.19592153E-01 0.20297413E+03</pdfrwt>
<pdfrwt beam="2">  1       21 0.65070513E-01 0.20297413E+03</pdfrwt>
<totfact> 0.51895702E+04</totfact>
</mgrwt>
</event>
<event>
 4    3  0.4009700E+000  0.2444408E+03  0.7546771E-02  0.1116869E+00
         21   -1    0    0  501  502  0.00000000000E+00  0.00000000000E+00  0.82299617295E+03  0.82299617295E+03  0.00000000000E+00 0. -1.
         21   -1    0    0  502  503 -0.00000000000E+00 -0.00000000000E+00 -0.21728111658E+03  0.21728111658E+03  0.00000000000E+00 0.  1.
          6    1    1    2  501    0  0.16286040569E+03  0.57434960570E+02  0.72729218442E+03  0.76727127403E+03  0.17300000000E+03 0. -1.
         -6    1    1    2    0  503 -0.16286040569E+03 -0.57434960570E+02 -0.12157712804E+03  0.27300601550E+03  0.17300000000E+03 0.  1.
<mgrwt>
<rscale>  2 0.24444076E+03</rscale>
<asrwt>0</asrwt>
<pdfrwt beam="1">  1       21 0.12661479E+00 0.24444076E+03</pdfrwt>
<pdfrwt beam="2">  1       21 0.33427865E-01 0.24444076E+03</pdfrwt>
<totfact> 0.38252683E+03</totfact>
</mgrwt>
</event>
<event>
 4    3  0.4009700E+000  0.1788820E+03  0.7546771E-02  0.1168889E+00
         21   -1    0    0  503  502  0.00000000000E+00  0.00000000000E+00  0.29244337044E+03  0.29244337044E+03  0.00000000000E+00 0. -1.
         21   -1    0    0  501  503 -0.00000000000E+00 -0.00000000000E+00 -0.12571323948E+03  0.12571323948E+03  0.00000000000E+00 0. -1.
          6    1    1    2  501    0 -0.41639396105E+02 -0.18328298645E+02  0.80919567676E+01  0.17906492008E+03  0.17300000000E+03 0. -1.
         -6    1    1    2    0  502  0.41639396105E+02  0.18328298645E+02  0.15863817419E+03  0.23909168984E+03  0.17300000000E+03 0. -1.
<mgrwt>
<rscale>  2 0.17888199E+03</rscale>
<asrwt>0</asrwt>
<pdfrwt beam="1">  1       21 0.44991288E-01 0.17888199E+03</pdfrwt>
<pdfrwt beam="2">  1       21 0.19340498E-01 0.17888199E+03</pdfrwt>
<totfact> 0.11706189E+05</totfact>
</mgrwt>
</event>
<event>
 4    3  0.4009700E+000  0.2204398E+03  0.7546771E-02  0.1133556E+00
         21   -1    0    0  503  502  0.00000000000E+00  0.00000000000E+00  0.65479132800E+03  0.65479132800E+03  0.00000000000E+00 0. -1.
         21   -1    0    0  501  503 -0.00000000000E+00 -0.00000000000E+00 -0.81370146291E+02  0.81370146291E+02  0.00000000000E+00 0. -1.
          6    1    1    2  501    0 -0.70618246873E+02 -0.11695190711E+03  0.17754232733E+03  0.28304586795E+03  0.17300000000E+03 0. -1.
         -6    1    1    2    0  502  0.70618246873E+02  0.11695190711E+03  0.39587885438E+03  0.45311560634E+03  0.17300000000E+03 0. -1.
<mgrwt>
<rscale>  2 0.22043975E+03</rscale>
<asrwt>0</asrwt>
<pdfrwt beam="1">  1       21 0.10073712E+00 0.22043975E+03</pdfrwt>
<pdfrwt beam="2">  1       21 0.12518484E-01 0.22043975E+03</pdfrwt>
<totfact> 0.43262531E+04</totfact>
</mgrwt>
</event>
<event>
 4    3  0.4009700E+000  0.3005727E+03  0.7546771E-02  0.1084955E+00
         21   -1    0    0  503  502  0.00000000000E+00  0.00000000000E+00  0.37150599744E+03  0.37150599744E+03  0.00000000000E+00 0.  1.
         21   -1    0    0  501  503 -0.00000000000E+00 -0.00000000000E+00 -0.26263347429E+03  0.26263347429E+03  0.00000000000E+00 0. -1.
          6    1    1    2  501    0  0.17495785051E+02 -0.24517101150E+03  0.14072325130E+03  0.33188395687E+03  0.17300000000E+03 0.  1.
         -6    1    1    2    0  502 -0.17495785051E+02  0.24517101150E+03 -0.31850728147E+02  0.30225551485E+03  0.17300000000E+03 0. -1.
<mgrwt>
<rscale>  2 0.30057267E+03</rscale>
<asrwt>0</asrwt>
<pdfrwt beam="1">  1       21 0.57154769E-01 0.30057267E+03</pdfrwt>
<pdfrwt beam="2">  1       21 0.40405150E-01 0.30057267E+03</pdfrwt>
<totfact> 0.16051711E+04</totfact>
</mgrwt>
</event>
<event>
 4    3  0.4009700E+000  0.2238360E+03  0.7546771E-02  0.1131055E+00
         21   -1    0    0  503  502  0.00000000000E+00  0.00000000000E+00  0.27844911483E+03  0.27844911483E+03  0.00000000000E+00 0.  1.
         21   -1    0    0  501  503 -0.00000000000E+00 -0.00000000000E+00 -0.64606284480E+03  0.64606284480E+03  0.00000000000E+00 0.  1.
          6    1    1    2  501    0 -0.11684714973E+03 -0.80748347206E+02 -0.57644998836E+03  0.61838268172E+03  0.17300000000E+03 0.  1.
         -6    1    1    2    0  502  0.11684714973E+03  0.80748347206E+02  0.20883625839E+03  0.30612927791E+03  0.17300000000E+03 0.  1.
<mgrwt>
<rscale>  2 0.22383599E+03</rscale>
<asrwt>0</asrwt>
<pdfrwt beam="1">  1       21 0.42838326E-01 0.22383599E+03</pdfrwt>
<pdfrwt beam="2">  1       21 0.99394282E-01 0.22383599E+03</pdfrwt>
<totfact> 0.42605838E+03</totfact>
</mgrwt>
</event>
<event>
 4    3  0.4009700E+000  0.1763224E+03  0.7546771E-02  0.1171410E+00
         21   -1    0    0  501  502  0.00000000000E+00  0.00000000000E+00  0.33722945044E+03  0.33722945044E+03  0.00000000000E+00 0.  1.
         21   -1    0    0  502  503 -0.00000000000E+00 -0.00000000000E+00 -0.39429978362E+03  0.39429978362E+03  0.00000000000E+00 0.  1.
          6    1    1    2  501    0  0.30861817811E+02 -0.14426694055E+02  0.29162696850E+03  0.34078713306E+03  0.17300000000E+03 0.  1.
         -6    1    1    2    0  503 -0.30861817811E+02  0.14426694055E+02 -0.34869730168E+03  0.39074210100E+03  0.17300000000E+03 0.  1.
<mgrwt>
<rscale>  2 0.17632238E+03</rscale>
<asrwt>0</asrwt>
<pdfrwt beam="1">  1       21 0.51881454E-01 0.17632238E+03</pdfrwt>
<pdfrwt beam="2">  1       21 0.60661505E-01 0.17632238E+03</pdfrwt>
<totfact> 0.90315264E+03</totfact>
</mgrwt>
</event>
<event>
 4    3  0.4009700E+000  0.2448834E+03  0.7546771E-02  0.1116582E+00
         21   -1    0    0  503  502  0.00000000000E+00  0.00000000000E+00  0.95178282855E+03  0.95178282855E+03  0.00000000000E+00 0. -1.
         21   -1    0    0  501  503 -0.00000000000E+00 -0.00000000000E+00 -0.69718246452E+02  0.69718246452E+02  0.00000000000E+00 0. -1.
          6    1    1    2  501    0 -0.11167678965E+03 -0.13254121352E+03  0.28255221926E+03  0.37390324314E+03  0.17300000000E+03 0. -1.
         -6    1    1    2    0  502  0.11167678965E+03  0.13254121352E+03  0.59951236285E+03  0.64759783186E+03  0.17300000000E+03 0. -1.
<mgrwt>
<rscale>  2 0.24488340E+03</rscale>
<asrwt>0</asrwt>
<pdfrwt beam="1">  1       21 0.14642812E+00 0.24488340E+03</pdfrwt>
<pdfrwt beam="2">  1       21 0.10725885E-01 0.24488340E+03</pdfrwt>
<totfact> 0.22114328E+04</totfact>
</mgrwt>
</event>
<event>
 4    3  0.4009700E+000  0.2827915E+03  0.7546771E-02  0.1094174E+00
         21   -1    0    0  501  502  0.00000000000E+00  0.00000000000E+00  0.80080857230E+02  0.80080857230E+02  0.00000000000E+00 0. -1.
         21   -1    0    0  502  503 -0.00000000000E+00 -0.00000000000E+00 -0.10448664227E+04  0.10448664227E+04  0.00000000000E+00 0.  1.
          6    1    1    2  501    0 -0.84244873516E+02  0.20723136683E+03 -0.36406948800E+03  0.46099634511E+03  0.17300000000E+03 0. -1.
         -6    1    1    2    0  503  0.84244873516E+02 -0.20723136683E+03 -0.60071607746E+03  0.66395093481E+03  0.17300000000E+03 0.  1.
<mgrwt>
<rscale>  2 0.28279151E+03</rscale>
<asrwt>0</asrwt>
<pdfrwt beam="1">  1       21 0.12320134E-01 0.28279151E+03</pdfrwt>
<pdfrwt beam="2">  1       21 0.16074865E+00 0.28279151E+03</pdfrwt>
<totfact> 0.13150557E+04</totfact>
</mgrwt>
</event>
<event>
 4    3  0.4009700E+000  0.1942240E+03  0.7546771E-02  0.1154706E+00
         21   -1    0    0  501  502  0.00000000000E+00  0.00000000000E+00  0.11561924116E+04  0.11561924116E+04  0.00000000000E+00 0.  1.
         21   -1    0    0  502  503 -0.00000000000E+00 -0.00000000000E+00 -0.34825343179E+02  0.34825343179E+02  0.00000000000E+00 0. -1.
          6    1    1    2  501    0  0.67746138837E+02 -0.56607595693E+02  0.71030690682E+03  0.73638227918E+03  0.17300000000E+03 0. -1.
         -6    1    1    2    0  503 -0.67746138837E+02  0.56607595693E+02  0.41106016163E+03  0.45463547563E+03  0.17300000000E+03 0. -1.
<mgrwt>
<rscale>  2 0.19422399E+03</rscale>
<asrwt>0</asrwt>
<pdfrwt beam="1">  1       21 0.17787573E+00 0.19422399E+03</pdfrwt>
<pdfrwt beam="2">  1       21 0.53577460E-02 0.19422399E+03</pdfrwt>
<totfact> 0.44960692E+04</totfact>
</mgrwt>
</event>
<event>
 4    3  0.4009700E+000  0.2547860E+03  0.7546771E-02  0.1110317E+00
         21   -1    0    0  503  502  0.00000000000E+00  0.00000000000E+00  0.53422902461E+03  0.53422902461E+03  0.00000000000E+00 0.  1.
         21   -1    0    0  501  503 -0.00000000000E+00 -0.00000000000E+00 -0.19468788152E+03  0.19468788152E+03  0.00000000000E+00 0.  1.
          6    1    1    2  501    0  0.16577651978E+03  0.86631749422E+02 -0.53668329734E+02  0.26037704226E+03  0.17300000000E+03 0.  1.
         -6    1    1    2    0  502 -0.16577651978E+03 -0.86631749422E+02  0.39320947283E+03  0.46853986387E+03  0.17300000000E+03 0.  1.
<mgrwt>
<rscale>  2 0.25478602E+03</rscale>
<asrwt>0</asrwt>
<pdfrwt beam="1">  1       21 0.82189080E-01 0.25478602E+03</pdfrwt>
<pdfrwt beam="2">  1       21 0.29951982E-01 0.25478602E+03</pdfrwt>
<totfact> 0.13330807E+04</totfact>
</mgrwt>
</event>
<event>
 4    3  0.4009700E+000  0.1731507E+03  0.7546771E-02  0.1174601E+00
         21   -1    0    0  501  502  0.00000000000E+00  0.00000000000E+00  0.63146736301E+02  0.63146736301E+02  0.00000000000E+00 0.  1.
         21   -1    0    0  502  503 -0.00000000000E+00 -0.00000000000E+00 -0.50136556110E+03  0.50136556110E+03  0.00000000000E+00 0.  1.
          6    1    1    2  501    0  0.30657660734E+00  0.72155991063E+01 -0.15411984889E+03  0.23180614030E+03  0.17300000000E+03 0.  1.
         -6    1    1    2    0  503 -0.30657660734E+00 -0.72155991063E+01 -0.28409897591E+03  0.33270615710E+03  0.17300000000E+03 0.  1.
<mgrwt>
<rscale>  2 0.17315068E+03</rscale>
<asrwt>0</asrwt>
<pdfrwt beam="1">  1       21 0.97148826E-02 0.17315068E+03</pdfrwt>
<pdfrwt beam="2">  1       21 0.77133163E-01 0.17315068E+03</pdfrwt>
<totfact> 0.12842109E+05</totfact>
</mgrwt>
</event>
<event>
 4    3  0.4009700E+000  0.1788226E+03  0.7546771E-02  0.1168947E+00
         21   -1    0    0  503  502  0.00000000000E+00  0.00000000000E+00  0.46321511631E+03  0.46321511631E+03  0.00000000000E+00 0. -1.
         21   -1    0    0  501  503 -0.00000000000E+00 -0.00000000000E+00 -0.29419168413E+03  0.29419168413E+03  0.00000000000E+00 0. -1.
          6    1    1    2  501    0 -0.42890046830E+02 -0.14455968910E+02 -0.24679292686E+03  0.30476922401E+03  0.17300000000E+03 0. -1.
         -6    1    1    2    0  502  0.42890046830E+02  0.14455968910E+02  0.41581635904E+03  0.45263757643E+03  0.17300000000E+03 0. -1.
<mgrwt>
<rscale>  2 0.17882262E+03</rscale>
<asrwt>0</asrwt>
<pdfrwt beam="1">  1       21 0.71263865E-01 0.17882262E+03</pdfrwt>
<pdfrwt beam="2">  1       21 0.45260259E-01 0.17882262E+03</pdfrwt>
<totfact> 0.84243517E+03</totfact>
</mgrwt>
</event>
<event>
 4    3  0.4009700E+000  0.2011873E+03  0.7546771E-02  0.1148741E+00
         21   -1    0    0  501  502  0.00000000000E+00  0.00000000000E+00  0.63513155215E+02  0.63513155215E+02  0.00000000000E+00 0.  1.
         21   -1    0    0  502  503 -0.00000000000E+00 -0.00000000000E+00 -0.63818433689E+03  0.63818433689E+03  0.00000000000E+00 0. -1.
          6    1    1    2  501    0 -0.82038958315E+02  0.61781437948E+02 -0.30046520147E+03  0.36160154044E+03  0.17300000000E+03 0. -1.
         -6    1    1    2    0  503  0.82038958315E+02 -0.61781437948E+02 -0.27420598021E+03  0.34009595166E+03  0.17300000000E+03 0.  1.
<mgrwt>
<rscale>  2 0.20118732E+03</rscale>
<asrwt>0</asrwt>
<pdfrwt beam="1">  1       21 0.97712548E-02 0.20118732E+03</pdfrwt>
<pdfrwt beam="2">  1       21 0.98182205E-01 0.20118732E+03</pdfrwt>
<totfact> 0.72179672E+04</totfact>
</mgrwt>
</event>
<event>
 4    3  0.4009700E+000  0.1969611E+03  0.7546771E-02  0.1152329E+00
         21   -1    0    0  503  502  0.00000000000E+00  0.00000000000E+00  0.25818045022E+03  0.25818045022E+03  0.00000000000E+00 0.  1.
         21   -1    0    0  501  503 -0.00000000000E+00 -0.00000000000E+00 -0.17032143072E+03  0.17032143072E+03  0.00000000000E+00 0. -1.
          6    1    1    2  501    0  0.86262207452E+02 -0.37729329544E+02 -0.29604965063E+02  0.19917360442E+03  0.17300000000E+03 0. -1.
         -6    1    1    2    0  502 -0.86262207452E+02  0.37729329544E+02  0.11746398457E+03  0.22932827652E+03  0.17300000000E+03 0.  1.
<mgrwt>
<rscale>  2 0.19696109E+03</rscale>
<asrwt>0</asrwt>
<pdfrwt beam="1">  1       21 0.39720069E-01 0.19696109E+03</pdfrwt>
<pdfrwt beam="2">  1       21 0.26203297E-01 0.19696109E+03</pdfrwt>
<totfact> 0.84426046E+04</totfact>
</mgrwt>
</event>
<event>
 4    3  0.4009700E+000  0.1736351E+03  0.7546771E-02  0.1174109E+00
         21   -1    0    0  501  502  0.00000000000E+00  0.00000000000E+00  0.47563805356E+03  0.47563805356E+03  0.00000000000E+00 0. -1.
         21   -1    0    0  502  503 -0.00000000000E+00 -0.00000000000E+00 -0.67811197712E+02  0.67811197712E+02  0.00000000000E+00 0. -1.
          6    1    1    2  501    0 -0.12510070097E+02  0.79785007888E+01  0.27332102450E+03  0.32381096455E+03  0.17300000000E+03 0. -1.
         -6    1    1    2    0  503  0.12510070097E+02 -0.79785007888E+01  0.13450583136E+03  0.21963828673E+03  0.17300000000E+03 0. -1.
<mgrwt>
<rscale>  2 0.17363513E+03</rscale>
<asrwt>0</asrwt>
<pdfrwt beam="1">  1       21 0.73175083E-01 0.17363513E+03</pdfrwt>
<pdfrwt beam="2">  1       21 0.10432492E-01 0.17363513E+03</pdfrwt>
<totfact> 0.12733232E+05</totfact>
</mgrwt>
</event>
<event>
 4    3  0.4009700E+000  0.2262440E+03  0.7546771E-02  0.1129312E+00
         21   -1    0    0  503  502  0.00000000000E+00  0.00000000000E+00  0.13853870790E+04  0.13853870790E+04  0.00000000000E+00 0. -1.
         21   -1    0    0  501  503 -0.00000000000E+00 -0.00000000000E+00 -0.10962849254E+03  0.10962849254E+03  0.00000000000E+00 0.  1.
          6    1    1    2  501    0  0.59449866149E+02 -0.13312791329E+03  0.29232991674E+02  0.22812473712E+03  0.17300000000E+03 0.  1.
         -6    1    1    2    0  502 -0.59449866149E+02  0.13312791329E+03  0.12465255948E+04  0.12668908344E+04  0.17300000000E+03 0. -1.
<mgrwt>
<rscale>  2 0.22624396E+03</rscale>
<asrwt>0</asrwt>
<pdfrwt beam="1">  1       21 0.21313646E+00 0.22624396E+03</pdfrwt>
<pdfrwt beam="2">  1       21 0.16865923E-01 0.22624396E+03</pdfrwt>
<totfact> 0.34016200E+03</totfact>
</mgrwt>
</event>
<event>
 4    3  0.4009700E+000  0.2022707E+03  0.7546771E-02  0.1147837E+00
         21   -1    0    0  503  502  0.00000000000E+00  0.00000000000E+00  0.63914507469E+02  0.63914507469E+02  0.00000000000E+00 0.  1.
         21   -1    0    0  501  503 -0.00000000000E+00 -0.00000000000E+00 -0.64854460407E+03  0.64854460407E+03  0.00000000000E+00 0.  1.
          6    1    1    2  501    0  0.10433973050E+03  0.98823666589E+01 -0.33289753805E+03  0.38953075793E+03  0.17300000000E+03 0.  1.
         -6    1    1    2    0  502 -0.10433973050E+03 -0.98823666589E+01 -0.25173255855E+03  0.32292835361E+03  0.17300000000E+03 0.  1.
<mgrwt>
<rscale>  2 0.20227071E+03</rscale>
<asrwt>0</asrwt>
<pdfrwt beam="1">  1       21 0.98330013E-02 0.20227071E+03</pdfrwt>
<pdfrwt beam="2">  1       21 0.99776092E-01 0.20227071E+03</pdfrwt>
<totfact> 0.68677994E+04</totfact>
</mgrwt>
</event>
<event>
 4    3  0.4009700E+000  0.2714069E+03  0.7546771E-02  0.1100477E+00
         21   -1    0    0  501  502  0.00000000000E+00  0.00000000000E+00  0.29639405823E+03  0.29639405823E+03  0.00000000000E+00 0.  1.
         21   -1    0    0  502  503 -0.00000000000E+00 -0.00000000000E+00 -0.30744978688E+03  0.30744978688E+03  0.00000000000E+00 0. -1.
          6    1    1    2  501    0 -0.18203495755E+03  0.10293683652E+03  0.12664788356E+03  0.29950192736E+03  0.17300000000E+03 0. -1.
         -6    1    1    2    0  503  0.18203495755E+03 -0.10293683652E+03 -0.13770361221E+03  0.30434191775E+03  0.17300000000E+03 0.  1.
<mgrwt>
<rscale>  2 0.27140692E+03</rscale>
<asrwt>0</asrwt>
<pdfrwt beam="1">  1       21 0.45599086E-01 0.27140692E+03</pdfrwt>
<pdfrwt beam="2">  1       21 0.47299967E-01 0.27140692E+03</pdfrwt>
<totfact> 0.18917597E+04</totfact>
</mgrwt>
</event>
<event>
 4    3  0.4009700E+000  0.4815496E+03  0.7546771E-02  0.1018710E+00
         21   -1    0    0  501  502  0.00000000000E+00  0.00000000000E+00  0.15267554941E+03  0.15267554941E+03  0.00000000000E+00 0.  1.
         21   -1    0    0  502  503 -0.00000000000E+00 -0.00000000000E+00 -0.15277146162E+04  0.15277146162E+04  0.00000000000E+00 0. -1.
          6    1    1    2  501    0 -0.24907777032E+03  0.37406047817E+03 -0.75155114804E+03  0.89259123069E+03  0.17300000000E+03 0.  1.
         -6    1    1    2    0  503  0.24907777032E+03 -0.37406047817E+03 -0.62348791871E+03  0.78779893486E+03  0.17300000000E+03 0. -1.
<mgrwt>
<rscale>  2 0.48154956E+03</rscale>
<asrwt>0</asrwt>
<pdfrwt beam="1">  1       21 0.23488546E-01 0.48154956E+03</pdfrwt>
<pdfrwt beam="2">  1       21 0.23503302E+00 0.48154956E+03</pdfrwt>
<totfact> 0.11346591E+03</totfact>
</mgrwt>
</event>
<event>
 4    3  0.4009700E+000  0.1766198E+03  0.7546771E-02  0.1171115E+00
         21   -1    0    0  503  502  0.00000000000E+00  0.00000000000E+00  0.34543944722E+03  0.34543944722E+03  0.00000000000E+00 0.  1.
         21   -1    0    0  501  503 -0.00000000000E+00 -0.00000000000E+00 -0.32987782497E+03  0.32987782497E+03  0.00000000000E+00 0.  1.
          6    1    1    2  501    0  0.83920435870E+01  0.34570554204E+02 -0.27997295832E+03  0.33102780397E+03  0.17300000000E+03 0.  1.
         -6    1    1    2    0  502 -0.83920435870E+01 -0.34570554204E+02  0.29553458057E+03  0.34428946822E+03  0.17300000000E+03 0.  1.
<mgrwt>
<rscale>  2 0.17661979E+03</rscale>
<asrwt>0</asrwt>
<pdfrwt beam="1">  1       21 0.53144530E-01 0.17661979E+03</pdfrwt>
<pdfrwt beam="2">  1       21 0.50750434E-01 0.17661979E+03</pdfrwt>
<totfact> 0.12519814E+04</totfact>
</mgrwt>
</event>
<event>
 4    3  0.4009700E+000  0.2522507E+03  0.7546771E-02  0.1111891E+00
         21   -1    0    0  503  502  0.00000000000E+00  0.00000000000E+00  0.13766735537E+03  0.13766735537E+03  0.00000000000E+00 0. -1.
         21   -1    0    0  501  503 -0.00000000000E+00 -0.00000000000E+00 -0.47499248750E+03  0.47499248750E+03  0.00000000000E+00 0.  1.
          6    1    1    2  501    0 -0.18150103760E+03  0.27546225832E+02 -0.21892613372E+03  0.33400460062E+03  0.17300000000E+03 0.  1.
         -6    1    1    2    0  502  0.18150103760E+03 -0.27546225832E+02 -0.11839899841E+03  0.27865524225E+03  0.17300000000E+03 0.  1.
<mgrwt>
<rscale>  2 0.25225071E+03</rscale>
<asrwt>0</asrwt>
<pdfrwt beam="1">  1       21 0.21179593E-01 0.25225071E+03</pdfrwt>
<pdfrwt beam="2">  1       21 0.73075767E-01 0.25225071E+03</pdfrwt>
<totfact> 0.33922919E+04</totfact>
</mgrwt>
</event>
<event>
 4    3  0.4009700E+000  0.1895187E+03  0.7546771E-02  0.1158896E+00
         21   -1    0    0  501  502  0.00000000000E+00  0.00000000000E+00  0.98740685129E+03  0.98740685129E+03  0.00000000000E+00 0.  1.
         21   -1    0    0  502  503 -0.00000000000E+00 -0.00000000000E+00 -0.38253877447E+02  0.38253877447E+02  0.00000000000E+00 0. -1.
          6    1    1    2  501    0  0.59920195795E+02  0.48968524032E+02  0.58821769148E+03  0.61799465918E+03  0.17300000000E+03 0.  1.
         -6    1    1    2    0  503 -0.59920195795E+02 -0.48968524032E+02  0.36093528237E+03  0.40766606956E+03  0.17300000000E+03 0.  1.
<mgrwt>
<rscale>  2 0.18951872E+03</rscale>
<asrwt>0</asrwt>
<pdfrwt beam="1">  1       21 0.15190873E+00 0.18951872E+03</pdfrwt>
<pdfrwt beam="2">  1       21 0.58852127E-02 0.18951872E+03</pdfrwt>
<totfact> 0.59020048E+04</totfact>
</mgrwt>
</event>
<event>
 4    3  0.4009700E+000  0.1804108E+03  0.7546771E-02  0.1167406E+00
         21   -1    0    0  503  502  0.00000000000E+00  0.00000000000E+00  0.12406691280E+03  0.12406691280E+03  0.00000000000E+00 0. -1.
         21   -1    0    0  501  503 -0.00000000000E+00 -0.00000000000E+00 -0.36291123658E+03  0.36291123658E+03  0.00000000000E+00 0. -1.
          6    1    1    2  501    0  0.45278699740E+02 -0.23851576967E+02 -0.24759918230E+03  0.30635504476E+03  0.17300000000E+03 0. -1.
         -6    1    1    2    0  502 -0.45278699740E+02  0.23851576967E+02  0.87548585213E+01  0.18062310462E+03  0.17300000000E+03 0. -1.
<mgrwt>
<rscale>  2 0.18041080E+03</rscale>
<asrwt>0</asrwt>
<pdfrwt beam="1">  1       21 0.19087217E-01 0.18041080E+03</pdfrwt>
<pdfrwt beam="2">  1       21 0.55832498E-01 0.18041080E+03</pdfrwt>
<totfact> 0.76478491E+04</totfact>
</mgrwt>
</event>
<event>
 4    3  0.4009700E+000  0.2066167E+03  0.7546771E-02  0.1144274E+00
         21   -1    0    0  501  502  0.00000000000E+00  0.00000000000E+00  0.45412835480E+03  0.45412835480E+03  0.00000000000E+00 0. -1.
         21   -1    0    0  502  503 -0.00000000000E+00 -0.00000000000E+00 -0.95172356291E+02  0.95172356291E+02  0.00000000000E+00 0.  1.
          6    1    1    2  501    0 -0.10110982234E+03  0.50381163504E+02  0.20989221103E+03  0.29452537762E+03  0.17300000000E+03 0.  1.
         -6    1    1    2    0  503  0.10110982234E+03 -0.50381163504E+02  0.14906378748E+03  0.25477533348E+03  0.17300000000E+03 0. -1.
<mgrwt>
<rscale>  2 0.20661669E+03</rscale>
<asrwt>0</asrwt>
<pdfrwt beam="1">  1       21 0.69865899E-01 0.20661669E+03</pdfrwt>
<pdfrwt beam="2">  1       21 0.14641901E-01 0.20661669E+03</pdfrwt>
<totfact> 0.75803068E+04</totfact>
</mgrwt>
</event>
<event>
 4    3  0.4009700E+000  0.2433646E+03  0.7546771E-02  0.1117571E+00
         21   -1    0    0  503  502  0.00000000000E+00  0.00000000000E+00  0.14838254282E+03  0.14838254282E+03  0.00000000000E+00 0. -1.
         21   -1    0    0  501  503 -0.00000000000E+00 -0.00000000000E+00 -0.57143288364E+03  0.57143288364E+03  0.00000000000E+00 0. -1.
          6    1    1    2  501    0 -0.10660250306E+03  0.13391510874E+03 -0.40914667868E+03  0.47605394094E+03  0.17300000000E+03 0. -1.
         -6    1    1    2    0  502  0.10660250306E+03 -0.13391510874E+03 -0.13903662137E+02  0.24376148553E+03  0.17300000000E+03 0. -1.
<mgrwt>
<rscale>  2 0.24336464E+03</rscale>
<asrwt>0</asrwt>
<pdfrwt beam="1">  1       21 0.22828084E-01 0.24336464E+03</pdfrwt>
<pdfrwt beam="2">  1       21 0.87912751E-01 0.24336464E+03</pdfrwt>
<totfact> 0.19398824E+04</totfact>
</mgrwt>
</event>
<event>
 4    3  0.4009700E+000  0.1784186E+03  0.7546771E-02  0.1169342E+00
         21   -1    0    0  503  502  0.00000000000E+00  0.00000000000E+00  0.43936966470E+02  0.43936966470E+02  0.00000000000E+00 0.  1.
         21   -1    0    0  501  503 -0.00000000000E+00 -0.00000000000E+00 -0.21870777888E+04  0.21870777888E+04  0.00000000000E+00 0.  1.
          6    1    1    2  501    0 -0.42415249964E+02 -0.10253758409E+02 -0.19837847827E+04  0.19917919713E+04  0.17300000000E+03 0.  1.
         -6    1    1    2    0  502  0.42415249964E+02  0.10253758409E+02 -0.15935603964E+03  0.23922278395E+03  0.17300000000E+03 0.  1.
<mgrwt>
<rscale>  2 0.17841859E+03</rscale>
<asrwt>0</asrwt>
<pdfrwt beam="1">  1       21 0.67595350E-02 0.17841859E+03</pdfrwt>
<pdfrwt beam="2">  1       21 0.33647342E+00 0.17841859E+03</pdfrwt>
<totfact> 0.34383320E+03</totfact>
</mgrwt>
</event>
<event>
 4    3  0.4009700E+000  0.1760255E+03  0.7546771E-02  0.1171706E+00
         21   -1    0    0  501  502  0.00000000000E+00  0.00000000000E+00  0.12239201533E+03  0.12239201533E+03  0.00000000000E+00 0.  1.
         21   -1    0    0  502  503 -0.00000000000E+00 -0.00000000000E+00 -0.31627041249E+03  0.31627041249E+03  0.00000000000E+00 0.  1.
          6    1    1    2  501    0 -0.12337450188E+02 -0.30062754657E+02  0.10358537587E+01  0.17602856270E+03  0.17300000000E+03 0.  1.
         -6    1    1    2    0  503  0.12337450188E+02  0.30062754657E+02 -0.19491425092E+03  0.26263386511E+03  0.17300000000E+03 0.  1.
<mgrwt>
<rscale>  2 0.17602551E+03</rscale>
<asrwt>0</asrwt>
<pdfrwt beam="1">  1       21 0.18829541E-01 0.17602551E+03</pdfrwt>
<pdfrwt beam="2">  1       21 0.48656986E-01 0.17602551E+03</pdfrwt>
<totfact> 0.10480129E+05</totfact>
</mgrwt>
</event>
<event>
 4    3  0.4009700E+000  0.1736848E+03  0.7546771E-02  0.1174059E+00
         21   -1    0    0  503  502  0.00000000000E+00  0.00000000000E+00  0.14718891790E+04  0.14718891790E+04  0.00000000000E+00 0.  1.
         21   -1    0    0  501  503 -0.00000000000E+00 -0.00000000000E+00 -0.65856642876E+02  0.65856642876E+02  0.00000000000E+00 0.  1.
          6    1    1    2  501    0  0.81055561928E+01  0.13104339693E+02  0.64901237348E+02  0.18541465522E+03  0.17300000000E+03 0.  1.
         -6    1    1    2    0  502 -0.81055561928E+01 -0.13104339693E+02  0.13411312988E+04  0.13523311667E+04  0.17300000000E+03 0.  1.
<mgrwt>
<rscale>  2 0.17368484E+03</rscale>
<asrwt>0</asrwt>
<pdfrwt beam="1">  1       21 0.22644446E+00 0.17368484E+03</pdfrwt>
<pdfrwt beam="2">  1       21 0.10131792E-01 0.17368484E+03</pdfrwt>
<totfact> 0.74217762E+03</totfact>
</mgrwt>
</event>
<event>
 4    3  0.4009700E+000  0.2287741E+03  0.7546771E-02  0.1127506E+00
         21   -1    0    0  501  502  0.00000000000E+00  0.00000000000E+00  0.54586235450E+03  0.54586235450E+03  0.00000000000E+00 0. -1.
         21   -1    0    0  502  503 -0.00000000000E+00 -0.00000000000E+00 -0.30841684484E+03  0.30841684484E+03  0.00000000000E+00 0. -1.
          6    1    1    2  501    0 -0.49839651923E+02 -0.14115446557E+03  0.47330530590E+03  0.52569524122E+03  0.17300000000E+03 0. -1.
         -6    1    1    2    0  503  0.49839651923E+02  0.14115446557E+03 -0.23585979624E+03  0.32858395812E+03  0.17300000000E+03 0. -1.
<mgrwt>
<rscale>  2 0.22877407E+03</rscale>
<asrwt>0</asrwt>
<pdfrwt beam="1">  1       21 0.83978824E-01 0.22877407E+03</pdfrwt>
<pdfrwt beam="2">  1       21 0.47448746E-01 0.22877407E+03</pdfrwt>
<totfact> 0.50951516E+03</totfact>
</mgrwt>
</event>
<event>
 4    3  0.4009700E+000  0.1857628E+03  0.7546771E-02  0.1162339E+00
         21   -1    0    0  503  502  0.00000000000E+00  0.00000000000E+00  0.35019189431E+03  0.35019189431E+03  0.00000000000E+00 0.  1.
         21   -1    0    0  501  503 -0.00000000000E+00 -0.00000000000E+00 -0.12213979767E+03  0.12213979767E+03  0.00000000000E+00 0.  1.
          6    1    1    2  501    0 -0.65907763436E+02 -0.15329547237E+02  0.10214717212E+02  0.18604345930E+03  0.17300000000E+03 0. -1.
         -6    1    1    2    0  502  0.65907763436E+02  0.15329547237E+02  0.21783737942E+03  0.28628823269E+03  0.17300000000E+03 0. -1.
<mgrwt>
<rscale>  2 0.18576283E+03</rscale>
<asrwt>0</asrwt>
<pdfrwt beam="1">  1       21 0.53875675E-01 0.18576283E+03</pdfrwt>
<pdfrwt beam="2">  1       21 0.18790738E-01 0.18576283E+03</pdfrwt>
<totfact> 0.84708381E+04</totfact>
</mgrwt>
</event>
<event>
 4    3  0.4009700E+000  0.1895759E+03  0.7546771E-02  0.1158844E+00
         21   -1    0    0  501  502  0.00000000000E+00  0.00000000000E+00  0.14966348169E+04  0.14966348169E+04  0.00000000000E+00 0. -1.
         21   -1    0    0  502  503 -0.00000000000E+00 -0.00000000000E+00 -0.26045057372E+02  0.26045057372E+02  0.00000000000E+00 0.  1.
          6    1    1    2  501    0  0.68825611510E+02 -0.35679839813E+02  0.94794263706E+03  0.96671312131E+03  0.17300000000E+03 0. -1.
         -6    1    1    2    0  503 -0.68825611510E+02  0.35679839813E+02  0.52264712249E+03  0.55596675298E+03  0.17300000000E+03 0. -1.
<mgrwt>
<rscale>  2 0.18957588E+03</rscale>
<asrwt>0</asrwt>
<pdfrwt beam="1">  1       21 0.23025144E+00 0.18957588E+03</pdfrwt>
<pdfrwt beam="2">  1       21 0.40069331E-02 0.18957588E+03</pdfrwt>
<totfact> 0.34131164E+04</totfact>
</mgrwt>
</event>
<event>
 4    3  0.4009700E+000  0.2114886E+03  0.7546771E-02  0.1140393E+00
         21   -1    0    0  503  502  0.00000000000E+00  0.00000000000E+00  0.13267387525E+04  0.13267387525E+04  0.00000000000E+00 0. -1.
         21   -1    0    0  501  503 -0.00000000000E+00 -0.00000000000E+00 -0.34091077916E+02  0.34091077916E+02  0.00000000000E+00 0. -1.
          6    1    1    2  501    0  0.39278600121E+02 -0.11513310792E+03  0.71804288217E+03  0.74854059449E+03  0.17300000000E+03 0. -1.
         -6    1    1    2    0  502 -0.39278600121E+02  0.11513310792E+03  0.57460479242E+03  0.61228923593E+03  0.17300000000E+03 0. -1.
<mgrwt>
<rscale>  2 0.21148863E+03</rscale>
<asrwt>0</asrwt>
<pdfrwt beam="1">  1       21 0.20411361E+00 0.21148863E+03</pdfrwt>
<pdfrwt beam="2">  1       21 0.52447822E-02 0.21148863E+03</pdfrwt>
<totfact> 0.30934896E+04</totfact>
</mgrwt>
</event>
<event>
 4    3  0.4009700E+000  0.1821204E+03  0.7546771E-02  0.1165767E+00
         21   -1    0    0  501  502  0.00000000000E+00  0.00000000000E+00  0.10341084388E+03  0.10341084388E+03  0.00000000000E+00 0.  1.
         21   -1    0    0  502  503 -0.00000000000E+00 -0.00000000000E+00 -0.32176657388E+03  0.32176657388E+03  0.00000000000E+00 0.  1.
          6    1    1    2  501    0  0.18383386028E+02  0.53860027074E+02 -0.12119376941E+03  0.21875964240E+03  0.17300000000E+03 0. -1.
         -6    1    1    2    0  503 -0.18383386028E+02 -0.53860027074E+02 -0.97161960598E+02  0.20641777536E+03  0.17300000000E+03 0. -1.
<mgrwt>
<rscale>  2 0.18212043E+03</rscale>
<asrwt>0</asrwt>
<pdfrwt beam="1">  1       21 0.15909361E-01 0.18212043E+03</pdfrwt>
<pdfrwt beam="2">  1       21 0.49502549E-01 0.18212043E+03</pdfrwt>
<totfact> 0.13756296E+05</totfact>
</mgrwt>
</event>
<event>
 4    3  0.4009700E+000  0.1919616E+03  0.7546771E-02  0.1156704E+00
         21   -1    0    0  503  502  0.00000000000E+00  0.00000000000E+00  0.80484367554E+03  0.80484367554E+03  0.00000000000E+00 0. -1.
         21   -1    0    0  501  503 -0.00000000000E+00 -0.00000000000E+00 -0.46506401775E+02  0.46506401775E+02  0.00000000000E+00 0.  1.
          6    1    1    2  501    0  0.43148649983E+02 -0.71122661785E+02  0.43220919041E+03  0.47292073679E+03  0.17300000000E+03 0. -1.
         -6    1    1    2    0  502 -0.43148649983E+02  0.71122661785E+02  0.32612808336E+03  0.37842934052E+03  0.17300000000E+03 0.  1.
<mgrwt>
<rscale>  2 0.19196156E+03</rscale>
<asrwt>0</asrwt>
<pdfrwt beam="1">  1       21 0.12382209E+00 0.19196156E+03</pdfrwt>
<pdfrwt beam="2">  1       21 0.71548316E-02 0.19196156E+03</pdfrwt>
<totfact> 0.71170895E+04</totfact>
</mgrwt>
</event>
<event>
 4    3  0.4009700E+000  0.2558915E+03  0.7546771E-02  0.1109637E+00
         21   -1    0    0  501  502  0.00000000000E+00  0.00000000000E+00  0.15486132564E+03  0.15486132564E+03  0.00000000000E+00 0. -1.
         21   -1    0    0  502  503 -0.00000000000E+00 -0.00000000000E+00 -0.67260242155E+03  0.67260242155E+03  0.00000000000E+00 0.  1.
          6    1    1    2  501    0  0.49878201709E+02 -0.18183401183E+03 -0.67492100991E+01  0.25598045765E+03  0.17300000000E+03 0. -1.
         -6    1    1    2    0  503 -0.49878201709E+02  0.18183401183E+03 -0.51099188581E+03  0.57148328954E+03  0.17300000000E+03 0. -1.
<mgrwt>
<rscale>  2 0.25589147E+03</rscale>
<asrwt>0</asrwt>
<pdfrwt beam="1">  1       21 0.23824819E-01 0.25589147E+03</pdfrwt>
<pdfrwt beam="2">  1       21 0.10347730E+00 0.25589147E+03</pdfrwt>
<totfact> 0.12084604E+04</totfact>
</mgrwt>
</event>
<event>
 4    3  0.4009700E+000  0.1832418E+03  0.7546771E-02  0.1164702E+00
         21   -1    0    0  501  502  0.00000000000E+00  0.00000000000E+00  0.15590971697E+03  0.15590971697E+03  0.00000000000E+00 0. -1.
         21   -1    0    0  502  503 -0.00000000000E+00 -0.00000000000E+00 -0.42490497629E+03  0.42490497629E+03  0.00000000000E+00 0. -1.
          6    1    1    2  501    0  0.60403356607E+02  0.10016700187E+00  0.69438704326E+02  0.19595741676E+03  0.17300000000E+03 0. -1.
         -6    1    1    2    0  503 -0.60403356607E+02 -0.10016700187E+00 -0.33843396365E+03  0.38485727650E+03  0.17300000000E+03 0. -1.
<mgrwt>
<rscale>  2 0.18324185E+03</rscale>
<asrwt>0</asrwt>
<pdfrwt beam="1">  1       21 0.23986111E-01 0.18324185E+03</pdfrwt>
<pdfrwt beam="2">  1       21 0.65369996E-01 0.18324185E+03</pdfrwt>
<totfact> 0.35455556E+04</totfact>
</mgrwt>
</event>
<event>
 4    3  0.4009700E+000  0.2611942E+03  0.7546771E-02  0.1106428E+00
         21   -1    0    0  503  502  0.00000000000E+00  0.00000000000E+00  0.10693344578E+04  0.10693344578E+04  0.00000000000E+00 0.  1.
         21   -1    0    0  501  503 -0.00000000000E+00 -0.00000000000E+00 -0.10498051447E+03  0.10498051447E+03  0.00000000000E+00 0.  1.
          6    1    1    2  501    0 -0.16050876130E+03  0.11193894407E+03  0.11442771579E+03  0.28515976539E+03  0.17300000000E+03 0.  1.
         -6    1    1    2    0  502  0.16050876130E+03 -0.11193894407E+03  0.84992622750E+03  0.88915520684E+03  0.17300000000E+03 0.  1.
<mgrwt>
<rscale>  2 0.26119416E+03</rscale>
<asrwt>0</asrwt>
<pdfrwt beam="1">  1       21 0.16451299E+00 0.26119416E+03</pdfrwt>
<pdfrwt beam="2">  1       21 0.16150849E-01 0.26119416E+03</pdfrwt>
<totfact> 0.76187032E+03</totfact>
</mgrwt>
</event>
<event>
 4    3  0.4009700E+000  0.2033465E+03  0.7546771E-02  0.1146946E+00
         21   -1    0    0  501  502  0.00000000000E+00  0.00000000000E+00  0.17678638950E+04  0.17678638950E+04  0.00000000000E+00 0.  1.
         21   -1    0    0  502  503 -0.00000000000E+00 -0.00000000000E+00 -0.32909853462E+02  0.32909853462E+02  0.00000000000E+00 0. -1.
          6    1    1    2  501    0 -0.37777761779E+02 -0.99968279434E+02  0.13517475341E+04  0.13669569167E+04  0.17300000000E+03 0.  1.
         -6    1    1    2    0  503  0.37777761779E+02  0.99968279434E+02  0.38320650747E+03  0.43381683180E+03  0.17300000000E+03 0. -1.
<mgrwt>
<rscale>  2 0.20334654E+03</rscale>
<asrwt>0</asrwt>
<pdfrwt beam="1">  1       21 0.27197899E+00 0.20334654E+03</pdfrwt>
<pdfrwt beam="2">  1       21 0.50630557E-02 0.20334654E+03</pdfrwt>
<totfact> 0.12904340E+04</totfact>
</mgrwt>
</event>
<event>
 4    3  0.4009700E+000  0.2462298E+03  0.7546771E-02  0.1115711E+00
         21   -1    0    0  501  502  0.00000000000E+00  0.00000000000E+00  0.41085978252E+03  0.41085978252E+03  0.00000000000E+00 0. -1.
         21   -1    0    0  502  503 -0.00000000000E+00 -0.00000000000E+00 -0.21669548447E+03  0.21669548447E+03  0.00000000000E+00 0. -1.
          6    1    1    2  501    0  0.14590090912E+03 -0.97020924507E+02 -0.80143746445E+02  0.25894430901E+03  0.17300000000E+03 0. -1.
         -6    1    1    2    0  503 -0.14590090912E+03  0.97020924507E+02  0.27430804450E+03  0.36861095799E+03  0.17300000000E+03 0. -1.
<mgrwt>
<rscale>  2 0.24622984E+03</rscale>
<asrwt>0</asrwt>
<pdfrwt beam="1">  1       21 0.63209197E-01 0.24622984E+03</pdfrwt>
<pdfrwt beam="2">  1       21 0.33337767E-01 0.24622984E+03</pdfrwt>
<totfact> 0.19478629E+04</totfact>
</mgrwt>
</event>
<event>
 4    3  0.4009700E+000  0.2047475E+03  0.7546771E-02  0.1145794E+00
         21   -1    0    0  503  502  0.00000000000E+00  0.00000000000E+00  0.33142024105E+03  0.33142024105E+03  0.00000000000E+00 0.  1.
         21   -1    0    0  501  503 -0.00000000000E+00 -0.00000000000E+00 -0.13320323755E+03  0.13320323755E+03  0.00000000000E+00 0. -1.
          6    1    1    2  501    0  0.10408583879E+03 -0.34039402583E+02  0.46957747107E+02  0.21006325899E+03  0.17300000000E+03 0. -1.
         -6    1    1    2    0  502 -0.10408583879E+03  0.34039402583E+02  0.15125925639E+03  0.25456021961E+03  0.17300000000E+03 0.  1.
<mgrwt>
<rscale>  2 0.20474751E+03</rscale>
<asrwt>0</asrwt>
<pdfrwt beam="1">  1       21 0.50987729E-01 0.20474751E+03</pdfrwt>
<pdfrwt beam="2">  1       21 0.20492806E-01 0.20474751E+03</pdfrwt>
<totfact> 0.80258547E+04</totfact>
</mgrwt>
</event>
<event>
 4    3  0.4009700E+000  0.1829489E+03  0.7546771E-02  0.1164979E+00
         21   -1    0    0  501  502  0.00000000000E+00  0.00000000000E+00  0.17736313290E+03  0.17736313290E+03  0.00000000000E+00 0. -1.
         21   -1    0    0  502  503 -0.00000000000E+00 -0.00000000000E+00 -0.39373636570E+03  0.39373636570E+03  0.00000000000E+00 0. -1.
          6    1    1    2  501    0  0.27603970692E+02  0.52719121300E+02  0.97868474768E+02  0.20748138062E+03  0.17300000000E+03 0. -1.
         -6    1    1    2    0  503 -0.27603970692E+02 -0.52719121300E+02 -0.31424170757E+03  0.36361811798E+03  0.17300000000E+03 0. -1.
<mgrwt>
<rscale>  2 0.18294886E+03</rscale>
<asrwt>0</asrwt>
<pdfrwt beam="1">  1       21 0.27286636E-01 0.18294886E+03</pdfrwt>
<pdfrwt beam="2">  1       21 0.60574825E-01 0.18294886E+03</pdfrwt>
<totfact> 0.32677413E+04</totfact>
</mgrwt>
</event>
<event>
 4    3  0.4009700E+000  0.2494592E+03  0.7546771E-02  0.1113647E+00
         21   -1    0    0  501  502  0.00000000000E+00  0.00000000000E+00  0.17368423380E+03  0.17368423380E+03  0.00000000000E+00 0. -1.
         21   -1    0    0  502  503 -0.00000000000E+00 -0.00000000000E+00 -0.54177934125E+03  0.54177934125E+03  0.00000000000E+00 0.  1.
          6    1    1    2  501    0 -0.16141826830E+03  0.79025560938E+02  0.24136678023E+02  0.25062417251E+03  0.17300000000E+03 0. -1.
         -6    1    1    2    0  503  0.16141826830E+03 -0.79025560938E+02 -0.39223178547E+03  0.46483940254E+03  0.17300000000E+03 0. -1.
<mgrwt>
<rscale>  2 0.24945921E+03</rscale>
<asrwt>0</asrwt>
<pdfrwt beam="1">  1       21 0.26720652E-01 0.24945921E+03</pdfrwt>
<pdfrwt beam="2">  1       21 0.83350667E-01 0.24945921E+03</pdfrwt>
<totfact> 0.16168512E+04</totfact>
</mgrwt>
</event>
<event>
 4    3  0.4009700E+000  0.1736546E+03  0.7546771E-02  0.1174089E+00
         21   -1    0    0  503  502  0.00000000000E+00  0.00000000000E+00  0.26896010165E+03  0.26896010165E+03  0.00000000000E+00 0.  1.
         21   -1    0    0  501  503 -0.00000000000E+00 -0.00000000000E+00 -0.17446901787E+03  0.17446901787E+03  0.00000000000E+00 0.  1.
          6    1    1    2  501    0 -0.14878303705E+02 -0.23594911633E+01 -0.85294850345E+02  0.19347129662E+03  0.17300000000E+03 0.  1.
         -6    1    1    2    0  502  0.14878303705E+02  0.23594911633E+01  0.17978593413E+03  0.24995782290E+03  0.17300000000E+03 0.  1.
<mgrwt>
<rscale>  2 0.17365463E+03</rscale>
<asrwt>0</asrwt>
<pdfrwt beam="1">  1       21 0.41378477E-01 0.17365463E+03</pdfrwt>
<pdfrwt beam="2">  1       21 0.26841387E-01 0.17365463E+03</pdfrwt>
<totfact> 0.74936854E+04</totfact>
</mgrwt>
</event>
<event>
 4    3  0.4009700E+000  0.2179281E+03  0.7546771E-02  0.1135437E+00
         21   -1    0    0  503  502  0.00000000000E+00  0.00000000000E+00  0.95617328805E+02  0.95617328805E+02  0.00000000000E+00 0.  1.
         21   -1    0    0  501  503 -0.00000000000E+00 -0.00000000000E+00 -0.50757838078E+03  0.50757838078E+03  0.00000000000E+00 0.  1.
          6    1    1    2  501    0  0.12093050207E+03 -0.54216833785E+02 -0.25014348144E+03  0.33175957063E+03  0.17300000000E+03 0.  1.
         -6    1    1    2    0  502 -0.12093050207E+03  0.54216833785E+02 -0.16181757053E+03  0.27143613895E+03  0.17300000000E+03 0.  1.
<mgrwt>
<rscale>  2 0.21792809E+03</rscale>
<asrwt>0</asrwt>
<pdfrwt beam="1">  1       21 0.14710358E-01 0.21792809E+03</pdfrwt>
<pdfrwt beam="2">  1       21 0.78088981E-01 0.21792809E+03</pdfrwt>
<totfact> 0.58338164E+04</totfact>
</mgrwt>
</event>
<event>
 4    3  0.4009700E+000  0.2013943E+03  0.7546771E-02  0.1148568E+00
         21   -1    0    0  501  502  0.00000000000E+00  0.00000000000E+00  0.92863185778E+02  0.92863185778E+02  0.00000000000E+00 0.  1.
         21   -1    0    0  502  503 -0.00000000000E+00 -0.00000000000E+00 -0.53521258861E+03  0.53521258861E+03  0.00000000000E+00 0.  1.
          6    1    1    2  501    0 -0.61184465388E+02 -0.82988604298E+02 -0.86490919674E+02  0.21918103575E+03  0.17300000000E+03 0.  1.
         -6    1    1    2    0  503  0.61184465388E+02  0.82988604298E+02 -0.35585848316E+03  0.40889473864E+03  0.17300000000E+03 0.  1.
<mgrwt>
<rscale>  2 0.20139426E+03</rscale>
<asrwt>0</asrwt>
<pdfrwt beam="1">  1       21 0.14286644E-01 0.20139426E+03</pdfrwt>
<pdfrwt beam="2">  1       21 0.82340398E-01 0.20139426E+03</pdfrwt>
<totfact> 0.54982750E+04</totfact>
</mgrwt>
</event>
<event>
 4    3  0.4009700E+000  0.2337048E+03  0.7546771E-02  0.1124059E+00
         21   -1    0    0  503  502  0.00000000000E+00  0.00000000000E+00  0.10291190608E+03  0.10291190608E+03  0.00000000000E+00 0. -1.
         21   -1    0    0  501  503 -0.00000000000E+00 -0.00000000000E+00 -0.11747368330E+04  0.11747368330E+04  0.00000000000E+00 0.  1.
          6    1    1    2  501    0 -0.67177962744E+02 -0.14204252042E+03 -0.10089090332E+04  0.10356231909E+04  0.17300000000E+03 0.  1.
         -6    1    1    2    0  502  0.67177962744E+02  0.14204252042E+03 -0.62915893732E+02  0.24202554818E+03  0.17300000000E+03 0. -1.
<mgrwt>
<rscale>  2 0.23370485E+03</rscale>
<asrwt>0</asrwt>
<pdfrwt beam="1">  1       21 0.15832601E-01 0.23370485E+03</pdfrwt>
<pdfrwt beam="2">  1       21 0.18072875E+00 0.23370485E+03</pdfrwt>
<totfact> 0.61859852E+03</totfact>
</mgrwt>
</event>
<event>
 4    3  0.4009700E+000  0.1804613E+03  0.7546771E-02  0.1167357E+00
         21   -1    0    0  503  502  0.00000000000E+00  0.00000000000E+00  0.25345163874E+03  0.25345163874E+03  0.00000000000E+00 0. -1.
         21   -1    0    0  501  503 -0.00000000000E+00 -0.00000000000E+00 -0.12952590669E+03  0.12952590669E+03  0.00000000000E+00 0.  1.
          6    1    1    2  501    0  0.48860165431E+02 -0.15810740736E+02  0.79078060324E+02  0.19702699032E+03  0.17300000000E+03 0.  1.
         -6    1    1    2    0  502 -0.48860165431E+02  0.15810740736E+02  0.44847671719E+02  0.18595055511E+03  0.17300000000E+03 0.  1.
<mgrwt>
<rscale>  2 0.18046134E+03</rscale>
<asrwt>0</asrwt>
<pdfrwt beam="1">  1       21 0.38992560E-01 0.18046134E+03</pdfrwt>
<pdfrwt beam="2">  1       21 0.19927063E-01 0.18046134E+03</pdfrwt>
<totfact> 0.14796524E+05</totfact>
</mgrwt>
</event>
<event>
 4    3  0.4009700E+000  0.1964947E+03  0.7546771E-02  0.1152731E+00
         21   -1    0    0  503  502  0.00000000000E+00  0.00000000000E+00  0.17568317849E+04  0.17568317849E+04  0.00000000000E+00 0.  1.
         21   -1    0    0  501  503 -0.00000000000E+00 -0.00000000000E+00 -0.83572486844E+02  0.83572486844E+02  0.00000000000E+00 0.  1.
          6    1    1    2  501    0  0.78384367119E+02  0.50369379158E+02  0.46632660268E+02  0.20195244086E+03  0.17300000000E+03 0.  1.
         -6    1    1    2    0  502 -0.78384367119E+02 -0.50369379158E+02  0.16266266378E+04  0.16384518309E+04  0.17300000000E+03 0.  1.
<mgrwt>
<rscale>  2 0.19649474E+03</rscale>
<asrwt>0</asrwt>
<pdfrwt beam="1">  1       21 0.27028179E+00 0.19649474E+03</pdfrwt>
<pdfrwt beam="2">  1       21 0.12857307E-01 0.19649474E+03</pdfrwt>
<totfact> 0.26142399E+03</totfact>
</mgrwt>
</event>
<event>
 4    3  0.4009700E+000  0.1741961E+03  0.7546771E-02  0.1173541E+00
         21   -1    0    0  503  502  0.00000000000E+00  0.00000000000E+00  0.11626133435E+04  0.11626133435E+04  0.00000000000E+00 0.  1.
         21   -1    0    0  501  503 -0.00000000000E+00 -0.00000000000E+00 -0.29578756477E+02  0.29578756477E+02  0.00000000000E+00 0.  1.
          6    1    1    2  501    0 -0.18060141483E+02 -0.94407086516E+01  0.36209248098E+03  0.40181495800E+03  0.17300000000E+03 0. -1.
         -6    1    1    2    0  502  0.18060141483E+02  0.94407086516E+01  0.77094210605E+03  0.79037714198E+03  0.17300000000E+03 0. -1.
<mgrwt>
<rscale>  2 0.17419614E+03</rscale>
<asrwt>0</asrwt>
<pdfrwt beam="1">  1       21 0.17886356E+00 0.17419614E+03</pdfrwt>
<pdfrwt beam="2">  1       21 0.45505788E-02 0.17419614E+03</pdfrwt>
<totfact> 0.59083527E+04</totfact>
</mgrwt>
</event>
<event>
 4    3  0.4009700E+000  0.1883716E+03  0.7546771E-02  0.1159938E+00
         21   -1    0    0  501  502  0.00000000000E+00  0.00000000000E+00  0.15445830352E+03  0.15445830352E+03  0.00000000000E+00 0.  1.
         21   -1    0    0  502  503 -0.00000000000E+00 -0.00000000000E+00 -0.32392324505E+03  0.32392324505E+03  0.00000000000E+00 0.  1.
          6    1    1    2  501    0 -0.74464698979E+02  0.31384251573E+01  0.44250160218E+02  0.19349914156E+03  0.17300000000E+03 0.  1.
         -6    1    1    2    0  503  0.74464698979E+02 -0.31384251573E+01 -0.21371510175E+03  0.28488240701E+03  0.17300000000E+03 0.  1.
<mgrwt>
<rscale>  2 0.18837155E+03</rscale>
<asrwt>0</asrwt>
<pdfrwt beam="1">  1       21 0.23762816E-01 0.18837155E+03</pdfrwt>
<pdfrwt beam="2">  1       21 0.49834345E-01 0.18837155E+03</pdfrwt>
<totfact> 0.64133374E+04</totfact>
</mgrwt>
</event>
<event>
 4    3  0.4009700E+000  0.1928117E+03  0.7546771E-02  0.1155950E+00
         21   -1    0    0  503  502  0.00000000000E+00  0.00000000000E+00  0.31918823968E+03  0.31918823968E+03  0.00000000000E+00 0.  1.
         21   -1    0    0  501  503 -0.00000000000E+00 -0.00000000000E+00 -0.15487847539E+03  0.15487847539E+03  0.00000000000E+00 0. -1.
          6    1    1    2  501    0  0.28033063243E+02  0.80383341330E+02 -0.35882336973E+02  0.19612209540E+03  0.17300000000E+03 0. -1.
         -6    1    1    2    0  502 -0.28033063243E+02 -0.80383341330E+02  0.20019210126E+03  0.27794461967E+03  0.17300000000E+03 0. -1.
<mgrwt>
<rscale>  2 0.19281165E+03</rscale>
<asrwt>0</asrwt>
<pdfrwt beam="1">  1       21 0.49105883E-01 0.19281165E+03</pdfrwt>
<pdfrwt beam="2">  1       21 0.23827458E-01 0.19281165E+03</pdfrwt>
<totfact> 0.65666131E+04</totfact>
</mgrwt>
</event>
<event>
 4    3  0.4009700E+000  0.1750186E+03  0.7546771E-02  0.1172713E+00
         21   -1    0    0  501  502  0.00000000000E+00  0.00000000000E+00  0.38697635957E+03  0.38697635957E+03  0.00000000000E+00 0.  1.
         21   -1    0    0  502  503 -0.00000000000E+00 -0.00000000000E+00 -0.15688113567E+03  0.15688113567E+03  0.00000000000E+00 0.  1.
          6    1    1    2  501    0  0.40118437727E-01  0.26504642935E+02  0.30645139902E+03  0.35290786003E+03  0.17300000000E+03 0.  1.
         -6    1    1    2    0  503 -0.40118437727E-01 -0.26504642935E+02 -0.76356175133E+02  0.19094963521E+03  0.17300000000E+03 0.  1.
<mgrwt>
<rscale>  2 0.17501856E+03</rscale>
<asrwt>0</asrwt>
<pdfrwt beam="1">  1       21 0.59534824E-01 0.17501856E+03</pdfrwt>
<pdfrwt beam="2">  1       21 0.24135559E-01 0.17501856E+03</pdfrwt>
<totfact> 0.43054916E+04</totfact>
</mgrwt>
</event>
<event>
 4    3  0.4009700E+000  0.1789475E+03  0.7546771E-02  0.1168826E+00
         21   -1    0    0  501  502  0.00000000000E+00  0.00000000000E+00  0.23596628944E+03  0.23596628944E+03  0.00000000000E+00 0. -1.
         21   -1    0    0  502  503 -0.00000000000E+00 -0.00000000000E+00 -0.14086425594E+03  0.14086425594E+03  0.00000000000E+00 0. -1.
          6    1    1    2  501    0 -0.28383191346E+02 -0.35883123599E+02  0.11498292079E+02  0.17931652136E+03  0.17300000000E+03 0. -1.
         -6    1    1    2    0  503  0.28383191346E+02  0.35883123599E+02  0.83603741421E+02  0.19751402403E+03  0.17300000000E+03 0. -1.
<mgrwt>
<rscale>  2 0.17894749E+03</rscale>
<asrwt>0</asrwt>
<pdfrwt beam="1">  1       21 0.36302506E-01 0.17894749E+03</pdfrwt>
<pdfrwt beam="2">  1       21 0.21671424E-01 0.17894749E+03</pdfrwt>
<totfact> 0.14596453E+05</totfact>
</mgrwt>
</event>
<event>
 4    3  0.4009700E+000  0.2270866E+03  0.7546771E-02  0.1128707E+00
         21   -1    0    0  501  502  0.00000000000E+00  0.00000000000E+00  0.75165657142E+03  0.75165657142E+03  0.00000000000E+00 0. -1.
         21   -1    0    0  502  503 -0.00000000000E+00 -0.00000000000E+00 -0.16652208204E+03  0.16652208204E+03  0.00000000000E+00 0. -1.
          6    1    1    2  501    0 -0.30299636486E+02 -0.14394882792E+03  0.64460379441E+03  0.68343425784E+03  0.17300000000E+03 0. -1.
         -6    1    1    2    0  503  0.30299636486E+02  0.14394882792E+03 -0.59469305030E+02  0.23474439561E+03  0.17300000000E+03 0. -1.
<mgrwt>
<rscale>  2 0.22708662E+03</rscale>
<asrwt>0</asrwt>
<pdfrwt beam="1">  1       21 0.11563947E+00 0.22708662E+03</pdfrwt>
<pdfrwt beam="2">  1       21 0.25618782E-01 0.22708662E+03</pdfrwt>
<totfact> 0.81594606E+03</totfact>
</mgrwt>
</event>
<event>
 4    3  0.4009700E+000  0.2287509E+03  0.7546771E-02  0.1127522E+00
         21   -1    0    0  503  502  0.00000000000E+00  0.00000000000E+00  0.13385267472E+03  0.13385267472E+03  0.00000000000E+00 0.  1.
         21   -1    0    0  501  503 -0.00000000000E+00 -0.00000000000E+00 -0.41470079959E+03  0.41470079959E+03  0.00000000000E+00 0.  1.
          6    1    1    2  501    0  0.14276187258E+03 -0.44911127431E+02 -0.74756962767E+02  0.24065652934E+03  0.17300000000E+03 0.  1.
         -6    1    1    2    0  502 -0.14276187258E+03  0.44911127431E+02 -0.20609116210E+03  0.30789694498E+03  0.17300000000E+03 0.  1.
<mgrwt>
<rscale>  2 0.22875087E+03</rscale>
<asrwt>0</asrwt>
<pdfrwt beam="1">  1       21 0.20592719E-01 0.22875087E+03</pdfrwt>
<pdfrwt beam="2">  1       21 0.63800122E-01 0.22875087E+03</pdfrwt>
<totfact> 0.48764176E+04</totfact>
</mgrwt>
</event>
<event>
 4    3  0.4009700E+000  0.1878988E+03  0.7546771E-02  0.1160370E+00
         21   -1    0    0  503  502  0.00000000000E+00  0.00000000000E+00  0.11161573106E+03  0.11161573106E+03  0.00000000000E+00 0.  1.
         21   -1    0    0  501  503 -0.00000000000E+00 -0.00000000000E+00 -0.36425704965E+03  0.36425704965E+03  0.00000000000E+00 0.  1.
          6    1    1    2  501    0 -0.15062878341E+02 -0.71763943529E+02 -0.21263959911E+03  0.28376319882E+03  0.17300000000E+03 0.  1.
         -6    1    1    2    0  502  0.15062878341E+02  0.71763943529E+02 -0.40001719475E+02  0.19210958189E+03  0.17300000000E+03 0.  1.
<mgrwt>
<rscale>  2 0.18789879E+03</rscale>
<asrwt>0</asrwt>
<pdfrwt beam="1">  1       21 0.17171651E-01 0.18789879E+03</pdfrwt>
<pdfrwt beam="2">  1       21 0.56039546E-01 0.18789879E+03</pdfrwt>
<totfact> 0.91982067E+04</totfact>
</mgrwt>
</event>
<event>
 4    3  0.4009700E+000  0.2479809E+03  0.7546771E-02  0.1114588E+00
         21   -1    0    0  503  502  0.00000000000E+00  0.00000000000E+00  0.11361760248E+03  0.11361760248E+03  0.00000000000E+00 0.  1.
         21   -1    0    0  501  503 -0.00000000000E+00 -0.00000000000E+00 -0.92954053955E+03  0.92954053955E+03  0.00000000000E+00 0.  1.
          6    1    1    2  501    0 -0.16793280949E+03  0.58000779696E+02 -0.74506969982E+03  0.78525370202E+03  0.17300000000E+03 0.  1.
         -6    1    1    2    0  502  0.16793280949E+03 -0.58000779696E+02 -0.70853237245E+02  0.25790444001E+03  0.17300000000E+03 0.  1.
<mgrwt>
<rscale>  2 0.24798088E+03</rscale>
<asrwt>0</asrwt>
<pdfrwt beam="1">  1       21 0.17479632E-01 0.24798088E+03</pdfrwt>
<pdfrwt beam="2">  1       21 0.14300623E+00 0.24798088E+03</pdfrwt>
<totfact> 0.96656889E+03</totfact>
</mgrwt>
</event>
<event>
 4    3  0.4009700E+000  0.2235452E+03  0.7546771E-02  0.1131267E+00
         21   -1    0    0  503  502  0.00000000000E+00  0.00000000000E+00  0.29136075897E+03  0.29136075897E+03  0.00000000000E+00 0. -1.
         21   -1    0    0  501  503 -0.00000000000E+00 -0.00000000000E+00 -0.27328580760E+03  0.27328580760E+03  0.00000000000E+00 0. -1.
          6    1    1    2  501    0  0.25798659162E+02 -0.13920453904E+03 -0.16324920973E+03  0.27680819891E+03  0.17300000000E+03 0. -1.
         -6    1    1    2    0  502 -0.25798659162E+02  0.13920453904E+03  0.18132416110E+03  0.28783836767E+03  0.17300000000E+03 0. -1.
<mgrwt>
<rscale>  2 0.22354524E+03</rscale>
<asrwt>0</asrwt>
<pdfrwt beam="1">  1       21 0.44824732E-01 0.22354524E+03</pdfrwt>
<pdfrwt beam="2">  1       21 0.42043970E-01 0.22354524E+03</pdfrwt>
<totfact> 0.25570692E+04</totfact>
</mgrwt>
</event>
<event>
 4    3  0.4009700E+000  0.2002145E+03  0.7546771E-02  0.1149558E+00
         21   -1    0    0  501  502  0.00000000000E+00  0.00000000000E+00  0.16055344490E+03  0.16055344490E+03  0.00000000000E+00 0. -1.
         21   -1    0    0  502  503 -0.00000000000E+00 -0.00000000000E+00 -0.30260700735E+03  0.30260700735E+03  0.00000000000E+00 0.  1.
          6    1    1    2  501    0 -0.71461963039E+02  0.71063710611E+02 -0.16788339835E+03  0.26128662149E+03  0.17300000000E+03 0.  1.
         -6    1    1    2    0  503  0.71461963039E+02 -0.71063710611E+02  0.25829835901E+02  0.20187383077E+03  0.17300000000E+03 0. -1.
<mgrwt>
<rscale>  2 0.20021454E+03</rscale>
<asrwt>0</asrwt>
<pdfrwt beam="1">  1       21 0.24700530E-01 0.20021454E+03</pdfrwt>
<pdfrwt beam="2">  1       21 0.46554924E-01 0.20021454E+03</pdfrwt>
<totfact> 0.68251164E+04</totfact>
</mgrwt>
</event>
<event>
 4    3  0.4009700E+000  0.1806357E+03  0.7546771E-02  0.1167189E+00
         21   -1    0    0  503  502  0.00000000000E+00  0.00000000000E+00  0.66706709067E+03  0.66706709067E+03  0.00000000000E+00 0.  1.
         21   -1    0    0  501  503 -0.00000000000E+00 -0.00000000000E+00 -0.14325128270E+03  0.14325128270E+03  0.00000000000E+00 0.  1.
          6    1    1    2  501    0  0.37341799714E+02  0.36136257915E+02 -0.66880892045E+02  0.19261955473E+03  0.17300000000E+03 0.  1.
         -6    1    1    2    0  502 -0.37341799714E+02 -0.36136257915E+02  0.59069670002E+03  0.61769881864E+03  0.17300000000E+03 0.  1.
<mgrwt>
<rscale>  2 0.18063565E+03</rscale>
<asrwt>0</asrwt>
<pdfrwt beam="1">  1       21 0.10262570E+00 0.18063565E+03</pdfrwt>
<pdfrwt beam="2">  1       21 0.22038659E-01 0.18063565E+03</pdfrwt>
<totfact> 0.14966402E+04</totfact>
</mgrwt>
</event>
<event>
 4    3  0.4009700E+000  0.3082459E+03  0.7546771E-02  0.1081190E+00
         21   -1    0    0  501  502  0.00000000000E+00  0.00000000000E+00  0.12699731350E+04  0.12699731350E+04  0.00000000000E+00 0.  1.
         21   -1    0    0  502  503 -0.00000000000E+00 -0.00000000000E+00 -0.20910997759E+03  0.20910997759E+03  0.00000000000E+00 0. -1.
          6    1    1    2  501    0 -0.19107313891E+02  0.25440403818E+03  0.11230865797E+04  0.11646196674E+04  0.17300000000E+03 0. -1.
         -6    1    1    2    0  503  0.19107313891E+02 -0.25440403818E+03 -0.62223422328E+02  0.31446344521E+03  0.17300000000E+03 0. -1.
<mgrwt>
<rscale>  2 0.30824585E+03</rscale>
<asrwt>0</asrwt>
<pdfrwt beam="1">  1       21 0.19538048E+00 0.30824585E+03</pdfrwt>
<pdfrwt beam="2">  1       21 0.32170767E-01 0.30824585E+03</pdfrwt>
<totfact> 0.12100806E+03</totfact>
</mgrwt>
</event>
<event>
 4    3  0.4009700E+000  0.2064339E+03  0.7546771E-02  0.1144421E+00
         21   -1    0    0  503  502  0.00000000000E+00  0.00000000000E+00  0.49880732857E+02  0.49880732857E+02  0.00000000000E+00 0. -1.
         21   -1    0    0  501  503 -0.00000000000E+00 -0.00000000000E+00 -0.12504320042E+04  0.12504320042E+04  0.00000000000E+00 0. -1.
          6    1    1    2  501    0  0.11173718317E+03 -0.14168902077E+02 -0.96619674229E+03  0.98800359347E+03  0.17300000000E+03 0. -1.
         -6    1    1    2    0  502 -0.11173718317E+03  0.14168902077E+02 -0.23435452908E+03  0.31230914362E+03  0.17300000000E+03 0. -1.
<mgrwt>
<rscale>  2 0.20643390E+03</rscale>
<asrwt>0</asrwt>
<pdfrwt beam="1">  1       21 0.76739589E-02 0.20643390E+03</pdfrwt>
<pdfrwt beam="2">  1       21 0.19237415E+00 0.20643390E+03</pdfrwt>
<totfact> 0.19213702E+04</totfact>
</mgrwt>
</event>
<event>
 4    3  0.4009700E+000  0.1848057E+03  0.7546771E-02  0.1163231E+00
         21   -1    0    0  503  502  0.00000000000E+00  0.00000000000E+00  0.17334312681E+03  0.17334312681E+03  0.00000000000E+00 0.  1.
         21   -1    0    0  501  503 -0.00000000000E+00 -0.00000000000E+00 -0.31721404704E+03  0.31721404704E+03  0.00000000000E+00 0.  1.
          6    1    1    2  501    0  0.76519599206E+01 -0.64541492657E+02 -0.22291340445E+03  0.28955749455E+03  0.17300000000E+03 0.  1.
         -6    1    1    2    0  502 -0.76519599206E+01  0.64541492657E+02  0.79042484220E+02  0.20099967930E+03  0.17300000000E+03 0.  1.
<mgrwt>
<rscale>  2 0.18480573E+03</rscale>
<asrwt>0</asrwt>
<pdfrwt beam="1">  1       21 0.26668174E-01 0.18480573E+03</pdfrwt>
<pdfrwt beam="2">  1       21 0.48802160E-01 0.18480573E+03</pdfrwt>
<totfact> 0.53831363E+04</totfact>
</mgrwt>
</event>
<event>
 4    3  0.4009700E+000  0.3379768E+03  0.7546771E-02  0.1067661E+00
         21   -1    0    0  503  502  0.00000000000E+00  0.00000000000E+00  0.62337744424E+03  0.62337744424E+03  0.00000000000E+00 0.  1.
         21   -1    0    0  501  503 -0.00000000000E+00 -0.00000000000E+00 -0.19483954293E+03  0.19483954293E+03  0.00000000000E+00 0.  1.
          6    1    1    2  501    0 -0.16424535360E+03  0.23942173887E+03  0.11445259870E+03  0.35683007521E+03  0.17300000000E+03 0.  1.
         -6    1    1    2    0  502  0.16424535360E+03 -0.23942173887E+03  0.31408530260E+03  0.46138691197E+03  0.17300000000E+03 0.  1.
<mgrwt>
<rscale>  2 0.33797678E+03</rscale>
<asrwt>0</asrwt>
<pdfrwt beam="1">  1       21 0.95904221E-01 0.33797678E+03</pdfrwt>
<pdfrwt beam="2">  1       21 0.29975315E-01 0.33797678E+03</pdfrwt>
<totfact> 0.89323677E+03</totfact>
</mgrwt>
</event>
<event>
 4    3  0.4009700E+000  0.2549272E+03  0.7546771E-02  0.1110230E+00
         21   -1    0    0  503  502  0.00000000000E+00  0.00000000000E+00  0.10982492788E+03  0.10982492788E+03  0.00000000000E+00 0.  1.
         21   -1    0    0  501  503 -0.00000000000E+00 -0.00000000000E+00 -0.68008601478E+03  0.68008601478E+03  0.00000000000E+00 0. -1.
          6    1    1    2  501    0  0.16135598135E+03  0.94990234851E+02 -0.42748057796E+03  0.49772235430E+03  0.17300000000E+03 0. -1.
         -6    1    1    2    0  502 -0.16135598135E+03 -0.94990234851E+02 -0.14278050894E+03  0.29218858836E+03  0.17300000000E+03 0.  1.
<mgrwt>
<rscale>  2 0.25492724E+03</rscale>
<asrwt>0</asrwt>
<pdfrwt beam="1">  1       21 0.16896143E-01 0.25492724E+03</pdfrwt>
<pdfrwt beam="2">  1       21 0.10462862E+00 0.25492724E+03</pdfrwt>
<totfact> 0.22466764E+04</totfact>
</mgrwt>
</event>
<event>
 4    3  0.4009700E+000  0.1801947E+03  0.7546771E-02  0.1167615E+00
         21   -1    0    0  501  502  0.00000000000E+00  0.00000000000E+00  0.64909878580E+02  0.64909878580E+02  0.00000000000E+00 0.  1.
         21   -1    0    0  502  503 -0.00000000000E+00 -0.00000000000E+00 -0.75618423399E+03  0.75618423399E+03  0.00000000000E+00 0.  1.
          6    1    1    2  501    0  0.58623873881E+01 -0.50067639402E+02 -0.10678632530E+03  0.20945991352E+03  0.17300000000E+03 0.  1.
         -6    1    1    2    0  503 -0.58623873881E+01  0.50067639402E+02 -0.58448803012E+03  0.61163419905E+03  0.17300000000E+03 0.  1.
<mgrwt>
<rscale>  2 0.18019472E+03</rscale>
<asrwt>0</asrwt>
<pdfrwt beam="1">  1       21 0.99861359E-02 0.18019472E+03</pdfrwt>
<pdfrwt beam="2">  1       21 0.11633603E+00 0.18019472E+03</pdfrwt>
<totfact> 0.46667132E+04</totfact>
</mgrwt>
</event>
<event>
 4    3  0.4009700E+000  0.1811673E+03  0.7546771E-02  0.1166678E+00
         21   -1    0    0  501  502  0.00000000000E+00  0.00000000000E+00  0.40110873367E+03  0.40110873367E+03  0.00000000000E+00 0. -1.
         21   -1    0    0  502  503 -0.00000000000E+00 -0.00000000000E+00 -0.13395791965E+03  0.13395791965E+03  0.00000000000E+00 0. -1.
          6    1    1    2  501    0 -0.49891599836E+02 -0.20085433436E+02  0.30046937409E+03  0.35086099973E+03  0.17300000000E+03 0. -1.
         -6    1    1    2    0  503  0.49891599836E+02  0.20085433436E+02 -0.33318560066E+02  0.18420565359E+03  0.17300000000E+03 0. -1.
<mgrwt>
<rscale>  2 0.18116732E+03</rscale>
<asrwt>0</asrwt>
<pdfrwt beam="1">  1       21 0.61709036E-01 0.18116732E+03</pdfrwt>
<pdfrwt beam="2">  1       21 0.20608911E-01 0.18116732E+03</pdfrwt>
<totfact> 0.53517785E+04</totfact>
</mgrwt>
</event>
<event>
 4    3  0.4009700E+000  0.2077248E+03  0.7546771E-02  0.1143380E+00
         21   -1    0    0  501  502  0.00000000000E+00  0.00000000000E+00  0.14692719018E+03  0.14692719018E+03  0.00000000000E+00 0.  1.
         21   -1    0    0  502  503 -0.00000000000E+00 -0.00000000000E+00 -0.13293034229E+04  0.13293034229E+04  0.00000000000E+00 0.  1.
          6    1    1    2  501    0 -0.31361501851E+02  0.11062126746E+03  0.60309809468E+02  0.21630275479E+03  0.17300000000E+03 0.  1.
         -6    1    1    2    0  503  0.31361501851E+02 -0.11062126746E+03 -0.12426860422E+04  0.12599278583E+04  0.17300000000E+03 0.  1.
<mgrwt>
<rscale>  2 0.20772484E+03</rscale>
<asrwt>0</asrwt>
<pdfrwt beam="1">  1       21 0.22604183E-01 0.20772484E+03</pdfrwt>
<pdfrwt beam="2">  1       21 0.20450822E+00 0.20772484E+03</pdfrwt>
<totfact> 0.22699466E+03</totfact>
</mgrwt>
</event>
<event>
 4    3  0.4009700E+000  0.2412445E+03  0.7546771E-02  0.1118967E+00
         21   -1    0    0  501  502  0.00000000000E+00  0.00000000000E+00  0.83886786272E+02  0.83886786272E+02  0.00000000000E+00 0.  1.
         21   -1    0    0  502  503 -0.00000000000E+00 -0.00000000000E+00 -0.69396332383E+03  0.69396332383E+03  0.00000000000E+00 0.  1.
          6    1    1    2  501    0  0.13004679925E+03  0.10657275235E+03 -0.29870606659E+03  0.38395863808E+03  0.17300000000E+03 0.  1.
         -6    1    1    2    0  503 -0.13004679925E+03 -0.10657275235E+03 -0.31137047096E+03  0.39389147201E+03  0.17300000000E+03 0.  1.
<mgrwt>
<rscale>  2 0.24124453E+03</rscale>
<asrwt>0</asrwt>
<pdfrwt beam="1">  1       21 0.12905659E-01 0.24124453E+03</pdfrwt>
<pdfrwt beam="2">  1       21 0.10676360E+00 0.24124453E+03</pdfrwt>
<totfact> 0.35250012E+04</totfact>
</mgrwt>
</event>
<event>
 4    3  0.4009700E+000  0.2186713E+03  0.7546771E-02  0.1134878E+00
         21   -1    0    0  501  502  0.00000000000E+00  0.00000000000E+00  0.15371216646E+03  0.15371216646E+03  0.00000000000E+00 0.  1.
         21   -1    0    0  502  503 -0.00000000000E+00 -0.00000000000E+00 -0.31682933598E+03  0.31682933598E+03  0.00000000000E+00 0.  1.
          6    1    1    2  501    0 -0.11212118269E+03  0.72917579169E+02 -0.11324532243E+03  0.24625522535E+03  0.17300000000E+03 0.  1.
         -6    1    1    2    0  503  0.11212118269E+03 -0.72917579169E+02 -0.49871847094E+02  0.22428627709E+03  0.17300000000E+03 0.  1.
<mgrwt>
<rscale>  2 0.21867129E+03</rscale>
<asrwt>0</asrwt>
<pdfrwt beam="1">  1       21 0.23648026E-01 0.21867129E+03</pdfrwt>
<pdfrwt beam="2">  1       21 0.48742975E-01 0.21867129E+03</pdfrwt>
<totfact> 0.66877634E+04</totfact>
</mgrwt>
</event>
<event>
 4    3  0.4009700E+000  0.2364036E+03  0.7546771E-02  0.1122212E+00
         21   -1    0    0  503  502  0.00000000000E+00  0.00000000000E+00  0.11270171191E+04  0.11270171191E+04  0.00000000000E+00 0.  1.
         21   -1    0    0  501  503 -0.00000000000E+00 -0.00000000000E+00 -0.29238975680E+03  0.29238975680E+03  0.00000000000E+00 0.  1.
          6    1    1    2  501    0  0.53773060915E+02  0.15187539543E+03 -0.22941425778E+03  0.32942006540E+03  0.17300000000E+03 0.  1.
         -6    1    1    2    0  502 -0.53773060915E+02 -0.15187539543E+03  0.10640416200E+04  0.10899868105E+04  0.17300000000E+03 0.  1.
<mgrwt>
<rscale>  2 0.23640363E+03</rscale>
<asrwt>0</asrwt>
<pdfrwt beam="1">  1       21 0.17338725E+00 0.23640363E+03</pdfrwt>
<pdfrwt beam="2">  1       21 0.44983040E-01 0.23640363E+03</pdfrwt>
<totfact> 0.91705895E+02</totfact>
</mgrwt>
</event>
<event>
 4    3  0.4009700E+000  0.2485344E+03  0.7546771E-02  0.1114235E+00
         21   -1    0    0  503  502  0.00000000000E+00  0.00000000000E+00  0.16771940810E+04  0.16771940810E+04  0.00000000000E+00 0.  1.
         21   -1    0    0  501  503 -0.00000000000E+00 -0.00000000000E+00 -0.37019285442E+02  0.37019285442E+02  0.00000000000E+00 0.  1.
          6    1    1    2  501    0 -0.10654538853E+03 -0.14313781817E+03  0.75863464552E+03  0.79830813612E+03  0.17300000000E+03 0.  1.
         -6    1    1    2    0  502  0.10654538853E+03  0.14313781817E+03  0.88154015005E+03  0.91590523034E+03  0.17300000000E+03 0.  1.
<mgrwt>
<rscale>  2 0.24853441E+03</rscale>
<asrwt>0</asrwt>
<pdfrwt beam="1">  1       21 0.25802980E+00 0.24853441E+03</pdfrwt>
<pdfrwt beam="2">  1       21 0.56952760E-02 0.24853441E+03</pdfrwt>
<totfact> 0.12264698E+04</totfact>
</mgrwt>
</event>
<event>
 4    3  0.4009700E+000  0.1782640E+03  0.7546771E-02  0.1169494E+00
         21   -1    0    0  501  502  0.00000000000E+00  0.00000000000E+00  0.13026500466E+04  0.13026500466E+04  0.00000000000E+00 0.  1.
         21   -1    0    0  502  503 -0.00000000000E+00 -0.00000000000E+00 -0.69212785402E+02  0.69212785402E+02  0.00000000000E+00 0. -1.
          6    1    1    2  501    0  0.38539903635E+02  0.19071663147E+02  0.11686855899E+04  0.11822030539E+04  0.17300000000E+03 0.  1.
         -6    1    1    2    0  503 -0.38539903635E+02 -0.19071663147E+02  0.64751671287E+02  0.18965977813E+03  0.17300000000E+03 0. -1.
<mgrwt>
<rscale>  2 0.17826400E+03</rscale>
<asrwt>0</asrwt>
<pdfrwt beam="1">  1       21 0.20040768E+00 0.17826400E+03</pdfrwt>
<pdfrwt beam="2">  1       21 0.10648122E-01 0.17826400E+03</pdfrwt>
<totfact> 0.98119351E+03</totfact>
</mgrwt>
</event>
<event>
 4    3  0.4009700E+000  0.2731310E+03  0.7546771E-02  0.1099501E+00
         21   -1    0    0  501  502  0.00000000000E+00  0.00000000000E+00  0.45276189810E+02  0.45276189810E+02  0.00000000000E+00 0.  1.
         21   -1    0    0  502  503 -0.00000000000E+00 -0.00000000000E+00 -0.17745600753E+04  0.17745600753E+04  0.00000000000E+00 0. -1.
          6    1    1    2  501    0 -0.19829102675E+03 -0.73158985467E+02 -0.11079506272E+04  0.11411201343E+04  0.17300000000E+03 0. -1.
         -6    1    1    2    0  503  0.19829102675E+03  0.73158985467E+02 -0.62133325822E+03  0.67871613080E+03  0.17300000000E+03 0.  1.
<mgrwt>
<rscale>  2 0.27313105E+03</rscale>
<asrwt>0</asrwt>
<pdfrwt beam="1">  1       21 0.69655676E-02 0.27313105E+03</pdfrwt>
<pdfrwt beam="2">  1       21 0.27300924E+00 0.27313105E+03</pdfrwt>
<totfact> 0.69352507E+03</totfact>
</mgrwt>
</event>
<event>
 4    3  0.4009700E+000  0.2639702E+03  0.7546771E-02  0.1104781E+00
         21   -1    0    0  501  502  0.00000000000E+00  0.00000000000E+00  0.35473553138E+03  0.35473553138E+03  0.00000000000E+00 0.  1.
         21   -1    0    0  502  503 -0.00000000000E+00 -0.00000000000E+00 -0.19836693261E+03  0.19836693261E+03  0.00000000000E+00 0. -1.
          6    1    1    2  501    0 -0.91505600140E+02 -0.17713829445E+03  0.50847954224E+02  0.26882292437E+03  0.17300000000E+03 0.  1.
         -6    1    1    2    0  503  0.91505600140E+02  0.17713829445E+03  0.10552064455E+03  0.28427953962E+03  0.17300000000E+03 0.  1.
<mgrwt>
<rscale>  2 0.26397017E+03</rscale>
<asrwt>0</asrwt>
<pdfrwt beam="1">  1       21 0.54574697E-01 0.26397017E+03</pdfrwt>
<pdfrwt beam="2">  1       21 0.30517990E-01 0.26397017E+03</pdfrwt>
<totfact> 0.31576208E+04</totfact>
</mgrwt>
</event>
<event>
 4    3  0.4009700E+000  0.2614570E+03  0.7546771E-02  0.1106271E+00
         21   -1    0    0  503  502  0.00000000000E+00  0.00000000000E+00  0.10182407956E+04  0.10182407956E+04  0.00000000000E+00 0. -1.
         21   -1    0    0  501  503 -0.00000000000E+00 -0.00000000000E+00 -0.10637078093E+03  0.10637078093E+03  0.00000000000E+00 0. -1.
          6    1    1    2  501    0  0.62814009588E+02 -0.18570177572E+03  0.11442636662E+03  0.28539996966E+03  0.17300000000E+03 0. -1.
         -6    1    1    2    0  502 -0.62814009588E+02  0.18570177572E+03  0.79744364805E+03  0.83921160688E+03  0.17300000000E+03 0. -1.
<mgrwt>
<rscale>  2 0.26145697E+03</rscale>
<asrwt>0</asrwt>
<pdfrwt beam="1">  1       21 0.15665242E+00 0.26145697E+03</pdfrwt>
<pdfrwt beam="2">  1       21 0.16364736E-01 0.26145697E+03</pdfrwt>
<totfact> 0.84994448E+03</totfact>
</mgrwt>
</event>
<event>
 4    3  0.4009700E+000  0.2111840E+03  0.7546771E-02  0.1140632E+00
         21   -1    0    0  501  502  0.00000000000E+00  0.00000000000E+00  0.49226884021E+03  0.49226884021E+03  0.00000000000E+00 0. -1.
         21   -1    0    0  502  503 -0.00000000000E+00 -0.00000000000E+00 -0.99060264265E+02  0.99060264265E+02  0.00000000000E+00 0. -1.
          6    1    1    2  501    0  0.11175321165E+03 -0.46700032240E+02  0.28301897238E+03  0.35312662325E+03  0.17300000000E+03 0. -1.
         -6    1    1    2    0  503 -0.11175321165E+03  0.46700032240E+02  0.11018960357E+03  0.23820248122E+03  0.17300000000E+03 0. -1.
<mgrwt>
<rscale>  2 0.21118398E+03</rscale>
<asrwt>0</asrwt>
<pdfrwt beam="1">  1       21 0.75733666E-01 0.21118398E+03</pdfrwt>
<pdfrwt beam="2">  1       21 0.15240041E-01 0.21118398E+03</pdfrwt>
<totfact> 0.58770477E+04</totfact>
</mgrwt>
</event>
<event>
 4    3  0.4009700E+000  0.1736992E+03  0.7546771E-02  0.1174044E+00
         21   -1    0    0  501  502  0.00000000000E+00  0.00000000000E+00  0.37065025674E+02  0.37065025674E+02  0.00000000000E+00 0. -1.
         21   -1    0    0  502  503 -0.00000000000E+00 -0.00000000000E+00 -0.10475828230E+04  0.10475828230E+04  0.00000000000E+00 0. -1.
          6    1    1    2  501    0 -0.15569727731E+02  0.33794988479E-01 -0.76133722575E+03  0.78090062676E+03  0.17300000000E+03 0. -1.
         -6    1    1    2    0  503  0.15569727731E+02 -0.33794988479E-01 -0.24918057153E+03  0.30374722187E+03  0.17300000000E+03 0. -1.
<mgrwt>
<rscale>  2 0.17369922E+03</rscale>
<asrwt>0</asrwt>
<pdfrwt beam="1">  1       21 0.57023126E-02 0.17369922E+03</pdfrwt>
<pdfrwt beam="2">  1       21 0.16116656E+00 0.17369922E+03</pdfrwt>
<totfact> 0.53673814E+04</totfact>
</mgrwt>
</event>
<event>
 4    3  0.4009700E+000  0.2238893E+03  0.7546771E-02  0.1131016E+00
         21   -1    0    0  501  502  0.00000000000E+00  0.00000000000E+00  0.25602019885E+03  0.25602019885E+03  0.00000000000E+00 0.  1.
         21   -1    0    0  502  503 -0.00000000000E+00 -0.00000000000E+00 -0.19989314987E+03  0.19989314987E+03  0.00000000000E+00 0. -1.
          6    1    1    2  501    0 -0.33889412154E+01 -0.14207725356E+03  0.60719542184E+02  0.23197692494E+03  0.17300000000E+03 0. -1.
         -6    1    1    2    0  503  0.33889412154E+01  0.14207725356E+03 -0.45924932010E+01  0.22393642378E+03  0.17300000000E+03 0. -1.
<mgrwt>
<rscale>  2 0.22388933E+03</rscale>
<asrwt>0</asrwt>
<pdfrwt beam="1">  1       21 0.39387723E-01 0.22388933E+03</pdfrwt>
<pdfrwt beam="2">  1       21 0.30752792E-01 0.22388933E+03</pdfrwt>
<totfact> 0.62222634E+04</totfact>
</mgrwt>
</event>
<event>
 4    3  0.4009700E+000  0.1881133E+03  0.7546771E-02  0.1160174E+00
         21   -1    0    0  503  502  0.00000000000E+00  0.00000000000E+00  0.25512558579E+03  0.25512558579E+03  0.00000000000E+00 0. -1.
         21   -1    0    0  501  503 -0.00000000000E+00 -0.00000000000E+00 -0.13885209872E+03  0.13885209872E+03  0.00000000000E+00 0. -1.
          6    1    1    2  501    0 -0.66812113238E+02 -0.31523689585E+02  0.64598842947E+02  0.19889598284E+03  0.17300000000E+03 0.  1.
         -6    1    1    2    0  502  0.66812113238E+02  0.31523689585E+02  0.51674644115E+02  0.19508170167E+03  0.17300000000E+03 0.  1.
<mgrwt>
<rscale>  2 0.18811327E+03</rscale>
<asrwt>0</asrwt>
<pdfrwt beam="1">  1       21 0.39250090E-01 0.18811327E+03</pdfrwt>
<pdfrwt beam="2">  1       21 0.21361861E-01 0.18811327E+03</pdfrwt>
<totfact> 0.12788029E+05</totfact>
</mgrwt>
</event>
<event>
 4    3  0.4009700E+000  0.2354068E+03  0.7546771E-02  0.1122891E+00
         21   -1    0    0  503  502  0.00000000000E+00  0.00000000000E+00  0.12747020363E+04  0.12747020363E+04  0.00000000000E+00 0.  1.
         21   -1    0    0  501  503 -0.00000000000E+00 -0.00000000000E+00 -0.70083363381E+02  0.70083363381E+02  0.00000000000E+00 0.  1.
          6    1    1    2  501    0 -0.85450282798E+02  0.13485407443E+03  0.10166264937E+04  0.10435256584E+04  0.17300000000E+03 0.  1.
         -6    1    1    2    0  502  0.85450282798E+02 -0.13485407443E+03  0.18799217924E+03  0.30125974121E+03  0.17300000000E+03 0.  1.
<mgrwt>
<rscale>  2 0.23540682E+03</rscale>
<asrwt>0</asrwt>
<pdfrwt beam="1">  1       21 0.19610799E+00 0.23540682E+03</pdfrwt>
<pdfrwt beam="2">  1       21 0.10782057E-01 0.23540682E+03</pdfrwt>
<totfact> 0.97713823E+03</totfact>
</mgrwt>
</event>
<event>
 4    3  0.4009700E+000  0.1980617E+03  0.7546771E-02  0.1151385E+00
         21   -1    0    0  501  502  0.00000000000E+00  0.00000000000E+00  0.28977257482E+03  0.28977257482E+03  0.00000000000E+00 0.  1.
         21   -1    0    0  502  503 -0.00000000000E+00 -0.00000000000E+00 -0.22467707838E+03  0.22467707838E+03  0.00000000000E+00 0.  1.
          6    1    1    2  501    0  0.92791129881E+02  0.26253434977E+02  0.19471393409E+03  0.27774440186E+03  0.17300000000E+03 0.  1.
         -6    1    1    2    0  503 -0.92791129881E+02 -0.26253434977E+02 -0.12961843765E+03  0.23670525134E+03  0.17300000000E+03 0.  1.
<mgrwt>
<rscale>  2 0.19806170E+03</rscale>
<asrwt>0</asrwt>
<pdfrwt beam="1">  1       21 0.44580396E-01 0.19806170E+03</pdfrwt>
<pdfrwt beam="2">  1       21 0.34565704E-01 0.19806170E+03</pdfrwt>
<totfact> 0.38858433E+04</totfact>
</mgrwt>
</event>
<event>
 4    3  0.4009700E+000  0.2220064E+03  0.7546771E-02  0.1132396E+00
         21   -1    0    0  503  502  0.00000000000E+00  0.00000000000E+00  0.82885543203E+02  0.82885543203E+02  0.00000000000E+00 0.  1.
         21   -1    0    0  501  503 -0.00000000000E+00 -0.00000000000E+00 -0.18995870345E+04  0.18995870345E+04  0.00000000000E+00 0.  1.
          6    1    1    2  501    0  0.13275588123E+03  0.41637740178E+02 -0.17299206217E+04  0.17441078472E+04  0.17300000000E+03 0.  1.
         -6    1    1    2    0  502 -0.13275588123E+03 -0.41637740178E+02 -0.86780869615E+02  0.23836473048E+03  0.17300000000E+03 0.  1.
<mgrwt>
<rscale>  2 0.22200636E+03</rscale>
<asrwt>0</asrwt>
<pdfrwt beam="1">  1       21 0.12751622E-01 0.22200636E+03</pdfrwt>
<pdfrwt beam="2">  1       21 0.29224415E+00 0.22200636E+03</pdfrwt>
<totfact> 0.19230500E+03</totfact>
</mgrwt>
</event>
<event>
 4    3  0.4009700E+000  0.1938517E+03  0.7546771E-02  0.1155032E+00
         21   -1    0    0  501  502  0.00000000000E+00  0.00000000000E+00  0.48193690415E+03  0.48193690415E+03  0.00000000000E+00 0.  1.
         21   -1    0    0  502  503 -0.00000000000E+00 -0.00000000000E+00 -0.92886405076E+02  0.92886405076E+02  0.00000000000E+00 0.  1.
          6    1    1    2  501    0  0.46650520162E+02  0.73981207329E+02  0.30968584421E+03  0.36535436520E+03  0.17300000000E+03 0.  1.
         -6    1    1    2    0  503 -0.46650520162E+02 -0.73981207329E+02  0.79364654868E+02  0.20946894403E+03  0.17300000000E+03 0.  1.
<mgrwt>
<rscale>  2 0.19385172E+03</rscale>
<asrwt>0</asrwt>
<pdfrwt beam="1">  1       21 0.74144138E-01 0.19385172E+03</pdfrwt>
<pdfrwt beam="2">  1       21 0.14290216E-01 0.19385172E+03</pdfrwt>
<totfact> 0.69846040E+04</totfact>
</mgrwt>
</event>
<event>
 4    3  0.4009700E+000  0.1756826E+03  0.7546771E-02  0.1172048E+00
         21   -1    0    0  501  502  0.00000000000E+00  0.00000000000E+00  0.28002579198E+03  0.28002579198E+03  0.00000000000E+00 0.  1.
         21   -1    0    0  502  503 -0.00000000000E+00 -0.00000000000E+00 -0.13208601786E+03  0.13208601786E+03  0.00000000000E+00 0.  1.
          6    1    1    2  501    0  0.50009207783E+01  0.30172222026E+02  0.15780848252E+03  0.23615225882E+03  0.17300000000E+03 0.  1.
         -6    1    1    2    0  503 -0.50009207783E+01 -0.30172222026E+02 -0.98687084055E+01  0.17595955102E+03  0.17300000000E+03 0.  1.
<mgrwt>
<rscale>  2 0.17568259E+03</rscale>
<asrwt>0</asrwt>
<pdfrwt beam="1">  1       21 0.43080891E-01 0.17568259E+03</pdfrwt>
<pdfrwt beam="2">  1       21 0.20320926E-01 0.17568259E+03</pdfrwt>
<totfact> 0.11679510E+05</totfact>
</mgrwt>
</event>
<event>
 4    3  0.4009700E+000  0.2704468E+03  0.7546771E-02  0.1101024E+00
         21   -1    0    0  503  502  0.00000000000E+00  0.00000000000E+00  0.86721862365E+03  0.86721862365E+03  0.00000000000E+00 0.  1.
         21   -1    0    0  501  503 -0.00000000000E+00 -0.00000000000E+00 -0.11651031488E+03  0.11651031488E+03  0.00000000000E+00 0.  1.
          6    1    1    2  501    0 -0.20779225465E+03  0.59052134509E+01  0.11689686370E+03  0.29462920660E+03  0.17300000000E+03 0.  1.
         -6    1    1    2    0  502  0.20779225465E+03 -0.59052134509E+01  0.63381144508E+03  0.68909973193E+03  0.17300000000E+03 0.  1.
<mgrwt>
<rscale>  2 0.27044684E+03</rscale>
<asrwt>0</asrwt>
<pdfrwt beam="1">  1       21 0.13341825E+00 0.27044684E+03</pdfrwt>
<pdfrwt beam="2">  1       21 0.17924664E-01 0.27044684E+03</pdfrwt>
<totfact> 0.10906603E+04</totfact>
</mgrwt>
</event>
<event>
 4    3  0.4009700E+000  0.2376175E+03  0.7546771E-02  0.1121390E+00
         21   -1    0    0  503  502  0.00000000000E+00  0.00000000000E+00  0.46304201941E+03  0.46304201941E+03  0.00000000000E+00 0. -1.
         21   -1    0    0  501  503 -0.00000000000E+00 -0.00000000000E+00 -0.12344833158E+03  0.12344833158E+03  0.00000000000E+00 0.  1.
          6    1    1    2  501    0 -0.16181875294E+03 -0.18648797855E+02  0.20224031095E+03  0.31203081552E+03  0.17300000000E+03 0. -1.
         -6    1    1    2    0  502  0.16181875294E+03  0.18648797855E+02  0.13735337689E+03  0.27445953547E+03  0.17300000000E+03 0.  1.
<mgrwt>
<rscale>  2 0.23761752E+03</rscale>
<asrwt>0</asrwt>
<pdfrwt beam="1">  1       21 0.71237233E-01 0.23761752E+03</pdfrwt>
<pdfrwt beam="2">  1       21 0.18992051E-01 0.23761752E+03</pdfrwt>
<totfact> 0.44349168E+04</totfact>
</mgrwt>
</event>
<event>
 4    3  0.4009700E+000  0.1972347E+03  0.7546771E-02  0.1152093E+00
         21   -1    0    0  501  502  0.00000000000E+00  0.00000000000E+00  0.11595424289E+03  0.11595424289E+03  0.00000000000E+00 0.  1.
         21   -1    0    0  502  503 -0.00000000000E+00 -0.00000000000E+00 -0.41560465970E+03  0.41560465970E+03  0.00000000000E+00 0.  1.
          6    1    1    2  501    0  0.65354842418E+02 -0.68565864103E+02 -0.33134531452E+02  0.19999857580E+03  0.17300000000E+03 0.  1.
         -6    1    1    2    0  503 -0.65354842418E+02  0.68565864103E+02 -0.26651588536E+03  0.33156032679E+03  0.17300000000E+03 0.  1.
<mgrwt>
<rscale>  2 0.19723472E+03</rscale>
<asrwt>0</asrwt>
<pdfrwt beam="1">  1       21 0.17839114E-01 0.19723472E+03</pdfrwt>
<pdfrwt beam="2">  1       21 0.63939180E-01 0.19723472E+03</pdfrwt>
<totfact> 0.64344461E+04</totfact>
</mgrwt>
</event>
<event>
 4    3  0.4009700E+000  0.1877356E+03  0.7546771E-02  0.1160520E+00
         21   -1    0    0  501  502  0.00000000000E+00  0.00000000000E+00  0.16856920420E+04  0.16856920420E+04  0.00000000000E+00 0.  1.
         21   -1    0    0  502  503 -0.00000000000E+00 -0.00000000000E+00 -0.32719114233E+02  0.32719114233E+02  0.00000000000E+00 0.  1.
          6    1    1    2  501    0  0.69370768632E+02  0.22435578975E+02  0.31026094608E+03  0.36263826798E+03  0.17300000000E+03 0.  1.
         -6    1    1    2    0  503 -0.69370768632E+02 -0.22435578975E+02  0.13427119816E+04  0.13557728882E+04  0.17300000000E+03 0.  1.
<mgrwt>
<rscale>  2 0.18773561E+03</rscale>
<asrwt>0</asrwt>
<pdfrwt beam="1">  1       21 0.25933717E+00 0.18773561E+03</pdfrwt>
<pdfrwt beam="2">  1       21 0.50337112E-02 0.18773561E+03</pdfrwt>
<totfact> 0.15663438E+04</totfact>
</mgrwt>
</event>
<event>
 4    3  0.4009700E+000  0.1754821E+03  0.7546771E-02  0.1172249E+00
         21   -1    0    0  503  502  0.00000000000E+00  0.00000000000E+00  0.96194399816E+02  0.96194399816E+02  0.00000000000E+00 0. -1.
         21   -1    0    0  501  503 -0.00000000000E+00 -0.00000000000E+00 -0.32633242947E+03  0.32633242947E+03  0.00000000000E+00 0. -1.
          6    1    1    2  501    0 -0.29407830775E+02 -0.38184852207E+00 -0.14421285375E+03  0.22713721295E+03  0.17300000000E+03 0. -1.
         -6    1    1    2    0  502  0.29407830775E+02  0.38184852207E+00 -0.85925175909E+02  0.19538961634E+03  0.17300000000E+03 0. -1.
<mgrwt>
<rscale>  2 0.17548210E+03</rscale>
<asrwt>0</asrwt>
<pdfrwt beam="1">  1       21 0.14799139E-01 0.17548210E+03</pdfrwt>
<pdfrwt beam="2">  1       21 0.50204989E-01 0.17548210E+03</pdfrwt>
<totfact> 0.15274013E+05</totfact>
</mgrwt>
</event>
<event>
 4    3  0.4009700E+000  0.2494416E+03  0.7546771E-02  0.1113658E+00
         21   -1    0    0  503  502  0.00000000000E+00  0.00000000000E+00  0.18587495275E+03  0.18587495275E+03  0.00000000000E+00 0. -1.
         21   -1    0    0  501  503 -0.00000000000E+00 -0.00000000000E+00 -0.34127384536E+03  0.34127384536E+03  0.00000000000E+00 0. -1.
          6    1    1    2  501    0  0.14135632906E+02  0.17914319213E+03 -0.41249204517E+02  0.25282918399E+03  0.17300000000E+03 0. -1.
         -6    1    1    2    0  502 -0.14135632906E+02 -0.17914319213E+03 -0.11414968809E+03  0.27431961413E+03  0.17300000000E+03 0. -1.
<mgrwt>
<rscale>  2 0.24944158E+03</rscale>
<asrwt>0</asrwt>
<pdfrwt beam="1">  1       21 0.28596147E-01 0.24944158E+03</pdfrwt>
<pdfrwt beam="2">  1       21 0.52503668E-01 0.24944158E+03</pdfrwt>
<totfact> 0.39171869E+04</totfact>
</mgrwt>
</event>
<event>
 4    3  0.4009700E+000  0.1855886E+03  0.7546771E-02  0.1162501E+00
         21   -1    0    0  501  502  0.00000000000E+00  0.00000000000E+00  0.34497685868E+03  0.34497685868E+03  0.00000000000E+00 0. -1.
         21   -1    0    0  502  503 -0.00000000000E+00 -0.00000000000E+00 -0.14949628969E+03  0.14949628969E+03  0.00000000000E+00 0. -1.
          6    1    1    2  501    0 -0.47104634422E+02  0.47909000180E+02  0.24022775136E+03  0.30356628832E+03  0.17300000000E+03 0.  1.
         -6    1    1    2    0  503  0.47104634422E+02 -0.47909000180E+02 -0.44747182376E+02  0.19090686005E+03  0.17300000000E+03 0.  1.
<mgrwt>
<rscale>  2 0.18558857E+03</rscale>
<asrwt>0</asrwt>
<pdfrwt beam="1">  1       21 0.53073363E-01 0.18558857E+03</pdfrwt>
<pdfrwt beam="2">  1       21 0.22999429E-01 0.18558857E+03</pdfrwt>
<totfact> 0.59876962E+04</totfact>
</mgrwt>
</event>
<event>
 4    3  0.4009700E+000  0.2423428E+03  0.7546771E-02  0.1118242E+00
         21   -1    0    0  501  502  0.00000000000E+00  0.00000000000E+00  0.30826883249E+03  0.30826883249E+03  0.00000000000E+00 0. -1.
         21   -1    0    0  502  503 -0.00000000000E+00 -0.00000000000E+00 -0.25600068934E+03  0.25600068934E+03  0.00000000000E+00 0.  1.
          6    1    1    2  501    0  0.51062208921E+02  0.16184467623E+03  0.16882847950E+03  0.29535250785E+03  0.17300000000E+03 0. -1.
         -6    1    1    2    0  503 -0.51062208921E+02 -0.16184467623E+03 -0.11656033635E+03  0.26891701399E+03  0.17300000000E+03 0.  1.
<mgrwt>
<rscale>  2 0.24234283E+03</rscale>
<asrwt>0</asrwt>
<pdfrwt beam="1">  1       21 0.47425974E-01 0.24234283E+03</pdfrwt>
<pdfrwt beam="2">  1       21 0.39384721E-01 0.24234283E+03</pdfrwt>
<totfact> 0.25748195E+04</totfact>
</mgrwt>
</event>
<event>
 4    3  0.4009700E+000  0.2010104E+03  0.7546771E-02  0.1148889E+00
         21   -1    0    0  503  502  0.00000000000E+00  0.00000000000E+00  0.46206488393E+03  0.46206488393E+03  0.00000000000E+00 0.  1.
         21   -1    0    0  501  503 -0.00000000000E+00 -0.00000000000E+00 -0.46281266832E+03  0.46281266832E+03  0.00000000000E+00 0.  1.
          6    1    1    2  501    0  0.96609113559E+02  0.33806148699E+02 -0.41684047998E+03  0.46277549877E+03  0.17300000000E+03 0.  1.
         -6    1    1    2    0  502 -0.96609113559E+02 -0.33806148699E+02  0.41609269559E+03  0.46210205348E+03  0.17300000000E+03 0.  1.
<mgrwt>
<rscale>  2 0.20101039E+03</rscale>
<asrwt>0</asrwt>
<pdfrwt beam="1">  1       21 0.71086905E-01 0.20101039E+03</pdfrwt>
<pdfrwt beam="2">  1       21 0.71201949E-01 0.20101039E+03</pdfrwt>
<totfact> 0.31736572E+03</totfact>
</mgrwt>
</event>
<event>
 4    3  0.4009700E+000  0.2256992E+03  0.7546771E-02  0.1129704E+00
         21   -1    0    0  501  502  0.00000000000E+00  0.00000000000E+00  0.97236145831E+03  0.97236145831E+03  0.00000000000E+00 0.  1.
         21   -1    0    0  502  503 -0.00000000000E+00 -0.00000000000E+00 -0.52843215657E+02  0.52843215657E+02  0.00000000000E+00 0.  1.
          6    1    1    2  501    0 -0.42139675349E+02 -0.13869162866E+03  0.41218497551E+03  0.46993252083E+03  0.17300000000E+03 0.  1.
         -6    1    1    2    0  503  0.42139675349E+02  0.13869162866E+03  0.50733326714E+03  0.55527215314E+03  0.17300000000E+03 0.  1.
<mgrwt>
<rscale>  2 0.22569918E+03</rscale>
<asrwt>0</asrwt>
<pdfrwt beam="1">  1       21 0.14959406E+00 0.22569918E+03</pdfrwt>
<pdfrwt beam="2">  1       21 0.81297262E-02 0.22569918E+03</pdfrwt>
<totfact> 0.34454024E+04</totfact>
</mgrwt>
</event>
<event>
 4    3  0.4009700E+000  0.1992478E+03  0.7546771E-02  0.1150375E+00
         21   -1    0    0  503  502  0.00000000000E+00  0.00000000000E+00  0.14421515988E+03  0.14421515988E+03  0.00000000000E+00 0.  1.
         21   -1    0    0  501  503 -0.00000000000E+00 -0.00000000000E+00 -0.28687009246E+03  0.28687009246E+03  0.00000000000E+00 0.  1.
          6    1    1    2  501    0  0.80948930388E+02  0.56727155865E+02 -0.28004872332E+02  0.20120629319E+03  0.17300000000E+03 0.  1.
         -6    1    1    2    0  502 -0.80948930388E+02 -0.56727155865E+02 -0.11465006025E+03  0.22987895915E+03  0.17300000000E+03 0.  1.
<mgrwt>
<rscale>  2 0.19924783E+03</rscale>
<asrwt>0</asrwt>
<pdfrwt beam="1">  1       21 0.22186948E-01 0.19924783E+03</pdfrwt>
<pdfrwt beam="2">  1       21 0.44133859E-01 0.19924783E+03</pdfrwt>
<totfact> 0.93429746E+04</totfact>
</mgrwt>
</event>
<event>
 4    3  0.4009700E+000  0.2324023E+03  0.7546771E-02  0.1124960E+00
         21   -1    0    0  503  502  0.00000000000E+00  0.00000000000E+00  0.33475425209E+03  0.33475425209E+03  0.00000000000E+00 0. -1.
         21   -1    0    0  501  503 -0.00000000000E+00 -0.00000000000E+00 -0.20083164908E+03  0.20083164908E+03  0.00000000000E+00 0.  1.
          6    1    1    2  501    0  0.14397493522E+03 -0.57905681709E+02 -0.51782085654E+02  0.23810131109E+03  0.17300000000E+03 0.  1.
         -6    1    1    2    0  502 -0.14397493522E+03  0.57905681709E+02  0.18570468866E+03  0.29748459008E+03  0.17300000000E+03 0. -1.
<mgrwt>
<rscale>  2 0.23240234E+03</rscale>
<asrwt>0</asrwt>
<pdfrwt beam="1">  1       21 0.51500654E-01 0.23240234E+03</pdfrwt>
<pdfrwt beam="2">  1       21 0.30897177E-01 0.23240234E+03</pdfrwt>
<totfact> 0.35325336E+04</totfact>
</mgrwt>
</event>
<event>
 4    3  0.4009700E+000  0.1759670E+03  0.7546771E-02  0.1171764E+00
         21   -1    0    0  503  502  0.00000000000E+00  0.00000000000E+00  0.10047188642E+03  0.10047188642E+03  0.00000000000E+00 0. -1.
         21   -1    0    0  501  503 -0.00000000000E+00 -0.00000000000E+00 -0.30832457676E+03  0.30832457676E+03  0.00000000000E+00 0. -1.
          6    1    1    2  501    0 -0.56894503075E+01 -0.31670140829E+02 -0.99646109204E+02  0.20222194427E+03  0.17300000000E+03 0. -1.
         -6    1    1    2    0  502  0.56894503075E+01  0.31670140829E+02 -0.10820658114E+03  0.20657451892E+03  0.17300000000E+03 0. -1.
<mgrwt>
<rscale>  2 0.17596695E+03</rscale>
<asrwt>0</asrwt>
<pdfrwt beam="1">  1       21 0.15457214E-01 0.17596695E+03</pdfrwt>
<pdfrwt beam="2">  1       21 0.47434549E-01 0.17596695E+03</pdfrwt>
<totfact> 0.15871910E+05</totfact>
</mgrwt>
</event>
<event>
 4    3  0.4009700E+000  0.2118636E+03  0.7546771E-02  0.1140099E+00
         21   -1    0    0  503  502  0.00000000000E+00  0.00000000000E+00  0.22651176652E+04  0.22651176652E+04  0.00000000000E+00 0. -1.
         21   -1    0    0  501  503 -0.00000000000E+00 -0.00000000000E+00 -0.47672382005E+02  0.47672382005E+02  0.00000000000E+00 0. -1.
          6    1    1    2  501    0 -0.55201770969E+02 -0.10913267765E+03  0.22476173264E+03  0.30887540095E+03  0.17300000000E+03 0. -1.
         -6    1    1    2    0  502  0.55201770969E+02  0.10913267765E+03  0.19926835506E+04  0.20039146463E+04  0.17300000000E+03 0. -1.
<mgrwt>
<rscale>  2 0.21186358E+03</rscale>
<asrwt>0</asrwt>
<pdfrwt beam="1">  1       21 0.34847956E+00 0.21186358E+03</pdfrwt>
<pdfrwt beam="2">  1       21 0.73342144E-02 0.21186358E+03</pdfrwt>
<totfact> 0.24299873E+03</totfact>
</mgrwt>
</event>
<event>
 4    3  0.4009700E+000  0.1916201E+03  0.7546771E-02  0.1157008E+00
         21   -1    0    0  503  502  0.00000000000E+00  0.00000000000E+00  0.22790676493E+04  0.22790676493E+04  0.00000000000E+00 0.  1.
         21   -1    0    0  501  503 -0.00000000000E+00 -0.00000000000E+00 -0.99135114905E+02  0.99135114905E+02  0.00000000000E+00 0.  1.
          6    1    1    2  501    0  0.82361640478E+02  0.24093865479E+01  0.17704796094E+01  0.19162823269E+03  0.17300000000E+03 0.  1.
         -6    1    1    2    0  502 -0.82361640478E+02 -0.24093865479E+01  0.21781620547E+04  0.21865745315E+04  0.17300000000E+03 0.  1.
<mgrwt>
<rscale>  2 0.19162005E+03</rscale>
<asrwt>0</asrwt>
<pdfrwt beam="1">  1       21 0.35062575E+00 0.19162005E+03</pdfrwt>
<pdfrwt beam="2">  1       21 0.15251558E-01 0.19162005E+03</pdfrwt>
<totfact> 0.66088077E+02</totfact>
</mgrwt>
</event>
<event>
 4    3  0.4009700E+000  0.2185587E+03  0.7546771E-02  0.1134962E+00
         21   -1    0    0  501  502  0.00000000000E+00  0.00000000000E+00  0.28590122476E+03  0.28590122476E+03  0.00000000000E+00 0. -1.
         21   -1    0    0  502  503 -0.00000000000E+00 -0.00000000000E+00 -0.28601611610E+03  0.28601611610E+03  0.00000000000E+00 0. -1.
          6    1    1    2  501    0 -0.83849970591E+02 -0.10396204458E+03  0.18434546912E+03  0.28592162609E+03  0.17300000000E+03 0. -1.
         -6    1    1    2    0  503  0.83849970591E+02  0.10396204458E+03 -0.18446036047E+03  0.28599571477E+03  0.17300000000E+03 0. -1.
<mgrwt>
<rscale>  2 0.21855874E+03</rscale>
<asrwt>0</asrwt>
<pdfrwt beam="1">  1       21 0.43984804E-01 0.21855874E+03</pdfrwt>
<pdfrwt beam="2">  1       21 0.44002479E-01 0.21855874E+03</pdfrwt>
<totfact> 0.24281869E+04</totfact>
</mgrwt>
</event>
<event>
 4    3  0.4009700E+000  0.2405413E+03  0.7546771E-02  0.1119433E+00
         21   -1    0    0  501  502  0.00000000000E+00  0.00000000000E+00  0.11457351789E+04  0.11457351789E+04  0.00000000000E+00 0.  1.
         21   -1    0    0  502  503 -0.00000000000E+00 -0.00000000000E+00 -0.16480157867E+03  0.16480157867E+03  0.00000000000E+00 0. -1.
          6    1    1    2  501    0  0.32777773092E+02 -0.16388017185E+03  0.10361792572E+04  0.10637328359E+04  0.17300000000E+03 0.  1.
         -6    1    1    2    0  503 -0.32777773092E+02  0.16388017185E+03 -0.55245656965E+02  0.24680392166E+03  0.17300000000E+03 0. -1.
<mgrwt>
<rscale>  2 0.24054125E+03</rscale>
<asrwt>0</asrwt>
<pdfrwt beam="1">  1       21 0.17626695E+00 0.24054125E+03</pdfrwt>
<pdfrwt beam="2">  1       21 0.25354090E-01 0.24054125E+03</pdfrwt>
<totfact> 0.27288499E+03</totfact>
</mgrwt>
</event>
<event>
 4    3  0.4009700E+000  0.1758274E+03  0.7546771E-02  0.1171904E+00
         21   -1    0    0  503  502  0.00000000000E+00  0.00000000000E+00  0.15673562679E+03  0.15673562679E+03  0.00000000000E+00 0. -1.
         21   -1    0    0  501  503 -0.00000000000E+00 -0.00000000000E+00 -0.20312322833E+03  0.20312322833E+03  0.00000000000E+00 0. -1.
          6    1    1    2  501    0 -0.80609860702E+00 -0.31394396091E+02 -0.53803563220E+02  0.18387517863E+03  0.17300000000E+03 0. -1.
         -6    1    1    2    0  502  0.80609860702E+00  0.31394396091E+02  0.74159616813E+01  0.17598367648E+03  0.17300000000E+03 0. -1.
<mgrwt>
<rscale>  2 0.17582735E+03</rscale>
<asrwt>0</asrwt>
<pdfrwt beam="1">  1       21 0.24113173E-01 0.17582735E+03</pdfrwt>
<pdfrwt beam="2">  1       21 0.31249727E-01 0.17582735E+03</pdfrwt>
<totfact> 0.16050173E+05</totfact>
</mgrwt>
</event>
<event>
 4    3  0.4009700E+000  0.1775862E+03  0.7546771E-02  0.1170160E+00
         21   -1    0    0  503  502  0.00000000000E+00  0.00000000000E+00  0.29196655080E+03  0.29196655080E+03  0.00000000000E+00 0.  1.
         21   -1    0    0  501  503 -0.00000000000E+00 -0.00000000000E+00 -0.26384037990E+03  0.26384037990E+03  0.00000000000E+00 0.  1.
          6    1    1    2  501    0  0.26444948589E+02 -0.30142009731E+02 -0.19950773059E+03  0.26709588282E+03  0.17300000000E+03 0.  1.
         -6    1    1    2    0  502 -0.26444948589E+02  0.30142009731E+02  0.22763390149E+03  0.28871104788E+03  0.17300000000E+03 0.  1.
<mgrwt>
<rscale>  2 0.17758625E+03</rscale>
<asrwt>0</asrwt>
<pdfrwt beam="1">  1       21 0.44917931E-01 0.17758625E+03</pdfrwt>
<pdfrwt beam="2">  1       21 0.40590828E-01 0.17758625E+03</pdfrwt>
<totfact> 0.28045600E+04</totfact>
</mgrwt>
</event>
<event>
 4    3  0.4009700E+000  0.2114340E+03  0.7546771E-02  0.1140435E+00
         21   -1    0    0  503  502  0.00000000000E+00  0.00000000000E+00  0.42250332287E+03  0.42250332287E+03  0.00000000000E+00 0.  1.
         21   -1    0    0  501  503 -0.00000000000E+00 -0.00000000000E+00 -0.34397442002E+03  0.34397442002E+03  0.00000000000E+00 0. -1.
          6    1    1    2  501    0  0.69464540363E+02  0.99749695835E+02 -0.27962969213E+03  0.35056681091E+03  0.17300000000E+03 0. -1.
         -6    1    1    2    0  502 -0.69464540363E+02 -0.99749695835E+02  0.35815859498E+03  0.41591093198E+03  0.17300000000E+03 0.  1.
<mgrwt>
<rscale>  2 0.21143397E+03</rscale>
<asrwt>0</asrwt>
<pdfrwt beam="1">  1       21 0.65000511E-01 0.21143397E+03</pdfrwt>
<pdfrwt beam="2">  1       21 0.52919141E-01 0.21143397E+03</pdfrwt>
<totfact> 0.72754387E+03</totfact>
</mgrwt>
</event>
<event>
 4    3  0.4009700E+000  0.2109629E+03  0.7546771E-02  0.1140806E+00
         21   -1    0    0  503  502  0.00000000000E+00  0.00000000000E+00  0.45770013494E+03  0.45770013494E+03  0.00000000000E+00 0. -1.
         21   -1    0    0  501  503 -0.00000000000E+00 -0.00000000000E+00 -0.15387485366E+03  0.15387485366E+03  0.00000000000E+00 0. -1.
          6    1    1    2  501    0 -0.10047661431E+02  0.12031362726E+03 -0.33606968308E+02  0.21362292181E+03  0.17300000000E+03 0. -1.
         -6    1    1    2    0  502  0.10047661431E+02 -0.12031362726E+03  0.33743224959E+03  0.39795206679E+03  0.17300000000E+03 0. -1.
<mgrwt>
<rscale>  2 0.21096285E+03</rscale>
<asrwt>0</asrwt>
<pdfrwt beam="1">  1       21 0.70415404E-01 0.21096285E+03</pdfrwt>
<pdfrwt beam="2">  1       21 0.23673055E-01 0.21096285E+03</pdfrwt>
<totfact> 0.30425816E+04</totfact>
</mgrwt>
</event>
<event>
 4    3  0.4009700E+000  0.1789275E+03  0.7546771E-02  0.1168845E+00
         21   -1    0    0  501  502  0.00000000000E+00  0.00000000000E+00  0.87513945600E+03  0.87513945600E+03  0.00000000000E+00 0. -1.
         21   -1    0    0  502  503 -0.00000000000E+00 -0.00000000000E+00 -0.53801461496E+02  0.53801461496E+02  0.00000000000E+00 0. -1.
          6    1    1    2  501    0  0.42519483700E+02  0.16677380882E+02  0.14790800018E+03  0.23214611357E+03  0.17300000000E+03 0. -1.
         -6    1    1    2    0  503 -0.42519483700E+02 -0.16677380882E+02  0.67342999432E+03  0.69679480393E+03  0.17300000000E+03 0. -1.
<mgrwt>
<rscale>  2 0.17892748E+03</rscale>
<asrwt>0</asrwt>
<pdfrwt beam="1">  1       21 0.13463683E+00 0.17892748E+03</pdfrwt>
<pdfrwt beam="2">  1       21 0.82771486E-02 0.17892748E+03</pdfrwt>
<totfact> 0.45071167E+04</totfact>
</mgrwt>
</event>
<event>
 4    3  0.4009700E+000  0.2148900E+03  0.7546771E-02  0.1137751E+00
         21   -1    0    0  503  502  0.00000000000E+00  0.00000000000E+00  0.21901641609E+03  0.21901641609E+03  0.00000000000E+00 0. -1.
         21   -1    0    0  501  503 -0.00000000000E+00 -0.00000000000E+00 -0.21439839030E+03  0.21439839030E+03  0.00000000000E+00 0.  1.
          6    1    1    2  501    0 -0.46237736884E+02 -0.11878886974E+03 -0.25603916470E+02  0.21640999151E+03  0.17300000000E+03 0.  1.
         -6    1    1    2    0  502  0.46237736884E+02  0.11878886974E+03  0.30221942258E+02  0.21700481488E+03  0.17300000000E+03 0. -1.
<mgrwt>
<rscale>  2 0.21489003E+03</rscale>
<asrwt>0</asrwt>
<pdfrwt beam="1">  1       21 0.33694833E-01 0.21489003E+03</pdfrwt>
<pdfrwt beam="2">  1       21 0.32984368E-01 0.21489003E+03</pdfrwt>
<totfact> 0.74362288E+04</totfact>
</mgrwt>
</event>
<event>
 4    3  0.4009700E+000  0.2210007E+03  0.7546771E-02  0.1133139E+00
         21   -1    0    0  503  502  0.00000000000E+00  0.00000000000E+00  0.14599662825E+03  0.14599662825E+03  0.00000000000E+00 0. -1.
         21   -1    0    0  501  503 -0.00000000000E+00 -0.00000000000E+00 -0.36220251267E+03  0.36220251267E+03  0.00000000000E+00 0.  1.
          6    1    1    2  501    0  0.10229459496E+03 -0.91913763281E+02 -0.17832844770E+03  0.28397598367E+03  0.17300000000E+03 0. -1.
         -6    1    1    2    0  502 -0.10229459496E+03  0.91913763281E+02 -0.37877436721E+02  0.22422315726E+03  0.17300000000E+03 0.  1.
<mgrwt>
<rscale>  2 0.22100073E+03</rscale>
<asrwt>0</asrwt>
<pdfrwt beam="1">  1       21 0.22461020E-01 0.22100073E+03</pdfrwt>
<pdfrwt beam="2">  1       21 0.55723463E-01 0.22100073E+03</pdfrwt>
<totfact> 0.55585311E+04</totfact>
</mgrwt>
</event>
<event>
 4    3  0.4009700E+000  0.1937326E+03  0.7546771E-02  0.1155137E+00
         21   -1    0    0  503  502  0.00000000000E+00  0.00000000000E+00  0.32429222537E+03  0.32429222537E+03  0.00000000000E+00 0. -1.
         21   -1    0    0  501  503 -0.00000000000E+00 -0.00000000000E+00 -0.12255584189E+03  0.12255584189E+03  0.00000000000E+00 0. -1.
          6    1    1    2  501    0  0.79795170603E+02 -0.35157696858E+02  0.48163979187E+02  0.19962991206E+03  0.17300000000E+03 0. -1.
         -6    1    1    2    0  502 -0.79795170603E+02  0.35157696858E+02  0.15357240429E+03  0.24721815520E+03  0.17300000000E+03 0. -1.
<mgrwt>
<rscale>  2 0.19373263E+03</rscale>
<asrwt>0</asrwt>
<pdfrwt beam="1">  1       21 0.49891111E-01 0.19373263E+03</pdfrwt>
<pdfrwt beam="2">  1       21 0.18854745E-01 0.19373263E+03</pdfrwt>
<totfact> 0.98579261E+04</totfact>
</mgrwt>
</event>
<event>
 4    3  0.4009700E+000  0.2046183E+03  0.7546771E-02  0.1145900E+00
         21   -1    0    0  503  502  0.00000000000E+00  0.00000000000E+00  0.27702848839E+03  0.27702848839E+03  0.00000000000E+00 0.  1.
         21   -1    0    0  501  503 -0.00000000000E+00 -0.00000000000E+00 -0.19103005170E+03  0.19103005170E+03  0.00000000000E+00 0.  1.
          6    1    1    2  501    0  0.10924581517E+03 -0.22337037014E+01 -0.63950608518E+02  0.21437891196E+03  0.17300000000E+03 0.  1.
         -6    1    1    2    0  502 -0.10924581517E+03  0.22337037014E+01  0.14994904521E+03  0.25367962812E+03  0.17300000000E+03 0.  1.
<mgrwt>
<rscale>  2 0.20461827E+03</rscale>
<asrwt>0</asrwt>
<pdfrwt beam="1">  1       21 0.42619767E-01 0.20461827E+03</pdfrwt>
<pdfrwt beam="2">  1       21 0.29389239E-01 0.20461827E+03</pdfrwt>
<totfact> 0.58411694E+04</totfact>
</mgrwt>
</event>
<event>
 4    3  0.4009700E+000  0.1786101E+03  0.7546771E-02  0.1169155E+00
         21   -1    0    0  503  502  0.00000000000E+00  0.00000000000E+00  0.11544071864E+03  0.11544071864E+03  0.00000000000E+00 0. -1.
         21   -1    0    0  501  503 -0.00000000000E+00 -0.00000000000E+00 -0.68939706532E+03  0.68939706532E+03  0.00000000000E+00 0. -1.
          6    1    1    2  501    0 -0.44217031621E+02  0.41756514303E+01 -0.59846918124E+03  0.62455339471E+03  0.17300000000E+03 0. -1.
         -6    1    1    2    0  502  0.44217031621E+02 -0.41756514303E+01  0.24512834552E+02  0.18028438925E+03  0.17300000000E+03 0. -1.
<mgrwt>
<rscale>  2 0.17861014E+03</rscale>
<asrwt>0</asrwt>
<pdfrwt beam="1">  1       21 0.17760111E-01 0.17861014E+03</pdfrwt>
<pdfrwt beam="2">  1       21 0.10606109E+00 0.17861014E+03</pdfrwt>
<totfact> 0.20705355E+04</totfact>
</mgrwt>
</event>
<event>
 4    3  0.4009700E+000  0.1785698E+03  0.7546771E-02  0.1169194E+00
         21   -1    0    0  503  502  0.00000000000E+00  0.00000000000E+00  0.13506298909E+04  0.13506298909E+04  0.00000000000E+00 0.  1.
         21   -1    0    0  501  503 -0.00000000000E+00 -0.00000000000E+00 -0.23687276015E+02  0.23687276015E+02  0.00000000000E+00 0.  1.
          6    1    1    2  501    0 -0.33635416181E+01  0.44123203749E+02  0.62399771617E+03  0.64904569971E+03  0.17300000000E+03 0. -1.
         -6    1    1    2    0  502  0.33635416181E+01 -0.44123203749E+02  0.70294489876E+03  0.72527146725E+03  0.17300000000E+03 0. -1.
<mgrwt>
<rscale>  2 0.17856979E+03</rscale>
<asrwt>0</asrwt>
<pdfrwt beam="1">  1       21 0.20778915E+00 0.17856979E+03</pdfrwt>
<pdfrwt beam="2">  1       21 0.36441974E-02 0.17856979E+03</pdfrwt>
<totfact> 0.55382117E+04</totfact>
</mgrwt>
</event>
<event>
 4    3  0.4009700E+000  0.2288041E+03  0.7546771E-02  0.1127484E+00
         21   -1    0    0  501  502  0.00000000000E+00  0.00000000000E+00  0.23310468759E+03  0.23310468759E+03  0.00000000000E+00 0.  1.
         21   -1    0    0  502  503 -0.00000000000E+00 -0.00000000000E+00 -0.30753640281E+03  0.30753640281E+03  0.00000000000E+00 0.  1.
          6    1    1    2  501    0 -0.10174818486E+03 -0.10986193484E+03  0.10317797484E+03  0.25099209617E+03  0.17300000000E+03 0.  1.
         -6    1    1    2    0  503  0.10174818486E+03  0.10986193484E+03 -0.17760969006E+03  0.28964899422E+03  0.17300000000E+03 0.  1.
<mgrwt>
<rscale>  2 0.22880415E+03</rscale>
<asrwt>0</asrwt>
<pdfrwt beam="1">  1       21 0.35862260E-01 0.22880415E+03</pdfrwt>
<pdfrwt beam="2">  1       21 0.47313293E-01 0.22880415E+03</pdfrwt>
<totfact> 0.31446569E+04</totfact>
</mgrwt>
</event>
