<event>
 4    2  0.4681349E-007  0.1082241E+04  0.7818608E-02  0.9281091E-01
         -1   -1    0    0    0  501 -0.00000000000E+00  0.00000000000E+00  0.36008630833E+03  0.36008630836E+03  0.50400000000E-02 0.  1.
          1   -1    0    0  501    0  0.00000000000E+00 -0.00000000000E+00 -0.30782833124E+04  0.30782833124E+04  0.50400000000E-02 0. -1.
    8880023    1    1    2    0    0  0.79278722171E+03 -0.33003518469E+03 -0.84846463503E+03  0.13751862584E+04  0.65864270000E+03 0.  0.
    8880022    1    1    2    0    0 -0.79278722171E+03  0.33003518469E+03 -0.18697323691E+04  0.20631833624E+04  0.15294330000E+03 0.  0.
<mgrwt>
<rscale>  0 0.10254243E+04</rscale>
<asrwt>0</asrwt>
<pdfrwt beam="1">  1        1 0.47358203E+00 0.10822407E+04</pdfrwt>
<pdfrwt beam="2">  1       -1 0.55397896E-01 0.10822407E+04</pdfrwt>
<totfact> 0.17549396E+00</totfact>
</mgrwt>
</event>
<event>
 4    2  0.4681349E-007  0.7320799E+03  0.7818608E-02  0.9883649E-01
         -1   -1    0    0    0  501 -0.00000000000E+00  0.00000000000E+00  0.13032512827E+04  0.13032512828E+04  0.50400000000E-02 0.  1.
          1   -1    0    0  501    0  0.00000000000E+00 -0.00000000000E+00 -0.10171859674E+04  0.10171859674E+04  0.50400000000E-02 0. -1.
    8880023    1    1    2    0    0  0.12459122396E+03  0.29429208581E+03  0.11632294554E+04  0.13744248895E+04  0.65864270000E+03 0.  1.
    8880022    1    1    2    0    0 -0.12459122396E+03 -0.29429208581E+03 -0.87716414008E+03  0.94601236066E+03  0.15294330000E+03 0.  0.
<mgrwt>
<rscale>  0 0.61060316E+03</rscale>
<asrwt>0</asrwt>
<pdfrwt beam="1">  1        1 0.15649015E+00 0.73207992E+03</pdfrwt>
<pdfrwt beam="2">  1       -1 0.20050020E+00 0.73207992E+03</pdfrwt>
<totfact> 0.22919980E+00</totfact>
</mgrwt>
</event>
<event>
 4    2  0.4681349E-007  0.1037959E+04  0.7818608E-02  0.9333499E-01
          1   -1    0    0  501    0  0.00000000000E+00  0.00000000000E+00  0.10143951951E+04  0.10143951951E+04  0.50400000000E-02 0. -1.
         -1   -1    0    0    0  501 -0.00000000000E+00 -0.00000000000E+00 -0.11572061987E+04  0.11572061987E+04  0.50400000000E-02 0.  1.
    8880023    1    1    2    0    0  0.95658913337E+02  0.79649080882E+03 -0.63624614594E+03  0.12174430585E+04  0.65864270000E+03 0.  0.
    8880022    1    1    2    0    0 -0.95658913337E+02 -0.79649080882E+03  0.49343514234E+03  0.95415833536E+03  0.15294330000E+03 0.  0.
<mgrwt>
<rscale>  0 0.97756562E+03</rscale>
<asrwt>0</asrwt>
<pdfrwt beam="1">  1        1 0.15606080E+00 0.10379588E+04</pdfrwt>
<pdfrwt beam="2">  1       -1 0.17803172E+00 0.10379588E+04</pdfrwt>
<totfact> 0.31663004E+00</totfact>
</mgrwt>
</event>
<event>
 4    2  0.4681349E-007  0.9273442E+03  0.7818608E-02  0.9483489E-01
          1   -1    0    0  501    0  0.00000000000E+00  0.00000000000E+00  0.20068761863E+04  0.20068761864E+04  0.50400000000E-02 0. -1.
         -1   -1    0    0    0  501 -0.00000000000E+00 -0.00000000000E+00 -0.51017441961E+03  0.51017441963E+03  0.50400000000E-02 0.  1.
    8880023    1    1    2    0    0 -0.63443502003E+03  0.15378298486E+03  0.57255072751E+02  0.92910997772E+03  0.65864270000E+03 0.  0.
    8880022    1    1    2    0    0  0.63443502003E+03 -0.15378298486E+03  0.14394466940E+04  0.15879406283E+04  0.15294330000E+03 0.  0.
<mgrwt>
<rscale>  0 0.85512144E+03</rscale>
<asrwt>0</asrwt>
<pdfrwt beam="1">  1        1 0.30875018E+00 0.92734417E+03</pdfrwt>
<pdfrwt beam="2">  1       -1 0.78488373E-01 0.92734417E+03</pdfrwt>
<totfact> 0.48915919E+00</totfact>
</mgrwt>
</event>
<event>
 4    2  0.4681349E-007  0.6689538E+03  0.7818608E-02  0.1016424E+00
          1   -1    0    0  501    0  0.00000000000E+00  0.00000000000E+00  0.12546812138E+04  0.12546812138E+04  0.50400000000E-02 0. -1.
         -1   -1    0    0    0  501 -0.00000000000E+00 -0.00000000000E+00 -0.23951456982E+03  0.23951456987E+03  0.50400000000E-02 0.  1.
    8880023    1    1    2    0    0 -0.11244684430E+03 -0.32321687635E+02  0.26470371864E+03  0.71942146841E+03  0.65864270000E+03 0.  1.
    8880022    1    1    2    0    0  0.11244684430E+03  0.32321687635E+02  0.75046292534E+03  0.77477431527E+03  0.15294330000E+03 0.  0.
<mgrwt>
<rscale>  0 0.48999370E+03</rscale>
<asrwt>0</asrwt>
<pdfrwt beam="1">  1        1 0.19302789E+00 0.66895380E+03</pdfrwt>
<pdfrwt beam="2">  1       -1 0.36848394E-01 0.66895380E+03</pdfrwt>
<totfact> 0.71144660E+01</totfact>
</mgrwt>
</event>
<event>
 4    2  0.4681349E-007  0.9518615E+03  0.7818608E-02  0.9447441E-01
          1   -1    0    0  501    0  0.00000000000E+00  0.00000000000E+00  0.20359440653E+04  0.20359440653E+04  0.50400000000E-02 0. -1.
         -1   -1    0    0    0  501 -0.00000000000E+00 -0.00000000000E+00 -0.51787637539E+03  0.51787637541E+03  0.50400000000E-02 0.  1.
    8880023    1    1    2    0    0 -0.60998182649E+03  0.31646842818E+03  0.83126369557E+02  0.95548432445E+03  0.65864270000E+03 0.  1.
    8880022    1    1    2    0    0  0.60998182649E+03 -0.31646842818E+03  0.14349413203E+04  0.15983361163E+04  0.15294330000E+03 0.  0.
<mgrwt>
<rscale>  0 0.88272233E+03</rscale>
<asrwt>0</asrwt>
<pdfrwt beam="1">  1        1 0.31322217E+00 0.95186149E+03</pdfrwt>
<pdfrwt beam="2">  1       -1 0.79673288E-01 0.95186149E+03</pdfrwt>
<totfact> 0.45145535E+00</totfact>
</mgrwt>
</event>
<event>
 4    2  0.4681349E-007  0.9199056E+03  0.7818608E-02  0.9494804E-01
          1   -1    0    0  501    0  0.00000000000E+00  0.00000000000E+00  0.17931899642E+04  0.17931899642E+04  0.50400000000E-02 0. -1.
         -1   -1    0    0    0  501 -0.00000000000E+00 -0.00000000000E+00 -0.46509472227E+03  0.46509472230E+03  0.50400000000E-02 0.  1.
    8880023    1    1    2    0    0  0.63527841230E+03  0.94008092270E+02  0.18510059296E+03  0.93834355027E+03  0.65864270000E+03 0.  1.
    8880022    1    1    2    0    0 -0.63527841230E+03 -0.94008092270E+02  0.11429946490E+04  0.13199411363E+04  0.15294330000E+03 0.  0.
<mgrwt>
<rscale>  0 0.84668008E+03</rscale>
<asrwt>0</asrwt>
<pdfrwt beam="1">  1        1 0.27587539E+00 0.91990564E+03</pdfrwt>
<pdfrwt beam="2">  1       -1 0.71553033E-01 0.91990564E+03</pdfrwt>
<totfact> 0.82722061E+00</totfact>
</mgrwt>
</event>
<event>
 4    2  0.4681349E-007  0.7638781E+03  0.7818608E-02  0.9795169E-01
          1   -1    0    0  501    0  0.00000000000E+00  0.00000000000E+00  0.35456261913E+03  0.35456261917E+03  0.50400000000E-02 0. -1.
         -1   -1    0    0    0  501 -0.00000000000E+00 -0.00000000000E+00 -0.16166812420E+04  0.16166812420E+04  0.50400000000E-02 0.  1.
    8880023    1    1    2    0    0  0.13436108079E+03  0.36283140911E+03 -0.13452293268E+04  0.15469814735E+04  0.65864270000E+03 0.  0.
    8880022    1    1    2    0    0 -0.13436108079E+03 -0.36283140911E+03  0.83110703921E+02  0.42426238767E+03  0.15294330000E+03 0.  0.
<mgrwt>
<rscale>  0 0.65622445E+03</rscale>
<asrwt>0</asrwt>
<pdfrwt beam="1">  1        1 0.54548096E-01 0.76387809E+03</pdfrwt>
<pdfrwt beam="2">  1       -1 0.24872019E+00 0.76387809E+03</pdfrwt>
<totfact> 0.51905172E+00</totfact>
</mgrwt>
</event>
<event>
 4    2  0.4681349E-007  0.6993543E+03  0.7818608E-02  0.9999890E-01
          1   -1    0    0  501    0  0.00000000000E+00  0.00000000000E+00  0.67859453268E+03  0.67859453270E+03  0.50400000000E-02 0. -1.
         -1   -1    0    0    0  501 -0.00000000000E+00 -0.00000000000E+00 -0.35765376864E+03  0.35765376868E+03  0.50400000000E-02 0.  1.
    8880023    1    1    2    0    0  0.22704174866E+03 -0.61141426469E+02  0.17907241897E+03  0.72191645442E+03  0.65864270000E+03 0.  1.
    8880022    1    1    2    0    0 -0.22704174866E+03  0.61141426469E+02  0.14186834507E+03  0.31433184696E+03  0.15294330000E+03 0.  0.
<mgrwt>
<rscale>  0 0.55655043E+03</rscale>
<asrwt>0</asrwt>
<pdfrwt beam="1">  1        1 0.10439916E+00 0.69935430E+03</pdfrwt>
<pdfrwt beam="2">  1       -1 0.55023657E-01 0.69935430E+03</pdfrwt>
<totfact> 0.97458195E+01</totfact>
</mgrwt>
</event>
<event>
 4    2  0.4681349E-007  0.7265566E+03  0.7818608E-02  0.9900994E-01
         -1   -1    0    0    0  501 -0.00000000000E+00  0.00000000000E+00  0.95293570966E+03  0.95293570967E+03  0.50400000000E-02 0.  1.
          1   -1    0    0  501    0  0.00000000000E+00 -0.00000000000E+00 -0.80044218836E+03  0.80044218838E+03  0.50400000000E-02 0. -1.
    8880023    1    1    2    0    0  0.26653592381E+03  0.15176605911E+03  0.76278421726E+03  0.10534345275E+04  0.65864270000E+03 0.  1.
    8880022    1    1    2    0    0 -0.26653592381E+03 -0.15176605911E+03 -0.61029069596E+03  0.69994337054E+03  0.15294330000E+03 0.  0.
<mgrwt>
<rscale>  0 0.60213119E+03</rscale>
<asrwt>0</asrwt>
<pdfrwt beam="1">  1        1 0.12314495E+00 0.72655663E+03</pdfrwt>
<pdfrwt beam="2">  1       -1 0.14660549E+00 0.72655663E+03</pdfrwt>
<totfact> 0.84870494E+00</totfact>
</mgrwt>
</event>
<event>
 4    2  0.4681349E-007  0.7476603E+03  0.7818608E-02  0.9838170E-01
         -1   -1    0    0    0  501 -0.00000000000E+00  0.00000000000E+00  0.56143792622E+03  0.56143792625E+03  0.50400000000E-02 0.  1.
          1   -1    0    0  501    0  0.00000000000E+00 -0.00000000000E+00 -0.64907314767E+03  0.64907314769E+03  0.50400000000E-02 0. -1.
    8880023    1    1    2    0    0 -0.11871030331E+03  0.33330702522E+03  0.14315702842E+03  0.76124230717E+03  0.65864270000E+03 0.  0.
    8880022    1    1    2    0    0  0.11871030331E+03 -0.33330702522E+03 -0.23079224986E+03  0.44926876676E+03  0.15294330000E+03 0.  0.
<mgrwt>
<rscale>  0 0.63353749E+03</rscale>
<asrwt>0</asrwt>
<pdfrwt beam="1">  1        1 0.99857407E-01 0.74766029E+03</pdfrwt>
<pdfrwt beam="2">  1       -1 0.86375066E-01 0.74766029E+03</pdfrwt>
<totfact> 0.41290207E+01</totfact>
</mgrwt>
</event>
<event>
 4    2  0.4681349E-007  0.1106270E+04  0.7818608E-02  0.9254107E-01
          1   -1    0    0  501    0  0.00000000000E+00  0.00000000000E+00  0.25893596568E+04  0.25893596568E+04  0.50400000000E-02 0. -1.
         -1   -1    0    0    0  501 -0.00000000000E+00 -0.00000000000E+00 -0.48290045524E+03  0.48290045526E+03  0.50400000000E-02 0.  1.
    8880023    1    1    2    0    0  0.87349630319E+03 -0.16439963033E+03  0.46638654796E+03  0.12005622218E+04  0.65864270000E+03 0.  0.
    8880022    1    1    2    0    0 -0.87349630319E+03  0.16439963033E+03  0.16400726536E+04  0.18716978902E+04  0.15294330000E+03 0.  0.
<mgrwt>
<rscale>  0 0.10511988E+04</rscale>
<asrwt>0</asrwt>
<pdfrwt beam="1">  1        1 0.39836301E+00 0.11062700E+04</pdfrwt>
<pdfrwt beam="2">  1       -1 0.74292380E-01 0.11062700E+04</pdfrwt>
<totfact> 0.21521124E+00</totfact>
</mgrwt>
</event>
<event>
 4    2  0.4681349E-007  0.7608003E+03  0.7818608E-02  0.9803040E-01
         -1   -1    0    0    0  501 -0.00000000000E+00  0.00000000000E+00  0.83030986126E+03  0.83030986127E+03  0.50400000000E-02 0.  1.
          1   -1    0    0  501    0  0.00000000000E+00 -0.00000000000E+00 -0.76916554890E+03  0.76916554891E+03  0.50400000000E-02 0. -1.
    8880023    1    1    2    0    0 -0.38003200886E+03 -0.24136217177E+02  0.56645878876E+03  0.94852129674E+03  0.65864270000E+03 0.  1.
    8880022    1    1    2    0    0  0.38003200886E+03  0.24136217177E+02 -0.50531447640E+03  0.65095411345E+03  0.15294330000E+03 0.  0.
<mgrwt>
<rscale>  0 0.65199654E+03</rscale>
<asrwt>0</asrwt>
<pdfrwt beam="1">  1        1 0.11833316E+00 0.76080030E+03</pdfrwt>
<pdfrwt beam="2">  1       -1 0.12773998E+00 0.76080030E+03</pdfrwt>
<totfact> 0.12830063E+01</totfact>
</mgrwt>
</event>
<event>
 4    2  0.4681349E-007  0.7322256E+03  0.7818608E-02  0.9883201E-01
         -1   -1    0    0    0  501 -0.00000000000E+00  0.00000000000E+00  0.26956030019E+03  0.26956030024E+03  0.50400000000E-02 0.  1.
          1   -1    0    0  501    0  0.00000000000E+00 -0.00000000000E+00 -0.12728311158E+04  0.12728311158E+04  0.50400000000E-02 0. -1.
    8880023    1    1    2    0    0  0.24622100283E+03 -0.20425307355E+03 -0.37913157934E+03  0.82455749406E+03  0.65864270000E+03 0.  0.
    8880022    1    1    2    0    0 -0.24622100283E+03  0.20425307355E+03 -0.62413923626E+03  0.71783392198E+03  0.15294330000E+03 0.  0.
<mgrwt>
<rscale>  0 0.61082390E+03</rscale>
<asrwt>0</asrwt>
<pdfrwt beam="1">  1        1 0.19582017E+00 0.73222558E+03</pdfrwt>
<pdfrwt beam="2">  1       -1 0.41470816E-01 0.73222558E+03</pdfrwt>
<totfact> 0.55389508E+01</totfact>
</mgrwt>
</event>
<event>
 4    2  0.4681349E-007  0.7338251E+03  0.7818608E-02  0.9878313E-01
          1   -1    0    0  501    0  0.00000000000E+00  0.00000000000E+00  0.12411625113E+04  0.12411625114E+04  0.50400000000E-02 0. -1.
         -1   -1    0    0    0  501 -0.00000000000E+00 -0.00000000000E+00 -0.72832775713E+03  0.72832775715E+03  0.50400000000E-02 0.  1.
    8880023    1    1    2    0    0 -0.32059305708E+03 -0.43693696808E+02 -0.50484805034E+03  0.89071365072E+03  0.65864270000E+03 0.  1.
    8880022    1    1    2    0    0  0.32059305708E+03  0.43693696808E+02  0.10176828046E+04  0.10787766178E+04  0.15294330000E+03 0.  0.
<mgrwt>
<rscale>  0 0.61323915E+03</rscale>
<asrwt>0</asrwt>
<pdfrwt beam="1">  1        1 0.19094808E+00 0.73382508E+03</pdfrwt>
<pdfrwt beam="2">  1       -1 0.11205042E+00 0.73382508E+03</pdfrwt>
<totfact> 0.75689231E+00</totfact>
</mgrwt>
</event>
<event>
 4    2  0.4681349E-007  0.6588613E+03  0.7818608E-02  0.1025355E+00
          1   -1    0    0  501    0  0.00000000000E+00  0.00000000000E+00  0.11894946977E+04  0.11894946977E+04  0.50400000000E-02 0. -1.
         -1   -1    0    0    0  501 -0.00000000000E+00 -0.00000000000E+00 -0.50080535945E+03  0.50080535948E+03  0.50400000000E-02 0.  1.
    8880023    1    1    2    0    0 -0.12718166656E+02 -0.11236212253E+02 -0.27533002895E+03  0.71407621115E+03  0.65864270000E+03 0.  1.
    8880022    1    1    2    0    0  0.12718166656E+02  0.11236212253E+02  0.96401936723E+03  0.97622384607E+03  0.15294330000E+03 0.  0.
<mgrwt>
<rscale>  0 0.45802842E+03</rscale>
<asrwt>0</asrwt>
<pdfrwt beam="1">  1        1 0.18299918E+00 0.65886130E+03</pdfrwt>
<pdfrwt beam="2">  1       -1 0.77046979E-01 0.65886130E+03</pdfrwt>
<totfact> 0.19187216E+01</totfact>
</mgrwt>
</event>
<event>
 4    2  0.4681349E-007  0.9410570E+03  0.7818608E-02  0.9463100E-01
         -1   -1    0    0    0  501 -0.00000000000E+00  0.00000000000E+00  0.12728532977E+04  0.12728532977E+04  0.50400000000E-02 0.  1.
          1   -1    0    0  501    0  0.00000000000E+00 -0.00000000000E+00 -0.64117781168E+03  0.64117781170E+03  0.50400000000E-02 0. -1.
    8880023    1    1    2    0    0 -0.29235735982E+02 -0.67150828496E+03  0.76397481755E+03  0.12121245122E+04  0.65864270000E+03 0.  0.
    8880022    1    1    2    0    0  0.29235735982E+02  0.67150828496E+03 -0.13229933154E+03  0.70190659718E+03  0.15294330000E+03 0.  0.
<mgrwt>
<rscale>  0 0.87059878E+03</rscale>
<asrwt>0</asrwt>
<pdfrwt beam="1">  1        1 0.98642741E-01 0.94105702E+03</pdfrwt>
<pdfrwt beam="2">  1       -1 0.19582358E+00 0.94105702E+03</pdfrwt>
<totfact> 0.50529540E+00</totfact>
</mgrwt>
</event>
<event>
 4    2  0.4681349E-007  0.6679783E+03  0.7818608E-02  0.1017156E+00
          1   -1    0    0  501    0  0.00000000000E+00  0.00000000000E+00  0.39356038960E+03  0.39356038963E+03  0.50400000000E-02 0. -1.
         -1   -1    0    0    0  501 -0.00000000000E+00 -0.00000000000E+00 -0.93581272252E+03  0.93581272254E+03  0.50400000000E-02 0.  1.
    8880023    1    1    2    0    0  0.10906496245E+03 -0.22129117948E+02 -0.77911012328E+03  0.10262590581E+04  0.65864270000E+03 0.  1.
    8880022    1    1    2    0    0 -0.10906496245E+03  0.22129117948E+02  0.23685779036E+03  0.30311405405E+03  0.15294330000E+03 0.  0.
<mgrwt>
<rscale>  0 0.48727210E+03</rscale>
<asrwt>0</asrwt>
<pdfrwt beam="1">  1        1 0.60547753E-01 0.66797835E+03</pdfrwt>
<pdfrwt beam="2">  1       -1 0.14397119E+00 0.66797835E+03</pdfrwt>
<totfact> 0.24669881E+01</totfact>
</mgrwt>
</event>
<event>
 4    2  0.4681349E-007  0.7478701E+03  0.7818608E-02  0.9837588E-01
         -1   -1    0    0    0  501 -0.00000000000E+00  0.00000000000E+00  0.69385251433E+03  0.69385251435E+03  0.50400000000E-02 0.  1.
          1   -1    0    0  501    0  0.00000000000E+00 -0.00000000000E+00 -0.55767575767E+03  0.55767575769E+03  0.50400000000E-02 0. -1.
    8880023    1    1    2    0    0  0.31481801386E+03  0.16244737447E+03  0.33266090987E+03  0.81851879547E+03  0.65864270000E+03 0.  0.
    8880022    1    1    2    0    0 -0.31481801386E+03 -0.16244737447E+03 -0.19648415321E+03  0.43300947657E+03  0.15294330000E+03 0.  0.
<mgrwt>
<rscale>  0 0.63383799E+03</rscale>
<asrwt>0</asrwt>
<pdfrwt beam="1">  1        1 0.85796271E-01 0.74787013E+03</pdfrwt>
<pdfrwt beam="2">  1       -1 0.10674654E+00 0.74787013E+03</pdfrwt>
<totfact> 0.31906214E+01</totfact>
</mgrwt>
</event>
<event>
 4    2  0.4681349E-007  0.6711767E+03  0.7818608E-02  0.1014833E+00
          1   -1    0    0  501    0  0.00000000000E+00  0.00000000000E+00  0.10117811946E+04  0.10117811946E+04  0.50400000000E-02 0. -1.
         -1   -1    0    0    0  501 -0.00000000000E+00 -0.00000000000E+00 -0.28559092153E+03  0.28559092158E+03  0.50400000000E-02 0.  1.
    8880023    1    1    2    0    0 -0.11828313129E+03  0.51740007616E+02  0.15044741334E+03  0.68783178029E+03  0.65864270000E+03 0.  0.
    8880022    1    1    2    0    0  0.11828313129E+03 -0.51740007616E+02  0.57574285969E+03  0.60954033585E+03  0.15294330000E+03 0.  0.
<mgrwt>
<rscale>  0 0.49598203E+03</rscale>
<asrwt>0</asrwt>
<pdfrwt beam="1">  1        1 0.15565865E+00 0.67117668E+03</pdfrwt>
<pdfrwt beam="2">  1       -1 0.43937065E-01 0.67117668E+03</pdfrwt>
<totfact> 0.78029519E+01</totfact>
</mgrwt>
</event>
<event>
 4    2  0.4681349E-007  0.9102973E+03  0.7818608E-02  0.9509699E-01
         -1   -1    0    0    0  501 -0.00000000000E+00  0.00000000000E+00  0.19197765235E+04  0.19197765235E+04  0.50400000000E-02 0.  1.
          1   -1    0    0  501    0  0.00000000000E+00 -0.00000000000E+00 -0.75130111612E+03  0.75130111614E+03  0.50400000000E-02 0. -1.
    8880023    1    1    2    0    0 -0.62833958730E+03 -0.45180434215E+01  0.16366011985E+04  0.18727265521E+04  0.65864270000E+03 0.  1.
    8880022    1    1    2    0    0  0.62833958730E+03  0.45180434215E+01 -0.46812579112E+03  0.79835108756E+03  0.15294330000E+03 0.  0.
<mgrwt>
<rscale>  0 0.83572503E+03</rscale>
<asrwt>0</asrwt>
<pdfrwt beam="1">  1        1 0.11558479E+00 0.91029734E+03</pdfrwt>
<pdfrwt beam="2">  1       -1 0.29535023E+00 0.91029734E+03</pdfrwt>
<totfact> 0.88814075E-01</totfact>
</mgrwt>
</event>
<event>
 4    2  0.4681349E-007  0.7901022E+03  0.7818608E-02  0.9732621E-01
         -1   -1    0    0    0  501 -0.00000000000E+00  0.00000000000E+00  0.32858324148E+03  0.32858324152E+03  0.50400000000E-02 0.  1.
          1   -1    0    0  501    0  0.00000000000E+00 -0.00000000000E+00 -0.19158202274E+04  0.19158202274E+04  0.50400000000E-02 0. -1.
    8880023    1    1    2    0    0 -0.35187210076E+03 -0.25814191565E+03 -0.24882604267E+03  0.82835730798E+03  0.65864270000E+03 0.  0.
    8880022    1    1    2    0    0  0.35187210076E+03  0.25814191565E+03 -0.13384109433E+04  0.14160461610E+04  0.15294330000E+03 0.  0.
<mgrwt>
<rscale>  0 0.69107358E+03</rscale>
<asrwt>0</asrwt>
<pdfrwt beam="1">  1        1 0.29474157E+00 0.79010216E+03</pdfrwt>
<pdfrwt beam="2">  1       -1 0.50551269E-01 0.79010216E+03</pdfrwt>
<totfact> 0.13847614E+01</totfact>
</mgrwt>
</event>
<event>
 4    2  0.4681349E-007  0.8224815E+03  0.7818608E-02  0.9664142E-01
         -1   -1    0    0    0  501 -0.00000000000E+00  0.00000000000E+00  0.35421730619E+03  0.35421730623E+03  0.50400000000E-02 0.  1.
          1   -1    0    0  501    0  0.00000000000E+00 -0.00000000000E+00 -0.28679555919E+04  0.28679555920E+04  0.50400000000E-02 0. -1.
    8880023    1    1    2    0    0 -0.48711881073E+03  0.73354843120E+02 -0.19302477696E+03  0.84482805325E+03  0.65864270000E+03 0.  0.
    8880022    1    1    2    0    0  0.48711881073E+03 -0.73354843120E+02 -0.23207135088E+04  0.23773448449E+04  0.15294330000E+03 0. -1.
<mgrwt>
<rscale>  0 0.73192490E+03</rscale>
<asrwt>0</asrwt>
<pdfrwt beam="1">  1        1 0.44122392E+00 0.82248153E+03</pdfrwt>
<pdfrwt beam="2">  1       -1 0.54494972E-01 0.82248153E+03</pdfrwt>
<totfact> 0.26743688E+00</totfact>
</mgrwt>
</event>
<event>
 4    2  0.4681349E-007  0.6595247E+03  0.7818608E-02  0.1024649E+00
          1   -1    0    0  501    0  0.00000000000E+00  0.00000000000E+00  0.19115463881E+04  0.19115463881E+04  0.50400000000E-02 0. -1.
         -1   -1    0    0    0  501 -0.00000000000E+00 -0.00000000000E+00 -0.75943516231E+03  0.75943516232E+03  0.50400000000E-02 0.  1.
    8880023    1    1    2    0    0 -0.21788918412E+02  0.26228293240E+02 -0.61211515031E+03  0.89980989317E+03  0.65864270000E+03 0.  1.
    8880022    1    1    2    0    0  0.21788918412E+02 -0.26228293240E+02  0.17642263761E+04  0.17711716573E+04  0.15294330000E+03 0.  0.
<mgrwt>
<rscale>  0 0.46045727E+03</rscale>
<asrwt>0</asrwt>
<pdfrwt beam="1">  1        1 0.29408406E+00 0.65952474E+03</pdfrwt>
<pdfrwt beam="2">  1       -1 0.11683618E+00 0.65952474E+03</pdfrwt>
<totfact> 0.24233549E+00</totfact>
</mgrwt>
</event>
<event>
 4    2  0.4681349E-007  0.8417201E+03  0.7818608E-02  0.9626945E-01
         -1   -1    0    0    0  501 -0.00000000000E+00  0.00000000000E+00  0.41827342295E+03  0.41827342298E+03  0.50400000000E-02 0.  1.
          1   -1    0    0  501    0  0.00000000000E+00 -0.00000000000E+00 -0.19358264459E+04  0.19358264459E+04  0.50400000000E-02 0. -1.
    8880023    1    1    2    0    0 -0.47752142678E+03 -0.21599940676E+03 -0.11563760397E+03  0.84962622280E+03  0.65864270000E+03 0.  0.
    8880022    1    1    2    0    0  0.47752142678E+03  0.21599940676E+03 -0.14019154189E+04  0.15044736460E+04  0.15294330000E+03 0.  0.
<mgrwt>
<rscale>  0 0.75538141E+03</rscale>
<asrwt>0</asrwt>
<pdfrwt beam="1">  1        1 0.29781945E+00 0.84172006E+03</pdfrwt>
<pdfrwt beam="2">  1       -1 0.64349759E-01 0.84172006E+03</pdfrwt>
<totfact> 0.83215737E+00</totfact>
</mgrwt>
</event>
<event>
 4    2  0.4725320E-007  0.7087153E+03  0.7818608E-02  0.9962803E-01
          1   -1    0    0  501    0  0.00000000000E+00  0.00000000000E+00  0.11626672681E+04  0.11626672681E+04  0.50400000000E-02 0. -1.
         -1   -1    0    0    0  501 -0.00000000000E+00 -0.00000000000E+00 -0.10451517875E+04  0.10451517876E+04  0.50400000000E-02 0.  1.
    8880023    1    1    2    0    0  0.57226551282E+02  0.25532794524E+03 -0.90033088157E+03  0.11458067640E+04  0.65864270000E+03 0.  1.
    8880022    1    1    2    0    0 -0.57226551282E+02 -0.25532794524E+03  0.10178463621E+04  0.10620122917E+04  0.15294330000E+03 0.  0.
<mgrwt>
<rscale>  0 0.57311797E+03</rscale>
<asrwt>0</asrwt>
<pdfrwt beam="1">  1        1 0.17887189E+00 0.70871535E+03</pdfrwt>
<pdfrwt beam="2">  1       -1 0.16079258E+00 0.70871535E+03</pdfrwt>
<totfact> 0.34380034E+00</totfact>
</mgrwt>
</event>
<event>
 4    2  0.4681349E-007  0.6624393E+03  0.7818608E-02  0.1021786E+00
          1   -1    0    0  501    0  0.00000000000E+00  0.00000000000E+00  0.22444493062E+04  0.22444493062E+04  0.50400000000E-02 0. -1.
         -1   -1    0    0    0  501 -0.00000000000E+00 -0.00000000000E+00 -0.11809038478E+03  0.11809038489E+03  0.50400000000E-02 0.  1.
    8880023    1    1    2    0    0 -0.60354351958E+02  0.37053008819E+02  0.86271621848E+03  0.10877063267E+04  0.65864270000E+03 0.  1.
    8880022    1    1    2    0    0  0.60354351958E+02 -0.37053008819E+02  0.12636427029E+04  0.12748333644E+04  0.15294330000E+03 0.  0.
<mgrwt>
<rscale>  0 0.47047674E+03</rscale>
<asrwt>0</asrwt>
<pdfrwt beam="1">  1        1 0.34529987E+00 0.66243926E+03</pdfrwt>
<pdfrwt beam="2">  1       -1 0.18167753E-01 0.66243926E+03</pdfrwt>
<totfact> 0.51163317E+01</totfact>
</mgrwt>
</event>
<event>
 4    2  0.4681349E-007  0.6867904E+03  0.7818608E-02  0.1005717E+00
          1   -1    0    0  501    0  0.00000000000E+00  0.00000000000E+00  0.21386438117E+04  0.21386438117E+04  0.50400000000E-02 0. -1.
         -1   -1    0    0    0  501 -0.00000000000E+00 -0.00000000000E+00 -0.16665621055E+03  0.16665621062E+03  0.50400000000E-02 0.  1.
    8880023    1    1    2    0    0  0.82488409147E+02  0.17625682077E+03  0.60245989483E+03  0.91358575715E+03  0.65864270000E+03 0.  1.
    8880022    1    1    2    0    0 -0.82488409147E+02 -0.17625682077E+03  0.13695277063E+04  0.13917142652E+04  0.15294330000E+03 0.  0.
<mgrwt>
<rscale>  0 0.53212964E+03</rscale>
<asrwt>0</asrwt>
<pdfrwt beam="1">  1        1 0.32902212E+00 0.68679037E+03</pdfrwt>
<pdfrwt beam="2">  1       -1 0.25639417E-01 0.68679037E+03</pdfrwt>
<totfact> 0.33690882E+01</totfact>
</mgrwt>
</event>
<event>
 4    2  0.4681349E-007  0.7401111E+03  0.7818608E-02  0.9859623E-01
          1   -1    0    0  501    0  0.00000000000E+00  0.00000000000E+00  0.40043218706E+03  0.40043218709E+03  0.50400000000E-02 0. -1.
         -1   -1    0    0    0  501 -0.00000000000E+00 -0.00000000000E+00 -0.96629034754E+03  0.96629034755E+03  0.50400000000E-02 0.  1.
    8880023    1    1    2    0    0  0.33748962757E+03  0.74187644612E+01 -0.65188710203E+03  0.98626633667E+03  0.65864270000E+03 0.  1.
    8880022    1    1    2    0    0 -0.33748962757E+03 -0.74187644612E+01  0.86028941558E+02  0.38045619798E+03  0.15294330000E+03 0.  0.
<mgrwt>
<rscale>  0 0.62258648E+03</rscale>
<asrwt>0</asrwt>
<pdfrwt beam="1">  1        1 0.61604952E-01 0.74011114E+03</pdfrwt>
<pdfrwt beam="2">  1       -1 0.14866005E+00 0.74011114E+03</pdfrwt>
<totfact> 0.21977150E+01</totfact>
</mgrwt>
</event>
<event>
 4    2  0.4681349E-007  0.7798583E+03  0.7818608E-02  0.9756170E-01
          1   -1    0    0  501    0  0.00000000000E+00  0.00000000000E+00  0.23754273882E+04  0.23754273882E+04  0.50400000000E-02 0. -1.
         -1   -1    0    0    0  501 -0.00000000000E+00 -0.00000000000E+00 -0.30895368936E+03  0.30895368940E+03  0.50400000000E-02 0.  1.
    8880023    1    1    2    0    0  0.22194174313E+03 -0.35370987462E+03  0.25707785061E+03  0.82113825893E+03  0.65864270000E+03 0.  1.
    8880022    1    1    2    0    0 -0.22194174313E+03  0.35370987462E+03  0.18093958482E+04  0.18632428187E+04  0.15294330000E+03 0.  0.
<mgrwt>
<rscale>  0 0.67768711E+03</rscale>
<asrwt>0</asrwt>
<pdfrwt beam="1">  1        1 0.36545039E+00 0.77985833E+03</pdfrwt>
<pdfrwt beam="2">  1       -1 0.47531334E-01 0.77985833E+03</pdfrwt>
<totfact> 0.76525976E+00</totfact>
</mgrwt>
</event>
<event>
 4    2  0.4681349E-007  0.7591406E+03  0.7818608E-02  0.9807338E-01
         -1   -1    0    0    0  501 -0.00000000000E+00  0.00000000000E+00  0.41211949916E+03  0.41211949919E+03  0.50400000000E-02 0.  1.
          1   -1    0    0  501    0  0.00000000000E+00 -0.00000000000E+00 -0.21488321505E+04  0.21488321505E+04  0.50400000000E-02 0. -1.
    8880023    1    1    2    0    0 -0.35747035508E+03  0.12124009852E+03  0.18239709670E+02  0.75935967073E+03  0.65864270000E+03 0.  1.
    8880022    1    1    2    0    0  0.35747035508E+03 -0.12124009852E+03 -0.17549523610E+04  0.18015919790E+04  0.15294330000E+03 0.  0.
<mgrwt>
<rscale>  0 0.64970253E+03</rscale>
<asrwt>0</asrwt>
<pdfrwt beam="1">  1        1 0.33058956E+00 0.75914058E+03</pdfrwt>
<pdfrwt beam="2">  1       -1 0.63403001E-01 0.75914058E+03</pdfrwt>
<totfact> 0.62511527E+00</totfact>
</mgrwt>
</event>
<event>
 4    2  0.4681349E-007  0.1011127E+04  0.7818608E-02  0.9367143E-01
         -1   -1    0    0    0  501 -0.00000000000E+00  0.00000000000E+00  0.11538476522E+04  0.11538476522E+04  0.50400000000E-02 0.  1.
          1   -1    0    0  501    0  0.00000000000E+00 -0.00000000000E+00 -0.11023158008E+04  0.11023158009E+04  0.50400000000E-02 0. -1.
    8880023    1    1    2    0    0 -0.45610520118E+03  0.61687547983E+03  0.70847289206E+03  0.12346300487E+04  0.65864270000E+03 0.  0.
    8880022    1    1    2    0    0  0.45610520118E+03 -0.61687547983E+03 -0.65694104072E+03  0.10215334043E+04  0.15294330000E+03 0.  0.
<mgrwt>
<rscale>  0 0.94829732E+03</rscale>
<asrwt>0</asrwt>
<pdfrwt beam="1">  1        1 0.16958705E+00 0.10111269E+04</pdfrwt>
<pdfrwt beam="2">  1       -1 0.17751502E+00 0.10111269E+04</pdfrwt>
<totfact> 0.27447307E+00</totfact>
</mgrwt>
</event>
<event>
 4    2  0.4681349E-007  0.6848783E+03  0.7818608E-02  0.1006689E+00
          1   -1    0    0  501    0  0.00000000000E+00  0.00000000000E+00  0.56954638329E+03  0.56954638331E+03  0.50400000000E-02 0. -1.
         -1   -1    0    0    0  501 -0.00000000000E+00 -0.00000000000E+00 -0.73785605992E+03  0.73785605994E+03  0.50400000000E-02 0.  1.
    8880023    1    1    2    0    0  0.18768213729E+03 -0.48445349277E+01 -0.53424040278E+03  0.86860294059E+03  0.65864270000E+03 0.  0.
    8880022    1    1    2    0    0 -0.18768213729E+03  0.48445349277E+01  0.36593072615E+03  0.43879950265E+03  0.15294330000E+03 0.  0.
<mgrwt>
<rscale>  0 0.52812171E+03</rscale>
<asrwt>0</asrwt>
<pdfrwt beam="1">  1        1 0.87622520E-01 0.68487828E+03</pdfrwt>
<pdfrwt beam="2">  1       -1 0.11351632E+00 0.68487828E+03</pdfrwt>
<totfact> 0.26971563E+01</totfact>
</mgrwt>
</event>
<event>
 4    2  0.4681349E-007  0.6702741E+03  0.7818608E-02  0.1015467E+00
         -1   -1    0    0    0  501 -0.00000000000E+00  0.00000000000E+00  0.19767408319E+03  0.19767408326E+03  0.50400000000E-02 0.  1.
          1   -1    0    0  501    0  0.00000000000E+00 -0.00000000000E+00 -0.17190207083E+04  0.17190207083E+04  0.50400000000E-02 0. -1.
    8880023    1    1    2    0    0  0.93986522932E+02  0.81386470451E+02 -0.40510309583E+03  0.78318321520E+03  0.65864270000E+03 0.  0.
    8880022    1    1    2    0    0 -0.93986522932E+02 -0.81386470451E+02 -0.11162435293E+04  0.11335115764E+04  0.15294330000E+03 0. -1.
<mgrwt>
<rscale>  0 0.49358467E+03</rscale>
<asrwt>0</asrwt>
<pdfrwt beam="1">  1        1 0.26446471E+00 0.67027415E+03</pdfrwt>
<pdfrwt beam="2">  1       -1 0.30411399E-01 0.67027415E+03</pdfrwt>
<totfact> 0.47946773E+01</totfact>
</mgrwt>
</event>
<event>
 4    2  0.4681349E-007  0.9984105E+03  0.7818608E-02  0.9383640E-01
          1   -1    0    0  501    0  0.00000000000E+00  0.00000000000E+00  0.19823436395E+04  0.19823436396E+04  0.50400000000E-02 0. -1.
         -1   -1    0    0    0  501 -0.00000000000E+00 -0.00000000000E+00 -0.47093275409E+03  0.47093275411E+03  0.50400000000E-02 0.  1.
    8880023    1    1    2    0    0  0.73661570817E+03 -0.14286581686E+03  0.34183275113E+03  0.10553071492E+04  0.65864270000E+03 0.  0.
    8880022    1    1    2    0    0 -0.73661570817E+03  0.14286581686E+03  0.11695781343E+04  0.13979692445E+04  0.15294330000E+03 0.  0.
<mgrwt>
<rscale>  0 0.93434349E+03</rscale>
<asrwt>0</asrwt>
<pdfrwt beam="1">  1        1 0.30497595E+00 0.99841051E+03</pdfrwt>
<pdfrwt beam="2">  1       -1 0.72451193E-01 0.99841051E+03</pdfrwt>
<totfact> 0.59535017E+00</totfact>
</mgrwt>
</event>
<event>
 4    2  0.4681349E-007  0.8060340E+03  0.7818608E-02  0.9697898E-01
         -1   -1    0    0    0  501 -0.00000000000E+00  0.00000000000E+00  0.41844257591E+03  0.41844257594E+03  0.50400000000E-02 0.  1.
          1   -1    0    0  501    0  0.00000000000E+00 -0.00000000000E+00 -0.10543505860E+04  0.10543505860E+04  0.50400000000E-02 0. -1.
    8880023    1    1    2    0    0 -0.33289518183E+03 -0.32413185961E+03 -0.55089132540E+03  0.97630534321E+03  0.65864270000E+03 0.  1.
    8880022    1    1    2    0    0  0.33289518183E+03  0.32413185961E+03 -0.85016684723E+02  0.49648781878E+03  0.15294330000E+03 0.  0.
<mgrwt>
<rscale>  0 0.71142086E+03</rscale>
<asrwt>0</asrwt>
<pdfrwt beam="1">  1        1 0.16220778E+00 0.80603404E+03</pdfrwt>
<pdfrwt beam="2">  1       -1 0.64375781E-01 0.80603404E+03</pdfrwt>
<totfact> 0.34300466E+01</totfact>
</mgrwt>
</event>
<event>
 4    2  0.4681349E-007  0.7912162E+03  0.7818608E-02  0.9730120E-01
          1   -1    0    0  501    0  0.00000000000E+00  0.00000000000E+00  0.51196189921E+03  0.51196189924E+03  0.50400000000E-02 0. -1.
         -1   -1    0    0    0  501 -0.00000000000E+00 -0.00000000000E+00 -0.12759737226E+04  0.12759737226E+04  0.50400000000E-02 0.  1.
    8880023    1    1    2    0    0  0.20379280409E+03  0.38817699562E+03 -0.99343737541E+03  0.12700161070E+04  0.65864270000E+03 0.  0.
    8880022    1    1    2    0    0 -0.20379280409E+03 -0.38817699562E+03  0.22942555202E+03  0.51791951485E+03  0.15294330000E+03 0.  0.
<mgrwt>
<rscale>  0 0.69251410E+03</rscale>
<asrwt>0</asrwt>
<pdfrwt beam="1">  1        1 0.78763370E-01 0.79121621E+03</pdfrwt>
<pdfrwt beam="2">  1       -1 0.19630365E+00 0.79121621E+03</pdfrwt>
<totfact> 0.70399339E+00</totfact>
</mgrwt>
</event>
<event>
 4    2  0.4681349E-007  0.8890538E+03  0.7818608E-02  0.9543837E-01
         -1   -1    0    0    0  501 -0.00000000000E+00  0.00000000000E+00  0.68167593384E+03  0.68167593386E+03  0.50400000000E-02 0.  1.
          1   -1    0    0  501    0  0.00000000000E+00 -0.00000000000E+00 -0.24919531775E+04  0.24919531775E+04  0.50400000000E-02 0. -1.
    8880023    1    1    2    0    0  0.47882630716E+03 -0.35683578580E+03  0.32848962536E+03  0.94779852853E+03  0.65864270000E+03 0.  1.
    8880022    1    1    2    0    0 -0.47882630716E+03  0.35683578580E+03 -0.21387668690E+04  0.22258305828E+04  0.15294330000E+03 0.  0.
<mgrwt>
<rscale>  0 0.81127613E+03</rscale>
<asrwt>0</asrwt>
<pdfrwt beam="1">  1        1 0.38337741E+00 0.88905378E+03</pdfrwt>
<pdfrwt beam="2">  1       -1 0.10487322E+00 0.88905378E+03</pdfrwt>
<totfact> 0.12156339E+00</totfact>
</mgrwt>
</event>
<event>
 4    2  0.4681349E-007  0.7445440E+03  0.7818608E-02  0.9846903E-01
         -1   -1    0    0    0  501 -0.00000000000E+00  0.00000000000E+00  0.20525534863E+03  0.20525534869E+03  0.50400000000E-02 0.  1.
          1   -1    0    0  501    0  0.00000000000E+00 -0.00000000000E+00 -0.19808885060E+04  0.19808885060E+04  0.50400000000E-02 0. -1.
    8880023    1    1    2    0    0 -0.16019217511E+03  0.30801627605E+03 -0.61697096292E+03  0.96695342940E+03  0.65864270000E+03 0.  0.
    8880022    1    1    2    0    0  0.16019217511E+03 -0.30801627605E+03 -0.11586621945E+04  0.12191904253E+04  0.15294330000E+03 0.  0.
<mgrwt>
<rscale>  0 0.62905069E+03</rscale>
<asrwt>0</asrwt>
<pdfrwt beam="1">  1        1 0.30475206E+00 0.74454400E+03</pdfrwt>
<pdfrwt beam="2">  1       -1 0.31577747E-01 0.74454400E+03</pdfrwt>
<totfact> 0.29711136E+01</totfact>
</mgrwt>
</event>
<event>
 4    2  0.4681349E-007  0.1051896E+04  0.7818608E-02  0.9316606E-01
          1   -1    0    0  501    0  0.00000000000E+00  0.00000000000E+00  0.26190770051E+04  0.26190770051E+04  0.50400000000E-02 0. -1.
         -1   -1    0    0    0  501 -0.00000000000E+00 -0.00000000000E+00 -0.87638579001E+03  0.87638579003E+03  0.50400000000E-02 0.  1.
    8880023    1    1    2    0    0  0.36687760626E+03  0.73353614458E+03 -0.45398783040E+03  0.11456830320E+04  0.65864270000E+03 0.  1.
    8880022    1    1    2    0    0 -0.36687760626E+03 -0.73353614458E+03  0.21966790455E+04  0.23497797632E+04  0.15294330000E+03 0.  0.
<mgrwt>
<rscale>  0 0.99268357E+03</rscale>
<asrwt>0</asrwt>
<pdfrwt beam="1">  1        1 0.40293492E+00 0.10518957E+04</pdfrwt>
<pdfrwt beam="2">  1       -1 0.13482859E+00 0.10518957E+04</pdfrwt>
<totfact> 0.52301191E-01</totfact>
</mgrwt>
</event>
<event>
 4    2  0.4681349E-007  0.1098356E+04  0.7818608E-02  0.9262889E-01
          1   -1    0    0  501    0  0.00000000000E+00  0.00000000000E+00  0.15819150073E+04  0.15819150073E+04  0.50400000000E-02 0. -1.
         -1   -1    0    0    0  501 -0.00000000000E+00 -0.00000000000E+00 -0.11334831176E+04  0.11334831176E+04  0.50400000000E-02 0.  1.
    8880023    1    1    2    0    0  0.84942565483E+03 -0.22594435946E+03  0.11426602348E+04  0.15849471332E+04  0.65864270000E+03 0.  0.
    8880022    1    1    2    0    0 -0.84942565483E+03  0.22594435946E+03 -0.69422834506E+03  0.11304509918E+04  0.15294330000E+03 0.  0.
<mgrwt>
<rscale>  0 0.10427233E+04</rscale>
<asrwt>0</asrwt>
<pdfrwt beam="1">  1        1 0.24337154E+00 0.10983556E+04</pdfrwt>
<pdfrwt beam="2">  1       -1 0.17438202E+00 0.10983556E+04</pdfrwt>
<totfact> 0.13032492E+00</totfact>
</mgrwt>
</event>
<event>
 4    2  0.4681349E-007  0.8095434E+03  0.7818608E-02  0.9690529E-01
         -1   -1    0    0    0  501 -0.00000000000E+00  0.00000000000E+00  0.45268917900E+03  0.45268917903E+03  0.50400000000E-02 0.  1.
          1   -1    0    0  501    0  0.00000000000E+00 -0.00000000000E+00 -0.17229776476E+04  0.17229776476E+04  0.50400000000E-02 0. -1.
    8880023    1    1    2    0    0  0.39854506192E+03  0.25042377313E+03  0.30284539536E+01  0.80954901663E+03  0.65864270000E+03 0.  1.
    8880022    1    1    2    0    0 -0.39854506192E+03 -0.25042377313E+03 -0.12733169226E+04  0.13661178100E+04  0.15294330000E+03 0.  0.
<mgrwt>
<rscale>  0 0.71583506E+03</rscale>
<asrwt>0</asrwt>
<pdfrwt beam="1">  1        1 0.26507348E+00 0.80954335E+03</pdfrwt>
<pdfrwt beam="2">  1       -1 0.69644490E-01 0.80954335E+03</pdfrwt>
<totfact> 0.98969558E+00</totfact>
</mgrwt>
</event>
<event>
 4    2  0.4681349E-007  0.8528098E+03  0.7818608E-02  0.9606484E-01
          1   -1    0    0  501    0  0.00000000000E+00  0.00000000000E+00  0.17017624691E+04  0.17017624691E+04  0.50400000000E-02 0. -1.
         -1   -1    0    0    0  501 -0.00000000000E+00 -0.00000000000E+00 -0.64697039365E+03  0.64697039367E+03  0.50400000000E-02 0.  1.
    8880023    1    1    2    0    0  0.48283526116E+03 -0.24565106814E+03 -0.28202605263E+03  0.89823339802E+03  0.65864270000E+03 0.  0.
    8880022    1    1    2    0    0 -0.48283526116E+03  0.24565106814E+03  0.13368181281E+04  0.14504994648E+04  0.15294330000E+03 0. -1.
<mgrwt>
<rscale>  0 0.76868532E+03</rscale>
<asrwt>0</asrwt>
<pdfrwt beam="1">  1        1 0.26180961E+00 0.85280979E+03</pdfrwt>
<pdfrwt beam="2">  1       -1 0.99533908E-01 0.85280979E+03</pdfrwt>
<totfact> 0.47073380E+00</totfact>
</mgrwt>
</event>
<event>
 4    2  0.4681349E-007  0.9966756E+03  0.7818608E-02  0.9385920E-01
          1   -1    0    0  501    0  0.00000000000E+00  0.00000000000E+00  0.24724295931E+04  0.24724295931E+04  0.50400000000E-02 0. -1.
         -1   -1    0    0    0  501 -0.00000000000E+00 -0.00000000000E+00 -0.70595683244E+03  0.70595683246E+03  0.50400000000E-02 0.  1.
    8880023    1    1    2    0    0  0.63907751655E+03  0.38875687439E+03 -0.24545716031E+03  0.10264557484E+04  0.65864270000E+03 0.  0.
    8880022    1    1    2    0    0 -0.63907751655E+03 -0.38875687439E+03  0.20119299210E+04  0.21519306772E+04  0.15294330000E+03 0.  0.
<mgrwt>
<rscale>  0 0.93243524E+03</rscale>
<asrwt>0</asrwt>
<pdfrwt beam="1">  1        1 0.38037378E+00 0.99667557E+03</pdfrwt>
<pdfrwt beam="2">  1       -1 0.10860874E+00 0.99667557E+03</pdfrwt>
<totfact> 0.11341870E+00</totfact>
</mgrwt>
</event>
<event>
 4    2  0.4681349E-007  0.9346407E+03  0.7818608E-02  0.9472566E-01
         -1   -1    0    0    0  501 -0.00000000000E+00  0.00000000000E+00  0.96080303418E+03  0.96080303419E+03  0.50400000000E-02 0.  1.
          1   -1    0    0  501    0  0.00000000000E+00 -0.00000000000E+00 -0.81479839646E+03  0.81479839647E+03  0.50400000000E-02 0. -1.
    8880023    1    1    2    0    0  0.51346395982E+03 -0.41964000656E+03 -0.27636667742E+03  0.97464440684E+03  0.65864270000E+03 0.  0.
    8880022    1    1    2    0    0 -0.51346395982E+03  0.41964000656E+03  0.42237131514E+03  0.80095702382E+03  0.15294330000E+03 0.  0.
<mgrwt>
<rscale>  0 0.86336992E+03</rscale>
<asrwt>0</asrwt>
<pdfrwt beam="1">  1        1 0.12535360E+00 0.93464067E+03</pdfrwt>
<pdfrwt beam="2">  1       -1 0.14781585E+00 0.93464067E+03</pdfrwt>
<totfact> 0.78630400E+00</totfact>
</mgrwt>
</event>
<event>
 4    2  0.4681349E-007  0.1516382E+04  0.7818608E-02  0.8898154E-01
          1   -1    0    0  501    0  0.00000000000E+00  0.00000000000E+00  0.28910750133E+04  0.28910750133E+04  0.50400000000E-02 0. -1.
         -1   -1    0    0    0  501 -0.00000000000E+00 -0.00000000000E+00 -0.10207716697E+04  0.10207716697E+04  0.50400000000E-02 0.  1.
    8880023    1    1    2    0    0  0.13657504788E+04  0.18186940731E+02 -0.88496800793E+02  0.15189624832E+04  0.65864270000E+03 0.  0.
    8880022    1    1    2    0    0 -0.13657504788E+04 -0.18186940731E+02  0.19588001444E+04  0.23928841999E+04  0.15294330000E+03 0.  0.
<mgrwt>
<rscale>  0 0.14795697E+04</rscale>
<asrwt>0</asrwt>
<pdfrwt beam="1">  1        1 0.44478077E+00 0.15163823E+04</pdfrwt>
<pdfrwt beam="2">  1       -1 0.15704180E+00 0.15163823E+04</pdfrwt>
<totfact> 0.20938420E-01</totfact>
</mgrwt>
</event>
<event>
 4    2  0.4681349E-007  0.7522722E+03  0.7818608E-02  0.9825541E-01
          1   -1    0    0  501    0  0.00000000000E+00  0.00000000000E+00  0.36607009052E+03  0.36607009055E+03  0.50400000000E-02 0. -1.
         -1   -1    0    0    0  501 -0.00000000000E+00 -0.00000000000E+00 -0.95697922696E+03  0.95697922697E+03  0.50400000000E-02 0.  1.
    8880023    1    1    2    0    0 -0.32158637230E+03 -0.16936773993E+03 -0.53873760997E+03  0.92528462909E+03  0.65864270000E+03 0.  1.
    8880022    1    1    2    0    0  0.32158637230E+03  0.16936773993E+03 -0.52171526468E+02  0.39776468843E+03  0.15294330000E+03 0. -1.
<mgrwt>
<rscale>  0 0.64009696E+03</rscale>
<asrwt>0</asrwt>
<pdfrwt beam="1">  1        1 0.56318476E-01 0.75227218E+03</pdfrwt>
<pdfrwt beam="2">  1       -1 0.14722757E+00 0.75227218E+03</pdfrwt>
<totfact> 0.25355898E+01</totfact>
</mgrwt>
</event>
<event>
 4    2  0.4681349E-007  0.8367805E+03  0.7818608E-02  0.9636281E-01
          1   -1    0    0  501    0  0.00000000000E+00  0.00000000000E+00  0.55035185344E+03  0.55035185346E+03  0.50400000000E-02 0. -1.
         -1   -1    0    0    0  501 -0.00000000000E+00 -0.00000000000E+00 -0.20892082932E+04  0.20892082932E+04  0.50400000000E-02 0.  1.
    8880023    1    1    2    0    0  0.42937586125E+03  0.28640493854E+03 -0.18410010477E+04  0.20222478787E+04  0.65864270000E+03 0.  1.
    8880022    1    1    2    0    0 -0.42937586125E+03 -0.28640493854E+03  0.30214460794E+03  0.61731226796E+03  0.15294330000E+03 0.  0.
<mgrwt>
<rscale>  0 0.74940708E+03</rscale>
<asrwt>0</asrwt>
<pdfrwt beam="1">  1        1 0.84669517E-01 0.83678051E+03</pdfrwt>
<pdfrwt beam="2">  1       -1 0.32141666E+00 0.83678051E+03</pdfrwt>
<totfact> 0.96828757E-01</totfact>
</mgrwt>
</event>
<event>
 4    2  0.4681349E-007  0.6629239E+03  0.7818608E-02  0.1021343E+00
          1   -1    0    0  501    0  0.00000000000E+00  0.00000000000E+00  0.14231026169E+04  0.14231026169E+04  0.50400000000E-02 0. -1.
         -1   -1    0    0    0  501 -0.00000000000E+00 -0.00000000000E+00 -0.63735379798E+03  0.63735379800E+03  0.50400000000E-02 0.  1.
    8880023    1    1    2    0    0 -0.67708563218E+02 -0.32763114119E+02 -0.45757299653E+03  0.80550675019E+03  0.65864270000E+03 0.  1.
    8880022    1    1    2    0    0  0.67708563218E+02  0.32763114119E+02  0.12433218154E+04  0.12549496647E+04  0.15294330000E+03 0.  0.
<mgrwt>
<rscale>  0 0.47205231E+03</rscale>
<asrwt>0</asrwt>
<pdfrwt beam="1">  1        1 0.21893886E+00 0.66292389E+03</pdfrwt>
<pdfrwt beam="2">  1       -1 0.98054432E-01 0.66292389E+03</pdfrwt>
<totfact> 0.77741591E+00</totfact>
</mgrwt>
</event>
<event>
 4    2  0.4681349E-007  0.6645169E+03  0.7818608E-02  0.1019942E+00
         -1   -1    0    0    0  501 -0.00000000000E+00  0.00000000000E+00  0.38694435523E+03  0.38694435526E+03  0.50400000000E-02 0.  1.
          1   -1    0    0  501    0  0.00000000000E+00 -0.00000000000E+00 -0.12839560806E+04  0.12839560806E+04  0.50400000000E-02 0. -1.
    8880023    1    1    2    0    0  0.19069360637E+02 -0.86075090123E+02  0.87888948362E+02  0.67030383794E+03  0.65864270000E+03 0.  1.
    8880022    1    1    2    0    0 -0.19069360637E+02  0.86075090123E+02 -0.98490067373E+03  0.10005965979E+04  0.15294330000E+03 0.  0.
<mgrwt>
<rscale>  0 0.47707490E+03</rscale>
<asrwt>0</asrwt>
<pdfrwt beam="1">  1        1 0.19753170E+00 0.66451694E+03</pdfrwt>
<pdfrwt beam="2">  1       -1 0.59529901E-01 0.66451694E+03</pdfrwt>
<totfact> 0.27675045E+01</totfact>
</mgrwt>
</event>
<event>
 4    2  0.4681349E-007  0.6603997E+03  0.7818608E-02  0.1023751E+00
         -1   -1    0    0    0  501 -0.00000000000E+00  0.00000000000E+00  0.19355165282E+03  0.19355165288E+03  0.50400000000E-02 0.  1.
          1   -1    0    0  501    0  0.00000000000E+00 -0.00000000000E+00 -0.13526906657E+04  0.13526906658E+04  0.50400000000E-02 0. -1.
    8880023    1    1    2    0    0 -0.60041666475E+01  0.47765677969E+02 -0.40379162399E+03  0.77406426857E+03  0.65864270000E+03 0.  1.
    8880022    1    1    2    0    0  0.60041666475E+01 -0.47765677969E+02 -0.75534738894E+03  0.77217805006E+03  0.15294330000E+03 0.  0.
<mgrwt>
<rscale>  0 0.46357112E+03</rscale>
<asrwt>0</asrwt>
<pdfrwt beam="1">  1        1 0.20810625E+00 0.66039974E+03</pdfrwt>
<pdfrwt beam="2">  1       -1 0.29777178E-01 0.66039974E+03</pdfrwt>
<totfact> 0.88449615E+01</totfact>
</mgrwt>
</event>
<event>
 4    2  0.4681349E-007  0.7550662E+03  0.7818608E-02  0.9818052E-01
         -1   -1    0    0    0  501 -0.00000000000E+00  0.00000000000E+00  0.29656510476E+03  0.29656510480E+03  0.50400000000E-02 0.  1.
          1   -1    0    0  501    0  0.00000000000E+00 -0.00000000000E+00 -0.16264055173E+04  0.16264055173E+04  0.50400000000E-02 0. -1.
    8880023    1    1    2    0    0  0.25002685870E+03  0.27166405848E+03 -0.28975915373E+03  0.80875544151E+03  0.65864270000E+03 0.  1.
    8880022    1    1    2    0    0 -0.25002685870E+03 -0.27166405848E+03 -0.10400812588E+04  0.11142151806E+04  0.15294330000E+03 0.  0.
<mgrwt>
<rscale>  0 0.64402702E+03</rscale>
<asrwt>0</asrwt>
<pdfrwt beam="1">  1        1 0.25021623E+00 0.75506622E+03</pdfrwt>
<pdfrwt beam="2">  1       -1 0.45625402E-01 0.75506622E+03</pdfrwt>
<totfact> 0.26398621E+01</totfact>
</mgrwt>
</event>
<event>
 4    2  0.4681349E-007  0.9190817E+03  0.7818608E-02  0.9496068E-01
         -1   -1    0    0    0  501 -0.00000000000E+00  0.00000000000E+00  0.64417573332E+03  0.64417573334E+03  0.50400000000E-02 0.  1.
          1   -1    0    0  501    0  0.00000000000E+00 -0.00000000000E+00 -0.10913907037E+04  0.10913907037E+04  0.50400000000E-02 0. -1.
    8880023    1    1    2    0    0 -0.44887075312E+03  0.45761994371E+03  0.33765872306E+02  0.91970174855E+03  0.65864270000E+03 0.  0.
    8880022    1    1    2    0    0  0.44887075312E+03 -0.45761994371E+03 -0.48098084268E+03  0.81586468849E+03  0.15294330000E+03 0.  0.
<mgrwt>
<rscale>  0 0.84574297E+03</rscale>
<asrwt>0</asrwt>
<pdfrwt beam="1">  1        1 0.16790626E+00 0.91908170E+03</pdfrwt>
<pdfrwt beam="2">  1       -1 0.99103959E-01 0.91908170E+03</pdfrwt>
<totfact> 0.12664930E+01</totfact>
</mgrwt>
</event>
<event>
 4    2  0.4681349E-007  0.7701831E+03  0.7818608E-02  0.9779424E-01
         -1   -1    0    0    0  501 -0.00000000000E+00  0.00000000000E+00  0.77119766299E+03  0.77119766301E+03  0.50400000000E-02 0.  1.
          1   -1    0    0  501    0  0.00000000000E+00 -0.00000000000E+00 -0.49969499139E+03  0.49969499141E+03  0.50400000000E-02 0. -1.
    8880023    1    1    2    0    0 -0.39911863041E+03 -0.87202876574E+01  0.33280406674E+03  0.83901160758E+03  0.65864270000E+03 0.  1.
    8880022    1    1    2    0    0  0.39911863041E+03  0.87202876574E+01 -0.61301395139E+02  0.43188104684E+03  0.15294330000E+03 0. -1.
<mgrwt>
<rscale>  0 0.66478562E+03</rscale>
<asrwt>0</asrwt>
<pdfrwt beam="1">  1        1 0.76876152E-01 0.77018305E+03</pdfrwt>
<pdfrwt beam="2">  1       -1 0.11864579E+00 0.77018305E+03</pdfrwt>
<totfact> 0.28859058E+01</totfact>
</mgrwt>
</event>
<event>
 4    2  0.4681349E-007  0.6971124E+03  0.7818608E-02  0.1000940E+00
          1   -1    0    0  501    0  0.00000000000E+00  0.00000000000E+00  0.24704143532E+04  0.24704143532E+04  0.50400000000E-02 0. -1.
         -1   -1    0    0    0  501 -0.00000000000E+00 -0.00000000000E+00 -0.34342660096E+03  0.34342660099E+03  0.50400000000E-02 0.  1.
    8880023    1    1    2    0    0  0.86612461247E+02 -0.21131434210E+03  0.28779170860E+02  0.69770618211E+03  0.65864270000E+03 0.  1.
    8880022    1    1    2    0    0 -0.86612461247E+02  0.21131434210E+03  0.20982085814E+04  0.21161347721E+04  0.15294330000E+03 0.  0.
<mgrwt>
<rscale>  0 0.55240085E+03</rscale>
<asrwt>0</asrwt>
<pdfrwt beam="1">  1        1 0.38006376E+00 0.69711238E+03</pdfrwt>
<pdfrwt beam="2">  1       -1 0.52834860E-01 0.69711238E+03</pdfrwt>
<totfact> 0.54779414E+00</totfact>
</mgrwt>
</event>
<event>
 4    2  0.4681349E-007  0.7735882E+03  0.7818608E-02  0.9771120E-01
         -1   -1    0    0    0  501 -0.00000000000E+00  0.00000000000E+00  0.74947263817E+03  0.74947263819E+03  0.50400000000E-02 0.  1.
          1   -1    0    0  501    0  0.00000000000E+00 -0.00000000000E+00 -0.59968815506E+03  0.59968815508E+03  0.50400000000E-02 0. -1.
    8880023    1    1    2    0    0  0.10545362661E+03  0.39180096457E+03  0.37595752835E+03  0.86010623332E+03  0.65864270000E+03 0.  0.
    8880022    1    1    2    0    0 -0.10545362661E+03 -0.39180096457E+03 -0.22617304525E+03  0.48905455995E+03  0.15294330000E+03 0.  0.
<mgrwt>
<rscale>  0 0.66935715E+03</rscale>
<asrwt>0</asrwt>
<pdfrwt beam="1">  1        1 0.92259717E-01 0.77358818E+03</pdfrwt>
<pdfrwt beam="2">  1       -1 0.11530348E+00 0.77358818E+03</pdfrwt>
<totfact> 0.23914431E+01</totfact>
</mgrwt>
</event>
<event>
 4    2  0.4681349E-007  0.7853728E+03  0.7818608E-02  0.9743364E-01
         -1   -1    0    0    0  501 -0.00000000000E+00  0.00000000000E+00  0.44231461228E+03  0.44231461231E+03  0.50400000000E-02 0.  1.
          1   -1    0    0  501    0  0.00000000000E+00 -0.00000000000E+00 -0.13661372564E+04  0.13661372564E+04  0.50400000000E-02 0. -1.
    8880023    1    1    2    0    0  0.18742519468E+03  0.38454123001E+03 -0.10735080487E+04  0.13301240161E+04  0.65864270000E+03 0. -1.
    8880022    1    1    2    0    0 -0.18742519468E+03 -0.38454123001E+03  0.14968540467E+03  0.47832785259E+03  0.15294330000E+03 0.  0.
<mgrwt>
<rscale>  0 0.68492565E+03</rscale>
<asrwt>0</asrwt>
<pdfrwt beam="1">  1        1 0.21017496E+00 0.78537276E+03</pdfrwt>
<pdfrwt beam="2">  1       -1 0.68048403E-01 0.78537276E+03</pdfrwt>
<totfact> 0.18258351E+01</totfact>
</mgrwt>
</event>
<event>
 4    2  0.4681349E-007  0.7233010E+03  0.7818608E-02  0.9911571E-01
          1   -1    0    0  501    0  0.00000000000E+00  0.00000000000E+00  0.22286914440E+03  0.22286914446E+03  0.50400000000E-02 0. -1.
         -1   -1    0    0    0  501 -0.00000000000E+00 -0.00000000000E+00 -0.14749707054E+04  0.14749707054E+04  0.50400000000E-02 0.  1.
    8880023    1    1    2    0    0  0.78230632337E+02  0.28850311183E+03 -0.11277635297E+04  0.13397816473E+04  0.65864270000E+03 0.  0.
    8880022    1    1    2    0    0 -0.78230632337E+02 -0.28850311183E+03 -0.12433803135E+03  0.35805820257E+03  0.15294330000E+03 0.  1.
<mgrwt>
<rscale>  0 0.59703776E+03</rscale>
<asrwt>0</asrwt>
<pdfrwt beam="1">  1        1 0.34287562E-01 0.72330096E+03</pdfrwt>
<pdfrwt beam="2">  1       -1 0.22691856E+00 0.72330096E+03</pdfrwt>
<totfact> 0.13214594E+01</totfact>
</mgrwt>
</event>
<event>
 4    2  0.4681349E-007  0.1454136E+04  0.7818608E-02  0.8942720E-01
         -1   -1    0    0    0  501 -0.00000000000E+00  0.00000000000E+00  0.11170066609E+04  0.11170066609E+04  0.50400000000E-02 0.  1.
          1   -1    0    0  501    0  0.00000000000E+00 -0.00000000000E+00 -0.23239015715E+04  0.23239015715E+04  0.50400000000E-02 0. -1.
    8880023    1    1    2    0    0  0.11238741831E+04  0.64622531061E+03  0.26007991888E+03  0.14772109200E+04  0.65864270000E+03 0.  0.
    8880022    1    1    2    0    0 -0.11238741831E+04 -0.64622531061E+03 -0.14669748295E+04  0.19636973124E+04  0.15294330000E+03 0.  0.
<mgrwt>
<rscale>  0 0.14154363E+04</rscale>
<asrwt>0</asrwt>
<pdfrwt beam="1">  1        1 0.35752332E+00 0.14541357E+04</pdfrwt>
<pdfrwt beam="2">  1       -1 0.17184718E+00 0.14541357E+04</pdfrwt>
<totfact> 0.40713908E-01</totfact>
</mgrwt>
</event>
<event>
 4    2  0.4681349E-007  0.1476432E+04  0.7818608E-02  0.8926460E-01
         -1   -1    0    0    0  501 -0.00000000000E+00  0.00000000000E+00  0.14141119386E+04  0.14141119387E+04  0.50400000000E-02 0.  1.
          1   -1    0    0  501    0  0.00000000000E+00 -0.00000000000E+00 -0.34589821746E+04  0.34589821746E+04  0.50400000000E-02 0. -1.
    8880023    1    1    2    0    0 -0.53969196487E+03 -0.12061398643E+04  0.83832842544E+03  0.16978355469E+04  0.65864270000E+03 0.  0.
    8880022    1    1    2    0    0  0.53969196487E+03  0.12061398643E+04 -0.28831986614E+04  0.31752585664E+04  0.15294330000E+03 0.  0.
<mgrwt>
<rscale>  0 0.14384319E+04</rscale>
<asrwt>0</asrwt>
<pdfrwt beam="1">  1        1 0.53215110E+00 0.14764318E+04</pdfrwt>
<pdfrwt beam="2">  1       -1 0.21755568E+00 0.14764318E+04</pdfrwt>
<totfact> 0.29336639E-02</totfact>
</mgrwt>
</event>
<event>
 4    2  0.4681349E-007  0.8510358E+03  0.7818608E-02  0.9609712E-01
          1   -1    0    0  501    0  0.00000000000E+00  0.00000000000E+00  0.43525741199E+03  0.43525741202E+03  0.50400000000E-02 0. -1.
         -1   -1    0    0    0  501 -0.00000000000E+00 -0.00000000000E+00 -0.15321442519E+04  0.15321442519E+04  0.50400000000E-02 0.  1.
    8880023    1    1    2    0    0 -0.16657713680E+03  0.51254629368E+03 -0.11200701181E+04  0.14067049874E+04  0.65864270000E+03 0.  1.
    8880022    1    1    2    0    0  0.16657713680E+03 -0.51254629368E+03  0.23183278250E+02  0.56069667653E+03  0.15294330000E+03 0.  0.
<mgrwt>
<rscale>  0 0.76656672E+03</rscale>
<asrwt>0</asrwt>
<pdfrwt beam="1">  1        1 0.66962679E-01 0.85103575E+03</pdfrwt>
<pdfrwt beam="2">  1       -1 0.23571450E+00 0.85103575E+03</pdfrwt>
<totfact> 0.47489566E+00</totfact>
</mgrwt>
</event>
<event>
 4    2  0.4681349E-007  0.6618486E+03  0.7818608E-02  0.1022338E+00
          1   -1    0    0  501    0  0.00000000000E+00  0.00000000000E+00  0.15656770386E+04  0.15656770386E+04  0.50400000000E-02 0. -1.
         -1   -1    0    0    0  501 -0.00000000000E+00 -0.00000000000E+00 -0.12293270745E+03  0.12293270756E+03  0.50400000000E-02 0.  1.
    8880023    1    1    2    0    0  0.44544471741E+02 -0.47425630852E+02  0.87550369309E+03  0.10975200788E+04  0.65864270000E+03 0.  1.
    8880022    1    1    2    0    0 -0.44544471741E+02  0.47425630852E+02  0.56724063809E+03  0.59108966743E+03  0.15294330000E+03 0.  0.
<mgrwt>
<rscale>  0 0.46852406E+03</rscale>
<asrwt>0</asrwt>
<pdfrwt beam="1">  1        1 0.24087336E+00 0.66184863E+03</pdfrwt>
<pdfrwt beam="2">  1       -1 0.18912727E-01 0.66184863E+03</pdfrwt>
<totfact> 0.13620411E+02</totfact>
</mgrwt>
</event>
<event>
 4    2  0.4681349E-007  0.6757306E+03  0.7818608E-02  0.1011850E+00
         -1   -1    0    0    0  501 -0.00000000000E+00  0.00000000000E+00  0.74792539525E+03  0.74792539527E+03  0.50400000000E-02 0.  1.
          1   -1    0    0  501    0  0.00000000000E+00 -0.00000000000E+00 -0.70928420593E+03  0.70928420595E+03  0.50400000000E-02 0. -1.
    8880023    1    1    2    0    0 -0.82345869801E+02  0.12657310741E+03  0.56999868680E+03  0.88403071384E+03  0.65864270000E+03 0.  1.
    8880022    1    1    2    0    0  0.82345869801E+02 -0.12657310741E+03 -0.53135749748E+03  0.57317888738E+03  0.15294330000E+03 0.  0.
<mgrwt>
<rscale>  0 0.50746078E+03</rscale>
<asrwt>0</asrwt>
<pdfrwt beam="1">  1        1 0.10912065E+00 0.67573057E+03</pdfrwt>
<pdfrwt beam="2">  1       -1 0.11506544E+00 0.67573057E+03</pdfrwt>
<totfact> 0.18971630E+01</totfact>
</mgrwt>
</event>
<event>
 4    2  0.4681349E-007  0.1075603E+04  0.7818608E-02  0.9288718E-01
          1   -1    0    0  501    0  0.00000000000E+00  0.00000000000E+00  0.34265891366E+04  0.34265891366E+04  0.50400000000E-02 0. -1.
         -1   -1    0    0    0  501 -0.00000000000E+00 -0.00000000000E+00 -0.35810798607E+03  0.35810798610E+03  0.50400000000E-02 0.  1.
    8880023    1    1    2    0    0 -0.16469344971E+03 -0.83425872887E+03  0.75221972511E+03  0.13125381062E+04  0.65864270000E+03 0.  0.
    8880022    1    1    2    0    0  0.16469344971E+03  0.83425872887E+03  0.23162614254E+04  0.24721590165E+04  0.15294330000E+03 0.  0.
<mgrwt>
<rscale>  0 0.10182817E+04</rscale>
<asrwt>0</asrwt>
<pdfrwt beam="1">  1        1 0.52716754E+00 0.10756030E+04</pdfrwt>
<pdfrwt beam="2">  1       -1 0.55093538E-01 0.10756030E+04</pdfrwt>
<totfact> 0.97409845E-01</totfact>
</mgrwt>
</event>
<event>
 4    2  0.4681349E-007  0.9866894E+03  0.7818608E-02  0.9399183E-01
          1   -1    0    0  501    0  0.00000000000E+00  0.00000000000E+00  0.11648183517E+04  0.11648183517E+04  0.50400000000E-02 0. -1.
         -1   -1    0    0    0  501 -0.00000000000E+00 -0.00000000000E+00 -0.11330231182E+04  0.11330231182E+04  0.50400000000E-02 0.  1.
    8880023    1    1    2    0    0 -0.36813900426E+03  0.63578255847E+03 -0.73086608231E+03  0.12278930021E+04  0.65864270000E+03 0.  1.
    8880022    1    1    2    0    0  0.36813900426E+03 -0.63578255847E+03  0.76266131580E+03  0.10699484678E+04  0.15294330000E+03 0.  0.
<mgrwt>
<rscale>  0 0.92142958E+03</rscale>
<asrwt>0</asrwt>
<pdfrwt beam="1">  1        1 0.17920282E+00 0.98668941E+03</pdfrwt>
<pdfrwt beam="2">  1       -1 0.17431125E+00 0.98668941E+03</pdfrwt>
<totfact> 0.26095843E+00</totfact>
</mgrwt>
</event>
<event>
 4    2  0.4681349E-007  0.8155781E+03  0.7818608E-02  0.9678073E-01
          1   -1    0    0  501    0  0.00000000000E+00  0.00000000000E+00  0.99175404106E+03  0.99175404107E+03  0.50400000000E-02 0. -1.
         -1   -1    0    0    0  501 -0.00000000000E+00 -0.00000000000E+00 -0.87304958903E+03  0.87304958904E+03  0.50400000000E-02 0.  1.
    8880023    1    1    2    0    0 -0.75656554493E+02 -0.47500904363E+03 -0.58149688554E+03  0.10016518057E+04  0.65864270000E+03 0.  1.
    8880022    1    1    2    0    0  0.75656554493E+02  0.47500904363E+03  0.70020133757E+03  0.86315182438E+03  0.15294330000E+03 0.  0.
<mgrwt>
<rscale>  0 0.72337464E+03</rscale>
<asrwt>0</asrwt>
<pdfrwt beam="1">  1        1 0.15257754E+00 0.81557815E+03</pdfrwt>
<pdfrwt beam="2">  1       -1 0.13431532E+00 0.81557815E+03</pdfrwt>
<totfact> 0.73448836E+00</totfact>
</mgrwt>
</event>
<event>
 4    2  0.4681349E-007  0.9132788E+03  0.7818608E-02  0.9505042E-01
          1   -1    0    0  501    0  0.00000000000E+00  0.00000000000E+00  0.32528310396E+03  0.32528310400E+03  0.50400000000E-02 0. -1.
         -1   -1    0    0    0  501 -0.00000000000E+00 -0.00000000000E+00 -0.19377261506E+04  0.19377261506E+04  0.50400000000E-02 0.  1.
    8880023    1    1    2    0    0 -0.59463691475E+03  0.21604382463E+03 -0.74549112817E+03  0.11789127292E+04  0.65864270000E+03 0.  0.
    8880022    1    1    2    0    0  0.59463691475E+03 -0.21604382463E+03 -0.86695191851E+03  0.10840965255E+04  0.15294330000E+03 0.  0.
<mgrwt>
<rscale>  0 0.83913083E+03</rscale>
<asrwt>0</asrwt>
<pdfrwt beam="1">  1        1 0.50043556E-01 0.91327882E+03</pdfrwt>
<pdfrwt beam="2">  1       -1 0.29811171E+00 0.91327882E+03</pdfrwt>
<totfact> 0.27460087E+00</totfact>
</mgrwt>
</event>
<event>
 4    2  0.4681349E-007  0.8156448E+03  0.7818608E-02  0.9677937E-01
         -1   -1    0    0    0  501 -0.00000000000E+00  0.00000000000E+00  0.14684950828E+04  0.14684950828E+04  0.50400000000E-02 0.  1.
          1   -1    0    0  501    0  0.00000000000E+00 -0.00000000000E+00 -0.32139388349E+03  0.32139388353E+03  0.50400000000E-02 0. -1.
    8880023    1    1    2    0    0  0.42123980959E+03  0.23242909631E+03  0.93916433077E+03  0.12439075964E+04  0.65864270000E+03 0. -1.
    8880022    1    1    2    0    0 -0.42123980959E+03 -0.23242909631E+03  0.20793686856E+03  0.54598136993E+03  0.15294330000E+03 0.  0.
<mgrwt>
<rscale>  0 0.72345759E+03</rscale>
<asrwt>0</asrwt>
<pdfrwt beam="1">  1        1 0.49445213E-01 0.81564482E+03</pdfrwt>
<pdfrwt beam="2">  1       -1 0.22592232E+00 0.81564482E+03</pdfrwt>
<totfact> 0.82579188E+00</totfact>
</mgrwt>
</event>
<event>
 4    2  0.4681349E-007  0.7122500E+03  0.7818608E-02  0.9949739E-01
          1   -1    0    0  501    0  0.00000000000E+00  0.00000000000E+00  0.82711105140E+03  0.82711105142E+03  0.50400000000E-02 0. -1.
         -1   -1    0    0    0  501 -0.00000000000E+00 -0.00000000000E+00 -0.64531112408E+03  0.64531112410E+03  0.50400000000E-02 0.  1.
    8880023    1    1    2    0    0 -0.23428225925E+03  0.13638799325E+03 -0.39686732347E+03  0.81535497816E+03  0.65864270000E+03 0.  1.
    8880022    1    1    2    0    0  0.23428225925E+03 -0.13638799325E+03  0.57866725079E+03  0.65706719736E+03  0.15294330000E+03 0.  0.
<mgrwt>
<rscale>  0 0.57910119E+03</rscale>
<asrwt>0</asrwt>
<pdfrwt beam="1">  1        1 0.12724785E+00 0.71225000E+03</pdfrwt>
<pdfrwt beam="2">  1       -1 0.99278635E-01 0.71225000E+03</pdfrwt>
<totfact> 0.20949629E+01</totfact>
</mgrwt>
</event>
<event>
 4    2  0.4681349E-007  0.1024048E+04  0.7818608E-02  0.9350750E-01
          1   -1    0    0  501    0  0.00000000000E+00  0.00000000000E+00  0.12645394892E+04  0.12645394892E+04  0.50400000000E-02 0. -1.
         -1   -1    0    0    0  501 -0.00000000000E+00 -0.00000000000E+00 -0.18869550814E+04  0.18869550814E+04  0.50400000000E-02 0.  1.
    8880023    1    1    2    0    0  0.49461562704E+03 -0.60845651068E+03 -0.15933965843E+04  0.18940926126E+04  0.65864270000E+03 0.  1.
    8880022    1    1    2    0    0 -0.49461562704E+03  0.60845651068E+03  0.97098099212E+03  0.12574019580E+04  0.15294330000E+03 0.  0.
<mgrwt>
<rscale>  0 0.96241978E+03</rscale>
<asrwt>0</asrwt>
<pdfrwt beam="1">  1        1 0.19454454E+00 0.10240479E+04</pdfrwt>
<pdfrwt beam="2">  1       -1 0.29030078E+00 0.10240479E+04</pdfrwt>
<totfact> 0.36976650E-01</totfact>
</mgrwt>
</event>
<event>
 4    2  0.4681349E-007  0.1222344E+04  0.7818608E-02  0.9135702E-01
          1   -1    0    0  501    0  0.00000000000E+00  0.00000000000E+00  0.13049499676E+04  0.13049499676E+04  0.50400000000E-02 0. -1.
         -1   -1    0    0    0  501 -0.00000000000E+00 -0.00000000000E+00 -0.13624651797E+04  0.13624651797E+04  0.50400000000E-02 0.  1.
    8880023    1    1    2    0    0  0.57902654017E+02  0.10280870762E+04 -0.73411009710E+03  0.14258483771E+04  0.65864270000E+03 0.  1.
    8880022    1    1    2    0    0 -0.57902654017E+02 -0.10280870762E+04  0.67659488498E+03  0.12415667702E+04  0.15294330000E+03 0.  0.
<mgrwt>
<rscale>  0 0.11742463E+04</rscale>
<asrwt>0</asrwt>
<pdfrwt beam="1">  1        1 0.20076153E+00 0.12223445E+04</pdfrwt>
<pdfrwt beam="2">  1       -1 0.20961003E+00 0.12223445E+04</pdfrwt>
<totfact> 0.11342130E+00</totfact>
</mgrwt>
</event>
<event>
 4    2  0.4681349E-007  0.9838291E+03  0.7818608E-02  0.9403027E-01
         -1   -1    0    0    0  501 -0.00000000000E+00  0.00000000000E+00  0.16575056891E+04  0.16575056891E+04  0.50400000000E-02 0.  1.
          1   -1    0    0  501    0  0.00000000000E+00 -0.00000000000E+00 -0.82393958413E+03  0.82393958415E+03  0.50400000000E-02 0. -1.
    8880023    1    1    2    0    0  0.67977961104E+03 -0.26834533620E+03  0.12777699649E+04  0.16126424987E+04  0.65864270000E+03 0.  1.
    8880022    1    1    2    0    0 -0.67977961104E+03  0.26834533620E+03 -0.44420385989E+03  0.86880277463E+03  0.15294330000E+03 0.  0.
<mgrwt>
<rscale>  0 0.91827018E+03</rscale>
<asrwt>0</asrwt>
<pdfrwt beam="1">  1        1 0.12675994E+00 0.98382912E+03</pdfrwt>
<pdfrwt beam="2">  1       -1 0.25500088E+00 0.98382912E+03</pdfrwt>
<totfact> 0.13778414E+00</totfact>
</mgrwt>
</event>
<event>
 4    2  0.4681349E-007  0.7589533E+03  0.7818608E-02  0.9807825E-01
          1   -1    0    0  501    0  0.00000000000E+00  0.00000000000E+00  0.15863308825E+04  0.15863308825E+04  0.50400000000E-02 0. -1.
         -1   -1    0    0    0  501 -0.00000000000E+00 -0.00000000000E+00 -0.22365408113E+03  0.22365408119E+03  0.50400000000E-02 0.  1.
    8880023    1    1    2    0    0 -0.95016780262E+02 -0.36492693676E+03  0.70079311728E+03  0.10330155164E+04  0.65864270000E+03 0.  1.
    8880022    1    1    2    0    0  0.95016780262E+02  0.36492693676E+03  0.66188368410E+03  0.77696944727E+03  0.15294330000E+03 0. -1.
<mgrwt>
<rscale>  0 0.64944299E+03</rscale>
<asrwt>0</asrwt>
<pdfrwt beam="1">  1        1 0.24405091E+00 0.75895327E+03</pdfrwt>
<pdfrwt beam="2">  1       -1 0.34408320E-01 0.75895327E+03</pdfrwt>
<totfact> 0.46910578E+01</totfact>
</mgrwt>
</event>
<event>
 4    2  0.4681349E-007  0.6721474E+03  0.7818608E-02  0.1014168E+00
         -1   -1    0    0    0  501 -0.00000000000E+00  0.00000000000E+00  0.82603753538E+03  0.82603753540E+03  0.50400000000E-02 0.  1.
          1   -1    0    0  501    0  0.00000000000E+00 -0.00000000000E+00 -0.58645235780E+03  0.58645235782E+03  0.50400000000E-02 0. -1.
    8880023    1    1    2    0    0  0.73866277097E+02 -0.11187370871E+03  0.66215712638E+03  0.94352224133E+03  0.65864270000E+03 0.  1.
    8880022    1    1    2    0    0 -0.73866277097E+02  0.11187370871E+03 -0.42257194880E+03  0.46896765189E+03  0.15294330000E+03 0.  0.
<mgrwt>
<rscale>  0 0.49851210E+03</rscale>
<asrwt>0</asrwt>
<pdfrwt beam="1">  1        1 0.90223440E-01 0.67214742E+03</pdfrwt>
<pdfrwt beam="2">  1       -1 0.12708270E+00 0.67214742E+03</pdfrwt>
<totfact> 0.19688174E+01</totfact>
</mgrwt>
</event>
<event>
 4    2  0.4681349E-007  0.6933920E+03  0.7818608E-02  0.1002580E+00
          1   -1    0    0  501    0  0.00000000000E+00  0.00000000000E+00  0.63358902848E+03  0.63358902850E+03  0.50400000000E-02 0. -1.
         -1   -1    0    0    0  501 -0.00000000000E+00 -0.00000000000E+00 -0.36496645067E+03  0.36496645070E+03  0.50400000000E-02 0.  1.
    8880023    1    1    2    0    0  0.15611111792E+03  0.15037132504E+03  0.15819559541E+03  0.71120901935E+03  0.65864270000E+03 0.  0.
    8880022    1    1    2    0    0 -0.15611111792E+03 -0.15037132504E+03  0.11042698241E+03  0.28734645985E+03  0.15294330000E+03 0.  1.
<mgrwt>
<rscale>  0 0.54533144E+03</rscale>
<asrwt>0</asrwt>
<pdfrwt beam="1">  1        1 0.97475234E-01 0.69339197E+03</pdfrwt>
<pdfrwt beam="2">  1       -1 0.56148685E-01 0.69339197E+03</pdfrwt>
<totfact> 0.10375351E+02</totfact>
</mgrwt>
</event>
<event>
 4    2  0.4681349E-007  0.6856600E+03  0.7818608E-02  0.1006288E+00
          1   -1    0    0  501    0  0.00000000000E+00  0.00000000000E+00  0.93080307398E+03  0.93080307399E+03  0.50400000000E-02 0. -1.
         -1   -1    0    0    0  501 -0.00000000000E+00 -0.00000000000E+00 -0.64792409925E+03  0.64792409927E+03  0.50400000000E-02 0.  1.
    8880023    1    1    2    0    0  0.17645852116E+03  0.71984483086E+02 -0.44065080689E+03  0.81504767674E+03  0.65864270000E+03 0.  1.
    8880022    1    1    2    0    0 -0.17645852116E+03 -0.71984483086E+02  0.72352978162E+03  0.76367949651E+03  0.15294330000E+03 0.  0.
<mgrwt>
<rscale>  0 0.52977128E+03</rscale>
<asrwt>0</asrwt>
<pdfrwt beam="1">  1        1 0.14320047E+00 0.68565996E+03</pdfrwt>
<pdfrwt beam="2">  1       -1 0.99680630E-01 0.68565996E+03</pdfrwt>
<totfact> 0.17115204E+01</totfact>
</mgrwt>
</event>
<event>
 4    2  0.4681349E-007  0.9593423E+03  0.7818608E-02  0.9436798E-01
          1   -1    0    0  501    0  0.00000000000E+00  0.00000000000E+00  0.75237612867E+03  0.75237612869E+03  0.50400000000E-02 0. -1.
         -1   -1    0    0    0  501 -0.00000000000E+00 -0.00000000000E+00 -0.10310369363E+04  0.10310369363E+04  0.50400000000E-02 0.  1.
    8880023    1    1    2    0    0  0.15259055362E+03 -0.68061995695E+03  0.11797010497E+03  0.96656844288E+03  0.65864270000E+03 0. -1.
    8880022    1    1    2    0    0 -0.15259055362E+03  0.68061995695E+03 -0.39663091262E+03  0.81684462213E+03  0.15294330000E+03 0.  0.
<mgrwt>
<rscale>  0 0.89108235E+03</rscale>
<asrwt>0</asrwt>
<pdfrwt beam="1">  1        1 0.11575017E+00 0.95934228E+03</pdfrwt>
<pdfrwt beam="2">  1       -1 0.15862107E+00 0.95934228E+03</pdfrwt>
<totfact> 0.73459624E+00</totfact>
</mgrwt>
</event>
<event>
 4    2  0.4681349E-007  0.6610298E+03  0.7818608E-02  0.1023125E+00
          1   -1    0    0  501    0  0.00000000000E+00  0.00000000000E+00  0.85654863075E+03  0.85654863077E+03  0.50400000000E-02 0. -1.
         -1   -1    0    0    0  501 -0.00000000000E+00 -0.00000000000E+00 -0.33698380070E+03  0.33698380074E+03  0.50400000000E-02 0.  1.
    8880023    1    1    2    0    0  0.21182480675E+02  0.51975774054E+02  0.12724796163E+02  0.66115225574E+03  0.65864270000E+03 0.  1.
    8880022    1    1    2    0    0 -0.21182480675E+02 -0.51975774054E+02  0.50684003389E+03  0.53238017576E+03  0.15294330000E+03 0.  0.
<mgrwt>
<rscale>  0 0.46575458E+03</rscale>
<asrwt>0</asrwt>
<pdfrwt beam="1">  1        1 0.13177671E+00 0.66102979E+03</pdfrwt>
<pdfrwt beam="2">  1       -1 0.51843661E-01 0.66102979E+03</pdfrwt>
<totfact> 0.76190530E+01</totfact>
</mgrwt>
</event>
<event>
 4    2  0.4681349E-007  0.6614336E+03  0.7818608E-02  0.1022733E+00
          1   -1    0    0  501    0  0.00000000000E+00  0.00000000000E+00  0.11955509177E+03  0.11955509188E+03  0.50400000000E-02 0. -1.
         -1   -1    0    0    0  501 -0.00000000000E+00 -0.00000000000E+00 -0.16973115643E+04  0.16973115643E+04  0.50400000000E-02 0.  1.
    8880023    1    1    2    0    0 -0.38774472703E+02 -0.46698600998E+02 -0.14903771623E+04  0.16305577301E+04  0.65864270000E+03 0.  0.
    8880022    1    1    2    0    0  0.38774472703E+02  0.46698600998E+02 -0.87379310253E+02  0.18630892610E+03  0.15294330000E+03 0. -1.
<mgrwt>
<rscale>  0 0.46712972E+03</rscale>
<asrwt>0</asrwt>
<pdfrwt beam="1">  1        1 0.18393092E-01 0.66143361E+03</pdfrwt>
<pdfrwt beam="2">  1       -1 0.26112484E+00 0.66143361E+03</pdfrwt>
<totfact> 0.18062869E+01</totfact>
</mgrwt>
</event>
<event>
 4    2  0.4681349E-007  0.1065381E+04  0.7818608E-02  0.9300616E-01
          1   -1    0    0  501    0  0.00000000000E+00  0.00000000000E+00  0.15373518447E+04  0.15373518447E+04  0.50400000000E-02 0. -1.
         -1   -1    0    0    0  501 -0.00000000000E+00 -0.00000000000E+00 -0.81200554972E+03  0.81200554973E+03  0.50400000000E-02 0.  1.
    8880023    1    1    2    0    0  0.19672114931E+03  0.81395728601E+03 -0.20867799325E+03  0.10856253429E+04  0.65864270000E+03 0.  0.
    8880022    1    1    2    0    0 -0.19672114931E+03 -0.81395728601E+03  0.93402428824E+03  0.12637320515E+04  0.15294330000E+03 0.  0.
<mgrwt>
<rscale>  0 0.10072614E+04</rscale>
<asrwt>0</asrwt>
<pdfrwt beam="1">  1        1 0.23651566E+00 0.10653806E+04</pdfrwt>
<pdfrwt beam="2">  1       -1 0.12492393E+00 0.10653806E+04</pdfrwt>
<totfact> 0.34460254E+00</totfact>
</mgrwt>
</event>
<event>
 4    2  0.4681349E-007  0.8317876E+03  0.7818608E-02  0.9645864E-01
          1   -1    0    0  501    0  0.00000000000E+00  0.00000000000E+00  0.14513302723E+04  0.14513302723E+04  0.50400000000E-02 0. -1.
         -1   -1    0    0    0  501 -0.00000000000E+00 -0.00000000000E+00 -0.67396427697E+03  0.67396427699E+03  0.50400000000E-02 0.  1.
    8880023    1    1    2    0    0 -0.90825411429E+02  0.49981107181E+03 -0.33200330151E+03  0.89559854921E+03  0.65864270000E+03 0.  0.
    8880022    1    1    2    0    0  0.90825411429E+02 -0.49981107181E+03  0.11093692968E+04  0.12296960001E+04  0.15294330000E+03 0.  0.
<mgrwt>
<rscale>  0 0.74333549E+03</rscale>
<asrwt>0</asrwt>
<pdfrwt beam="1">  1        1 0.22328158E+00 0.83178757E+03</pdfrwt>
<pdfrwt beam="2">  1       -1 0.10368681E+00 0.83178757E+03</pdfrwt>
<totfact> 0.63691146E+00</totfact>
</mgrwt>
</event>
<event>
 4    2  0.4681349E-007  0.7207320E+03  0.7818608E-02  0.9920117E-01
         -1   -1    0    0    0  501 -0.00000000000E+00  0.00000000000E+00  0.33479272198E+03  0.33479272202E+03  0.50400000000E-02 0.  1.
          1   -1    0    0  501    0  0.00000000000E+00 -0.00000000000E+00 -0.33681455964E+04  0.33681455964E+04  0.50400000000E-02 0. -1.
    8880023    1    1    2    0    0  0.26450159054E+03 -0.12523287870E+03 -0.73216313717E+02  0.72444130208E+03  0.65864270000E+03 0.  0.
    8880022    1    1    2    0    0 -0.26450159054E+03  0.12523287870E+03 -0.29601365607E+04  0.29784970163E+04  0.15294330000E+03 0.  0.
<mgrwt>
<rscale>  0 0.59296162E+03</rscale>
<asrwt>0</asrwt>
<pdfrwt beam="1">  1        1 0.51817622E+00 0.72073197E+03</pdfrwt>
<pdfrwt beam="2">  1       -1 0.51506575E-01 0.72073197E+03</pdfrwt>
<totfact> 0.13128226E+00</totfact>
</mgrwt>
</event>
<event>
 4    2  0.4681349E-007  0.7035021E+03  0.7818608E-02  0.9982972E-01
          1   -1    0    0  501    0  0.00000000000E+00  0.00000000000E+00  0.38243299074E+04  0.38243299074E+04  0.50400000000E-02 0. -1.
         -1   -1    0    0    0  501 -0.00000000000E+00 -0.00000000000E+00 -0.15222995533E+03  0.15222995541E+03  0.50400000000E-02 0.  1.
    8880023    1    1    2    0    0 -0.64645861216E+02  0.23859152817E+03  0.70746539776E+03  0.99770862478E+03  0.65864270000E+03 0.  1.
    8880022    1    1    2    0    0  0.64645861216E+02 -0.23859152817E+03  0.29646345543E+04  0.29788512380E+04  0.15294330000E+03 0.  0.
<mgrwt>
<rscale>  0 0.56403232E+03</rscale>
<asrwt>0</asrwt>
<pdfrwt beam="1">  1        1 0.58835847E+00 0.70350210E+03</pdfrwt>
<pdfrwt beam="2">  1       -1 0.23419992E-01 0.70350210E+03</pdfrwt>
<totfact> 0.23507311E+00</totfact>
</mgrwt>
</event>
<event>
 4    2  0.4681349E-007  0.7104045E+03  0.7818608E-02  0.9956502E-01
          1   -1    0    0  501    0  0.00000000000E+00  0.00000000000E+00  0.48371438560E+03  0.48371438562E+03  0.50400000000E-02 0. -1.
         -1   -1    0    0    0  501 -0.00000000000E+00 -0.00000000000E+00 -0.12639894345E+04  0.12639894345E+04  0.50400000000E-02 0.  1.
    8880023    1    1    2    0    0  0.77839598575E+02  0.25456884097E+03 -0.10967852029E+04  0.13067563986E+04  0.65864270000E+03 0.  1.
    8880022    1    1    2    0    0 -0.77839598575E+02 -0.25456884097E+03  0.31651015399E+03  0.44094742146E+03  0.15294330000E+03 0.  0.
<mgrwt>
<rscale>  0 0.57599387E+03</rscale>
<asrwt>0</asrwt>
<pdfrwt beam="1">  1        1 0.74417598E-01 0.71040447E+03</pdfrwt>
<pdfrwt beam="2">  1       -1 0.19445991E+00 0.71040447E+03</pdfrwt>
<totfact> 0.79210028E+00</totfact>
</mgrwt>
</event>
<event>
 4    2  0.4681349E-007  0.6608255E+03  0.7818608E-02  0.1023326E+00
         -1   -1    0    0    0  501 -0.00000000000E+00  0.00000000000E+00  0.45975565774E+03  0.45975565777E+03  0.50400000000E-02 0.  1.
          1   -1    0    0  501    0  0.00000000000E+00 -0.00000000000E+00 -0.65407809066E+03  0.65407809068E+03  0.50400000000E-02 0. -1.
    8880023    1    1    2    0    0 -0.53406848999E+02  0.52791514035E+01  0.19758408744E+03  0.68973171511E+03  0.65864270000E+03 0.  1.
    8880022    1    1    2    0    0  0.53406848999E+02 -0.52791514035E+01 -0.39190652037E+03  0.42410203334E+03  0.15294330000E+03 0.  0.
<mgrwt>
<rscale>  0 0.46505183E+03</rscale>
<asrwt>0</asrwt>
<pdfrwt beam="1">  1        1 0.10062740E+00 0.66082552E+03</pdfrwt>
<pdfrwt beam="2">  1       -1 0.70731640E-01 0.66082552E+03</pdfrwt>
<totfact> 0.62707150E+01</totfact>
</mgrwt>
</event>
<event>
 4    2  0.4681349E-007  0.9295743E+03  0.7818608E-02  0.9480132E-01
         -1   -1    0    0    0  501 -0.00000000000E+00  0.00000000000E+00  0.57408504021E+03  0.57408504024E+03  0.50400000000E-02 0.  1.
          1   -1    0    0  501    0  0.00000000000E+00 -0.00000000000E+00 -0.17759211467E+04  0.17759211467E+04  0.50400000000E-02 0. -1.
    8880023    1    1    2    0    0  0.50052569165E+03  0.42399545484E+03  0.47368502849E+02  0.93078036886E+03  0.65864270000E+03 0.  0.
    8880022    1    1    2    0    0 -0.50052569165E+03 -0.42399545484E+03 -0.12492046093E+04  0.14192258181E+04  0.15294330000E+03 0.  0.
<mgrwt>
<rscale>  0 0.85764576E+03</rscale>
<asrwt>0</asrwt>
<pdfrwt beam="1">  1        1 0.27321864E+00 0.92957427E+03</pdfrwt>
<pdfrwt beam="2">  1       -1 0.88320776E-01 0.92957427E+03</pdfrwt>
<totfact> 0.54215874E+00</totfact>
</mgrwt>
</event>
<event>
 4    2  0.4681349E-007  0.7690217E+03  0.7818608E-02  0.9782287E-01
         -1   -1    0    0    0  501 -0.00000000000E+00  0.00000000000E+00  0.16474097342E+04  0.16474097343E+04  0.50400000000E-02 0.  1.
          1   -1    0    0  501    0  0.00000000000E+00 -0.00000000000E+00 -0.42446607246E+03  0.42446607249E+03  0.50400000000E-02 0. -1.
    8880023    1    1    2    0    0 -0.38925220383E+03 -0.77890006303E+02  0.14108383358E+04  0.16068164634E+04  0.65864270000E+03 0.  1.
    8880022    1    1    2    0    0  0.38925220383E+03  0.77890006303E+02 -0.18789467398E+03  0.46505934330E+03  0.15294330000E+03 0.  0.
<mgrwt>
<rscale>  0 0.66321829E+03</rscale>
<asrwt>0</asrwt>
<pdfrwt beam="1">  1        1 0.65302472E-01 0.76902168E+03</pdfrwt>
<pdfrwt beam="2">  1       -1 0.25344765E+00 0.76902168E+03</pdfrwt>
<totfact> 0.38106846E+00</totfact>
</mgrwt>
</event>
<event>
 4    2  0.4681349E-007  0.8263355E+03  0.7818608E-02  0.9656505E-01
         -1   -1    0    0    0  501 -0.00000000000E+00  0.00000000000E+00  0.42868262432E+03  0.42868262435E+03  0.50400000000E-02 0.  1.
          1   -1    0    0  501    0  0.00000000000E+00 -0.00000000000E+00 -0.16169058477E+04  0.16169058477E+04  0.50400000000E-02 0. -1.
    8880023    1    1    2    0    0 -0.47250327496E+03  0.16050194273E+03 -0.12721334869E+04  0.15169555146E+04  0.65864270000E+03 0.  0.
    8880022    1    1    2    0    0  0.47250327496E+03 -0.16050194273E+03  0.83910263449E+02  0.52863295753E+03  0.15294330000E+03 0.  0.
<mgrwt>
<rscale>  0 0.73666592E+03</rscale>
<asrwt>0</asrwt>
<pdfrwt beam="1">  1        1 0.24875474E+00 0.82633554E+03</pdfrwt>
<pdfrwt beam="2">  1       -1 0.65951174E-01 0.82633554E+03</pdfrwt>
<totfact> 0.13011200E+01</totfact>
</mgrwt>
</event>
<event>
 4    2  0.4681349E-007  0.8197260E+03  0.7818608E-02  0.9669663E-01
         -1   -1    0    0    0  501 -0.00000000000E+00  0.00000000000E+00  0.37559833851E+03  0.37559833854E+03  0.50400000000E-02 0.  1.
          1   -1    0    0  501    0  0.00000000000E+00 -0.00000000000E+00 -0.12853208868E+04  0.12853208868E+04  0.50400000000E-02 0. -1.
    8880023    1    1    2    0    0  0.34641471153E+03 -0.34371109697E+03 -0.31906394596E+03  0.87963201307E+03  0.65864270000E+03 0. -1.
    8880022    1    1    2    0    0 -0.34641471153E+03  0.34371109697E+03 -0.59065860235E+03  0.78128721229E+03  0.15294330000E+03 0.  0.
<mgrwt>
<rscale>  0 0.72852113E+03</rscale>
<asrwt>0</asrwt>
<pdfrwt beam="1">  1        1 0.19774167E+00 0.81972598E+03</pdfrwt>
<pdfrwt beam="2">  1       -1 0.57784360E-01 0.81972598E+03</pdfrwt>
<totfact> 0.28728896E+01</totfact>
</mgrwt>
</event>
<event>
 4    2  0.4681349E-007  0.8272149E+03  0.7818608E-02  0.9654776E-01
          1   -1    0    0  501    0  0.00000000000E+00  0.00000000000E+00  0.10258941195E+04  0.10258941195E+04  0.50400000000E-02 0. -1.
         -1   -1    0    0    0  501 -0.00000000000E+00 -0.00000000000E+00 -0.99038478713E+03  0.99038478715E+03  0.50400000000E-02 0.  1.
    8880023    1    1    2    0    0 -0.36554567422E+03  0.34183421176E+03 -0.72037543735E+03  0.10969162435E+04  0.65864270000E+03 0.  0.
    8880022    1    1    2    0    0  0.36554567422E+03 -0.34183421176E+03  0.75588476967E+03  0.91936266310E+03  0.15294330000E+03 0.  0.
<mgrwt>
<rscale>  0 0.73774454E+03</rscale>
<asrwt>0</asrwt>
<pdfrwt beam="1">  1        1 0.15782986E+00 0.82721489E+03</pdfrwt>
<pdfrwt beam="2">  1       -1 0.15236689E+00 0.82721489E+03</pdfrwt>
<totfact> 0.49510263E+00</totfact>
</mgrwt>
</event>
<event>
 4    2  0.4681349E-007  0.7239847E+03  0.7818608E-02  0.9909327E-01
          1   -1    0    0  501    0  0.00000000000E+00  0.00000000000E+00  0.25162694126E+04  0.25162694126E+04  0.50400000000E-02 0. -1.
         -1   -1    0    0    0  501 -0.00000000000E+00 -0.00000000000E+00 -0.32864485205E+03  0.32864485209E+03  0.50400000000E-02 0.  1.
    8880023    1    1    2    0    0 -0.28309036192E+03  0.10101236155E+03  0.10074542990E+03  0.73096066796E+03  0.65864270000E+03 0.  0.
    8880022    1    1    2    0    0  0.28309036192E+03 -0.10101236155E+03  0.20868791307E+04  0.21139535967E+04  0.15294330000E+03 0.  0.
<mgrwt>
<rscale>  0 0.59811398E+03</rscale>
<asrwt>0</asrwt>
<pdfrwt beam="1">  1        1 0.38711836E+00 0.72398471E+03</pdfrwt>
<pdfrwt beam="2">  1       -1 0.50560749E-01 0.72398471E+03</pdfrwt>
<totfact> 0.55149046E+00</totfact>
</mgrwt>
</event>
<event>
 4    2  0.4681349E-007  0.8068324E+03  0.7818608E-02  0.9696213E-01
         -1   -1    0    0    0  501 -0.00000000000E+00  0.00000000000E+00  0.80706301835E+03  0.80706301837E+03  0.50400000000E-02 0.  1.
          1   -1    0    0  501    0  0.00000000000E+00 -0.00000000000E+00 -0.10407678254E+04  0.10407678254E+04  0.50400000000E-02 0. -1.
    8880023    1    1    2    0    0  0.44014357277E+03 -0.15310782126E+03  0.51178986652E+03  0.95546190051E+03  0.65864270000E+03 0.  1.
    8880022    1    1    2    0    0 -0.44014357277E+03  0.15310782126E+03 -0.74549467354E+03  0.89236894325E+03  0.15294330000E+03 0.  0.
<mgrwt>
<rscale>  0 0.71242712E+03</rscale>
<asrwt>0</asrwt>
<pdfrwt beam="1">  1        1 0.16011813E+00 0.80683243E+03</pdfrwt>
<pdfrwt beam="2">  1       -1 0.12416354E+00 0.80683243E+03</pdfrwt>
<totfact> 0.82122614E+00</totfact>
</mgrwt>
</event>
<event>
 4    2  0.4681349E-007  0.6715298E+03  0.7818608E-02  0.1014589E+00
          1   -1    0    0  501    0  0.00000000000E+00  0.00000000000E+00  0.73852575065E+03  0.73852575067E+03  0.50400000000E-02 0. -1.
         -1   -1    0    0    0  501 -0.00000000000E+00 -0.00000000000E+00 -0.30634105147E+03  0.30634105151E+03  0.50400000000E-02 0.  1.
    8880023    1    1    2    0    0 -0.54840348122E+02  0.11888899087E+03  0.13351162876E+03  0.68467336534E+03  0.65864270000E+03 0.  0.
    8880022    1    1    2    0    0  0.54840348122E+02 -0.11888899087E+03  0.29867307042E+03  0.36019343684E+03  0.15294330000E+03 0.  0.
<mgrwt>
<rscale>  0 0.49690802E+03</rscale>
<asrwt>0</asrwt>
<pdfrwt beam="1">  1        1 0.11361934E+00 0.67152979E+03</pdfrwt>
<pdfrwt beam="2">  1       -1 0.47129394E-01 0.67152979E+03</pdfrwt>
<totfact> 0.11528247E+02</totfact>
</mgrwt>
</event>
<event>
 4    2  0.4681349E-007  0.6820342E+03  0.7818608E-02  0.1008196E+00
          1   -1    0    0  501    0  0.00000000000E+00  0.00000000000E+00  0.72908029321E+03  0.72908029323E+03  0.50400000000E-02 0. -1.
         -1   -1    0    0    0  501 -0.00000000000E+00 -0.00000000000E+00 -0.79274576102E+03  0.79274576104E+03  0.50400000000E-02 0.  1.
    8880023    1    1    2    0    0 -0.81795460435E+02  0.15706653212E+03 -0.61784429718E+03  0.92027288055E+03  0.65864270000E+03 0.  0.
    8880022    1    1    2    0    0  0.81795460435E+02 -0.15706653212E+03  0.55417882937E+03  0.60155317371E+03  0.15294330000E+03 0.  0.
<mgrwt>
<rscale>  0 0.52198093E+03</rscale>
<asrwt>0</asrwt>
<pdfrwt beam="1">  1        1 0.11216620E+00 0.68203416E+03</pdfrwt>
<pdfrwt beam="2">  1       -1 0.12196089E+00 0.68203416E+03</pdfrwt>
<totfact> 0.15790508E+01</totfact>
</mgrwt>
</event>
<event>
 4    2  0.4681349E-007  0.1295060E+04  0.7818608E-02  0.9069837E-01
          1   -1    0    0  501    0  0.00000000000E+00  0.00000000000E+00  0.19886838133E+04  0.19886838133E+04  0.50400000000E-02 0. -1.
         -1   -1    0    0    0  501 -0.00000000000E+00 -0.00000000000E+00 -0.97655624714E+03  0.97655624715E+03  0.50400000000E-02 0.  1.
    8880023    1    1    2    0    0  0.73411886435E+03 -0.83930975862E+03  0.12664325883E+04  0.18113622181E+04  0.65864270000E+03 0. -1.
    8880022    1    1    2    0    0 -0.73411886435E+03  0.83930975862E+03 -0.25430502216E+03  0.11538778424E+04  0.15294330000E+03 0.  0.
<mgrwt>
<rscale>  0 0.12504158E+04</rscale>
<asrwt>0</asrwt>
<pdfrwt beam="1">  1        1 0.30595135E+00 0.12950605E+04</pdfrwt>
<pdfrwt beam="2">  1       -1 0.15023942E+00 0.12950605E+04</pdfrwt>
<totfact> 0.10235179E+00</totfact>
</mgrwt>
</event>
<event>
 4    2  0.4681349E-007  0.6826915E+03  0.7818608E-02  0.1007840E+00
         -1   -1    0    0    0  501 -0.00000000000E+00  0.00000000000E+00  0.28544250800E+03  0.28544250805E+03  0.50400000000E-02 0.  1.
          1   -1    0    0  501    0  0.00000000000E+00 -0.00000000000E+00 -0.89409122692E+03  0.89409122694E+03  0.50400000000E-02 0. -1.
    8880023    1    1    2    0    0  0.16020494605E+03  0.81189893270E+02 -0.20639128070E+03  0.71320753678E+03  0.65864270000E+03 0.  0.
    8880022    1    1    2    0    0 -0.16020494605E+03 -0.81189893270E+02 -0.40225743822E+03  0.46632619820E+03  0.15294330000E+03 0.  0.
<mgrwt>
<rscale>  0 0.52342034E+03</rscale>
<asrwt>0</asrwt>
<pdfrwt beam="1">  1        1 0.13755249E+00 0.68269146E+03</pdfrwt>
<pdfrwt beam="2">  1       -1 0.43914233E-01 0.68269146E+03</pdfrwt>
<totfact> 0.96658359E+01</totfact>
</mgrwt>
</event>
<event>
 4    2  0.4681349E-007  0.7584136E+03  0.7818608E-02  0.9809232E-01
          1   -1    0    0  501    0  0.00000000000E+00  0.00000000000E+00  0.11664037984E+04  0.11664037984E+04  0.50400000000E-02 0. -1.
         -1   -1    0    0    0  501 -0.00000000000E+00 -0.00000000000E+00 -0.39163133840E+03  0.39163133843E+03  0.50400000000E-02 0.  1.
    8880023    1    1    2    0    0 -0.19816192591E+03  0.31955092811E+03  0.92354959068E+02  0.76401609228E+03  0.65864270000E+03 0.  0.
    8880022    1    1    2    0    0  0.19816192591E+03 -0.31955092811E+03  0.68241750092E+03  0.79401904455E+03  0.15294330000E+03 0.  0.
<mgrwt>
<rscale>  0 0.64869447E+03</rscale>
<asrwt>0</asrwt>
<pdfrwt beam="1">  1        1 0.17944674E+00 0.75841358E+03</pdfrwt>
<pdfrwt beam="2">  1       -1 0.60250976E-01 0.75841358E+03</pdfrwt>
<totfact> 0.32452246E+01</totfact>
</mgrwt>
</event>
<event>
 4    2  0.4681349E-007  0.7070630E+03  0.7818608E-02  0.9969073E-01
          1   -1    0    0  501    0  0.00000000000E+00  0.00000000000E+00  0.92257525646E+03  0.92257525647E+03  0.50400000000E-02 0. -1.
         -1   -1    0    0    0  501 -0.00000000000E+00 -0.00000000000E+00 -0.27992616686E+03  0.27992616691E+03  0.50400000000E-02 0.  1.
    8880023    1    1    2    0    0 -0.21787417564E+03  0.13659669840E+03  0.37150093508E+03  0.79871832673E+03  0.65864270000E+03 0.  0.
    8880022    1    1    2    0    0  0.21787417564E+03 -0.13659669840E+03  0.27114815452E+03  0.40378309665E+03  0.15294330000E+03 0.  1.
<mgrwt>
<rscale>  0 0.57027358E+03</rscale>
<asrwt>0</asrwt>
<pdfrwt beam="1">  1        1 0.14193466E+00 0.70706295E+03</pdfrwt>
<pdfrwt beam="2">  1       -1 0.43065563E-01 0.70706295E+03</pdfrwt>
<totfact> 0.94823777E+01</totfact>
</mgrwt>
</event>
<event>
 4    2  0.4681349E-007  0.9126825E+03  0.7818608E-02  0.9505971E-01
         -1   -1    0    0    0  501 -0.00000000000E+00  0.00000000000E+00  0.68440602324E+03  0.68440602326E+03  0.50400000000E-02 0.  1.
          1   -1    0    0  501    0  0.00000000000E+00 -0.00000000000E+00 -0.14306664789E+04  0.14306664789E+04  0.50400000000E-02 0. -1.
    8880023    1    1    2    0    0 -0.37400368880E+03 -0.50921554114E+03  0.23090240549E+03  0.94143791814E+03  0.65864270000E+03 0.  1.
    8880022    1    1    2    0    0  0.37400368880E+03  0.50921554114E+03 -0.97716286113E+03  0.11736345840E+04  0.15294330000E+03 0.  0.
<mgrwt>
<rscale>  0 0.83845017E+03</rscale>
<asrwt>0</asrwt>
<pdfrwt beam="1">  1        1 0.22010253E+00 0.91268255E+03</pdfrwt>
<pdfrwt beam="2">  1       -1 0.10529323E+00 0.91268255E+03</pdfrwt>
<totfact> 0.62822990E+00</totfact>
</mgrwt>
</event>
<event>
 4    2  0.4681349E-007  0.7658159E+03  0.7818608E-02  0.9790277E-01
         -1   -1    0    0    0  501 -0.00000000000E+00  0.00000000000E+00  0.38787516990E+03  0.38787516993E+03  0.50400000000E-02 0.  1.
          1   -1    0    0  501    0  0.00000000000E+00 -0.00000000000E+00 -0.10002847069E+04  0.10002847069E+04  0.50400000000E-02 0. -1.
    8880023    1    1    2    0    0  0.24158464657E+03 -0.30708398596E+03 -0.18215338692E+03  0.78718090584E+03  0.65864270000E+03 0.  0.
    8880022    1    1    2    0    0 -0.24158464657E+03  0.30708398596E+03 -0.43025615010E+03  0.60097897102E+03  0.15294330000E+03 0.  0.
<mgrwt>
<rscale>  0 0.65886953E+03</rscale>
<asrwt>0</asrwt>
<pdfrwt beam="1">  1        1 0.15388995E+00 0.76581585E+03</pdfrwt>
<pdfrwt beam="2">  1       -1 0.59673103E-01 0.76581585E+03</pdfrwt>
<totfact> 0.44059418E+01</totfact>
</mgrwt>
</event>
<event>
 4    2  0.4681349E-007  0.7916647E+03  0.7818608E-02  0.9729117E-01
         -1   -1    0    0    0  501 -0.00000000000E+00  0.00000000000E+00  0.14689952043E+04  0.14689952043E+04  0.50400000000E-02 0.  1.
          1   -1    0    0  501    0  0.00000000000E+00 -0.00000000000E+00 -0.64914741400E+03  0.64914741402E+03  0.50400000000E-02 0. -1.
    8880023    1    1    2    0    0  0.37213533144E+03  0.23331980489E+03  0.12532897818E+04  0.14823860225E+04  0.65864270000E+03 0.  1.
    8880022    1    1    2    0    0 -0.37213533144E+03 -0.23331980489E+03 -0.43344199144E+03  0.63575659589E+03  0.15294330000E+03 0.  0.
<mgrwt>
<rscale>  0 0.69309326E+03</rscale>
<asrwt>0</asrwt>
<pdfrwt beam="1">  1        1 0.99868833E-01 0.79166473E+03</pdfrwt>
<pdfrwt beam="2">  1       -1 0.22599926E+00 0.79166473E+03</pdfrwt>
<totfact> 0.31668924E+00</totfact>
</mgrwt>
</event>
<event>
 4    2  0.4681349E-007  0.1163785E+04  0.7818608E-02  0.9193156E-01
          1   -1    0    0  501    0  0.00000000000E+00  0.00000000000E+00  0.10236490565E+04  0.10236490565E+04  0.50400000000E-02 0. -1.
         -1   -1    0    0    0  501 -0.00000000000E+00 -0.00000000000E+00 -0.17363793302E+04  0.17363793302E+04  0.50400000000E-02 0.  1.
    8880023    1    1    2    0    0 -0.93990851647E+03 -0.19275946115E+03 -0.12012498896E+04  0.16725416983E+04  0.65864270000E+03 0.  0.
    8880022    1    1    2    0    0  0.93990851647E+03  0.19275946115E+03  0.48851961596E+03  0.10874866884E+04  0.15294330000E+03 0.  0.
<mgrwt>
<rscale>  0 0.11124348E+04</rscale>
<asrwt>0</asrwt>
<pdfrwt beam="1">  1        1 0.15748447E+00 0.11637845E+04</pdfrwt>
<pdfrwt beam="2">  1       -1 0.26713528E+00 0.11637845E+04</pdfrwt>
<totfact> 0.77231476E-01</totfact>
</mgrwt>
</event>
<event>
 4    2  0.4681349E-007  0.9845687E+03  0.7818608E-02  0.9402031E-01
         -1   -1    0    0    0  501 -0.00000000000E+00  0.00000000000E+00  0.13042390081E+04  0.13042390081E+04  0.50400000000E-02 0.  1.
          1   -1    0    0  501    0  0.00000000000E+00 -0.00000000000E+00 -0.77306286983E+03  0.77306286985E+03  0.50400000000E-02 0. -1.
    8880023    1    1    2    0    0  0.68538954209E+03 -0.25652760328E+03  0.81447850524E+03  0.12777913278E+04  0.65864270000E+03 0.  0.
    8880022    1    1    2    0    0 -0.68538954209E+03  0.25652760328E+03 -0.28330236697E+03  0.79951055015E+03  0.15294330000E+03 0.  0.
<mgrwt>
<rscale>  0 0.91908736E+03</rscale>
<asrwt>0</asrwt>
<pdfrwt beam="1">  1        1 0.11893275E+00 0.98456866E+03</pdfrwt>
<pdfrwt beam="2">  1       -1 0.20065215E+00 0.98456866E+03</pdfrwt>
<totfact> 0.34989776E+00</totfact>
</mgrwt>
</event>
<event>
 4    2  0.4681349E-007  0.7229266E+03  0.7818608E-02  0.9912805E-01
         -1   -1    0    0    0  501 -0.00000000000E+00  0.00000000000E+00  0.78966504696E+03  0.78966504697E+03  0.50400000000E-02 0.  1.
          1   -1    0    0  501    0  0.00000000000E+00 -0.00000000000E+00 -0.89862409421E+03  0.89862409422E+03  0.50400000000E-02 0. -1.
    8880023    1    1    2    0    0 -0.96280059425E+01 -0.29785894213E+03  0.57696840189E+03  0.92494074996E+03  0.65864270000E+03 0.  1.
    8880022    1    1    2    0    0  0.96280059425E+01  0.29785894213E+03 -0.68592744914E+03  0.76334839123E+03  0.15294330000E+03 0.  0.
<mgrwt>
<rscale>  0 0.59644697E+03</rscale>
<asrwt>0</asrwt>
<pdfrwt beam="1">  1        1 0.13824986E+00 0.72292659E+03</pdfrwt>
<pdfrwt beam="2">  1       -1 0.12148693E+00 0.72292659E+03</pdfrwt>
<totfact> 0.11339627E+01</totfact>
</mgrwt>
</event>
<event>
 4    2  0.4681349E-007  0.6966860E+03  0.7818608E-02  0.1001124E+00
          1   -1    0    0  501    0  0.00000000000E+00  0.00000000000E+00  0.19201608685E+04  0.19201608685E+04  0.50400000000E-02 0. -1.
         -1   -1    0    0    0  501 -0.00000000000E+00 -0.00000000000E+00 -0.52383711603E+03  0.52383711606E+03  0.50400000000E-02 0.  1.
    8880023    1    1    2    0    0 -0.86763586412E+02  0.20984090953E+03 -0.27603542902E+03  0.74937766952E+03  0.65864270000E+03 0.  0.
    8880022    1    1    2    0    0  0.86763586412E+02 -0.20984090953E+03  0.16723591815E+04  0.16946203151E+04  0.15294330000E+03 0.  0.
<mgrwt>
<rscale>  0 0.55160255E+03</rscale>
<asrwt>0</asrwt>
<pdfrwt beam="1">  1        1 0.29540937E+00 0.69668596E+03</pdfrwt>
<pdfrwt beam="2">  1       -1 0.80590323E-01 0.69668596E+03</pdfrwt>
<totfact> 0.54853720E+00</totfact>
</mgrwt>
</event>
<event>
 4    2  0.4681349E-007  0.8465345E+03  0.7818608E-02  0.9617980E-01
          1   -1    0    0  501    0  0.00000000000E+00  0.00000000000E+00  0.97708104684E+03  0.97708104686E+03  0.50400000000E-02 0. -1.
         -1   -1    0    0    0  501 -0.00000000000E+00 -0.00000000000E+00 -0.55719217112E+03  0.55719217114E+03  0.50400000000E-02 0.  1.
    8880023    1    1    2    0    0 -0.44056678180E+03 -0.29784447149E+03  0.11633362233E+02  0.84661441035E+03  0.65864270000E+03 0.  0.
    8880022    1    1    2    0    0  0.44056678180E+03  0.29784447149E+03  0.40825551349E+03  0.68765880765E+03  0.15294330000E+03 0.  0.
<mgrwt>
<rscale>  0 0.76117498E+03</rscale>
<asrwt>0</asrwt>
<pdfrwt beam="1">  1        1 0.15032016E+00 0.84653448E+03</pdfrwt>
<pdfrwt beam="2">  1       -1 0.85721873E-01 0.84653448E+03</pdfrwt>
<totfact> 0.21572714E+01</totfact>
</mgrwt>
</event>
<event>
 4    2  0.4681349E-007  0.8803470E+03  0.7818608E-02  0.9558347E-01
          1   -1    0    0  501    0  0.00000000000E+00  0.00000000000E+00  0.79271935403E+03  0.79271935404E+03  0.50400000000E-02 0. -1.
         -1   -1    0    0    0  501 -0.00000000000E+00 -0.00000000000E+00 -0.11036502986E+04  0.11036502986E+04  0.50400000000E-02 0.  1.
    8880023    1    1    2    0    0  0.20130799119E+03  0.54833911204E+03 -0.74455470416E+03  0.11529842162E+04  0.65864270000E+03 0.  1.
    8880022    1    1    2    0    0 -0.20130799119E+03 -0.54833911204E+03  0.43362375963E+03  0.74338543639E+03  0.15294330000E+03 0.  0.
<mgrwt>
<rscale>  0 0.80115467E+03</rscale>
<asrwt>0</asrwt>
<pdfrwt beam="1">  1        1 0.12195682E+00 0.88034703E+03</pdfrwt>
<pdfrwt beam="2">  1       -1 0.16979235E+00 0.88034703E+03</pdfrwt>
<totfact> 0.56329853E+00</totfact>
</mgrwt>
</event>
<event>
 4    2  0.4681349E-007  0.9469278E+03  0.7818608E-02  0.9454548E-01
          1   -1    0    0  501    0  0.00000000000E+00  0.00000000000E+00  0.16062938479E+04  0.16062938479E+04  0.50400000000E-02 0. -1.
         -1   -1    0    0    0  501 -0.00000000000E+00 -0.00000000000E+00 -0.73196224446E+03  0.73196224447E+03  0.50400000000E-02 0.  1.
    8880023    1    1    2    0    0  0.67889991976E+03 -0.44238418245E+02 -0.28192326624E+03  0.98800459159E+03  0.65864270000E+03 0.  0.
    8880022    1    1    2    0    0 -0.67889991976E+03  0.44238418245E+02  0.11562548697E+04  0.13502515008E+04  0.15294330000E+03 0.  0.
<mgrwt>
<rscale>  0 0.87719377E+03</rscale>
<asrwt>0</asrwt>
<pdfrwt beam="1">  1        1 0.24712212E+00 0.94692785E+03</pdfrwt>
<pdfrwt beam="2">  1       -1 0.11260958E+00 0.94692785E+03</pdfrwt>
<totfact> 0.40418689E+00</totfact>
</mgrwt>
</event>
<event>
 4    2  0.4681349E-007  0.6999493E+03  0.7818608E-02  0.9997412E-01
         -1   -1    0    0    0  501 -0.00000000000E+00  0.00000000000E+00  0.95687371550E+03  0.95687371552E+03  0.50400000000E-02 0.  1.
          1   -1    0    0  501    0  0.00000000000E+00 -0.00000000000E+00 -0.92633818195E+03  0.92633818196E+03  0.50400000000E-02 0. -1.
    8880023    1    1    2    0    0  0.14610542602E+03  0.18647254657E+03  0.80042986414E+03  0.10633047446E+04  0.65864270000E+03 0.  1.
    8880022    1    1    2    0    0 -0.14610542602E+03 -0.18647254657E+03 -0.76989433058E+03  0.81990715292E+03  0.15294330000E+03 0.  0.
<mgrwt>
<rscale>  0 0.55763878E+03</rscale>
<asrwt>0</asrwt>
<pdfrwt beam="1">  1        1 0.14251357E+00 0.69994929E+03</pdfrwt>
<pdfrwt beam="2">  1       -1 0.14721134E+00 0.69994929E+03</pdfrwt>
<totfact> 0.66238293E+00</totfact>
</mgrwt>
</event>
<event>
 4    2  0.4681349E-007  0.6591443E+03  0.7818608E-02  0.1025051E+00
          1   -1    0    0  501    0  0.00000000000E+00  0.00000000000E+00  0.70601219656E+03  0.70601219657E+03  0.50400000000E-02 0. -1.
         -1   -1    0    0    0  501 -0.00000000000E+00 -0.00000000000E+00 -0.26622141332E+03  0.26622141337E+03  0.50400000000E-02 0.  1.
    8880023    1    1    2    0    0  0.38300626023E+01  0.25423895252E+02  0.20396378636E+03  0.68998005496E+03  0.65864270000E+03 0.  1.
    8880022    1    1    2    0    0 -0.38300626023E+01 -0.25423895252E+02  0.23582699688E+03  0.28225355498E+03  0.15294330000E+03 0.  0.
<mgrwt>
<rscale>  0 0.45907206E+03</rscale>
<asrwt>0</asrwt>
<pdfrwt beam="1">  1        1 0.10861726E+00 0.65914433E+03</pdfrwt>
<pdfrwt beam="2">  1       -1 0.40957141E-01 0.65914433E+03</pdfrwt>
<totfact> 0.16012102E+02</totfact>
</mgrwt>
</event>
<event>
 4    2  0.4681349E-007  0.1791824E+04  0.7818608E-02  0.8727073E-01
          1   -1    0    0  501    0  0.00000000000E+00  0.00000000000E+00  0.25363471580E+04  0.25363471580E+04  0.50400000000E-02 0. -1.
         -1   -1    0    0    0  501 -0.00000000000E+00 -0.00000000000E+00 -0.23350264131E+04  0.23350264131E+04  0.50400000000E-02 0.  1.
    8880023    1    1    2    0    0  0.39272442781E+03  0.16194413435E+04  0.18123122374E+04  0.25485502925E+04  0.65864270000E+03 0.  0.
    8880022    1    1    2    0    0 -0.39272442781E+03 -0.16194413435E+04 -0.16109914925E+04  0.23228232785E+04  0.15294330000E+03 0.  0.
<mgrwt>
<rscale>  0 0.17614504E+04</rscale>
<asrwt>0</asrwt>
<pdfrwt beam="1">  1        1 0.39020725E+00 0.17918239E+04</pdfrwt>
<pdfrwt beam="2">  1       -1 0.35923483E+00 0.17918239E+04</pdfrwt>
<totfact> 0.15635719E-02</totfact>
</mgrwt>
</event>
<event>
 4    2  0.4681349E-007  0.7149137E+03  0.7818608E-02  0.9940188E-01
         -1   -1    0    0    0  501 -0.00000000000E+00  0.00000000000E+00  0.25077162681E+03  0.25077162686E+03  0.50400000000E-02 0.  1.
          1   -1    0    0  501    0  0.00000000000E+00 -0.00000000000E+00 -0.11492862023E+04  0.11492862023E+04  0.50400000000E-02 0. -1.
    8880023    1    1    2    0    0  0.18587617356E+03 -0.20674014424E+03 -0.43019767078E+03  0.83436903187E+03  0.65864270000E+03 0.  1.
    8880022    1    1    2    0    0 -0.18587617356E+03  0.20674014424E+03 -0.46831690467E+03  0.56568879727E+03  0.15294330000E+03 0.  1.
<mgrwt>
<rscale>  0 0.58352544E+03</rscale>
<asrwt>0</asrwt>
<pdfrwt beam="1">  1        1 0.17681326E+00 0.71491373E+03</pdfrwt>
<pdfrwt beam="2">  1       -1 0.38580251E-01 0.71491373E+03</pdfrwt>
<totfact> 0.77690375E+01</totfact>
</mgrwt>
</event>
<event>
 4    2  0.4681349E-007  0.6702923E+03  0.7818608E-02  0.1015454E+00
         -1   -1    0    0    0  501 -0.00000000000E+00  0.00000000000E+00  0.31789736963E+03  0.31789736967E+03  0.50400000000E-02 0.  1.
          1   -1    0    0  501    0  0.00000000000E+00 -0.00000000000E+00 -0.65438093301E+03  0.65438093303E+03  0.50400000000E-02 0. -1.
    8880023    1    1    2    0    0  0.21812919287E+02 -0.12249813571E+03 -0.12265054840E+03  0.68142127938E+03  0.65864270000E+03 0.  0.
    8880022    1    1    2    0    0 -0.21812919287E+02  0.12249813571E+03 -0.21383301499E+03  0.29085702332E+03  0.15294330000E+03 0.  0.
<mgrwt>
<rscale>  0 0.49363341E+03</rscale>
<asrwt>0</asrwt>
<pdfrwt beam="1">  1        1 0.10067399E+00 0.67029233E+03</pdfrwt>
<pdfrwt beam="2">  1       -1 0.48907288E-01 0.67029233E+03</pdfrwt>
<totfact> 0.12902335E+02</totfact>
</mgrwt>
</event>
<event>
 4    2  0.4681349E-007  0.6816420E+03  0.7818608E-02  0.1008410E+00
          1   -1    0    0  501    0  0.00000000000E+00  0.00000000000E+00  0.67952437245E+03  0.67952437247E+03  0.50400000000E-02 0. -1.
         -1   -1    0    0    0  501 -0.00000000000E+00 -0.00000000000E+00 -0.54349432036E+03  0.54349432039E+03  0.50400000000E-02 0.  1.
    8880023    1    1    2    0    0  0.37473160348E+02 -0.17152669882E+03 -0.28742891751E+03  0.73976431046E+03  0.65864270000E+03 0.  1.
    8880022    1    1    2    0    0 -0.37473160348E+02  0.17152669882E+03  0.42345896959E+03  0.48325438239E+03  0.15294330000E+03 0. -1.
<mgrwt>
<rscale>  0 0.52111612E+03</rscale>
<asrwt>0</asrwt>
<pdfrwt beam="1">  1        1 0.10454221E+00 0.68164203E+03</pdfrwt>
<pdfrwt beam="2">  1       -1 0.83614511E-01 0.68164203E+03</pdfrwt>
<totfact> 0.41648027E+01</totfact>
</mgrwt>
</event>
<event>
 4    2  0.4681349E-007  0.1474550E+04  0.7818608E-02  0.8927819E-01
         -1   -1    0    0    0  501 -0.00000000000E+00  0.00000000000E+00  0.19270057554E+04  0.19270057554E+04  0.50400000000E-02 0.  1.
          1   -1    0    0  501    0  0.00000000000E+00 -0.00000000000E+00 -0.32772124081E+04  0.32772124081E+04  0.50400000000E-02 0. -1.
    8880023    1    1    2    0    0  0.38723484636E+03 -0.12611651275E+04  0.14729931576E+04  0.20842282393E+04  0.65864270000E+03 0.  0.
    8880022    1    1    2    0    0 -0.38723484636E+03  0.12611651275E+04 -0.28231998103E+04  0.31199899242E+04  0.15294330000E+03 0.  0.
<mgrwt>
<rscale>  0 0.14364923E+04</rscale>
<asrwt>0</asrwt>
<pdfrwt beam="1">  1        1 0.50418653E+00 0.14745503E+04</pdfrwt>
<pdfrwt beam="2">  1       -1 0.29646242E+00 0.14745503E+04</pdfrwt>
<totfact> 0.12310826E-02</totfact>
</mgrwt>
</event>
<event>
 4    2  0.4681349E-007  0.9960126E+03  0.7818608E-02  0.9386793E-01
         -1   -1    0    0    0  501 -0.00000000000E+00  0.00000000000E+00  0.14166346001E+04  0.14166346001E+04  0.50400000000E-02 0.  1.
          1   -1    0    0  501    0  0.00000000000E+00 -0.00000000000E+00 -0.98145387092E+03  0.98145387093E+03  0.50400000000E-02 0. -1.
    8880023    1    1    2    0    0  0.57117639723E+03  0.48165177838E+03  0.10285763599E+04  0.14317857545E+04  0.65864270000E+03 0.  1.
    8880022    1    1    2    0    0 -0.57117639723E+03 -0.48165177838E+03 -0.59339563074E+03  0.96630271653E+03  0.15294330000E+03 0.  0.
<mgrwt>
<rscale>  0 0.93170577E+03</rscale>
<asrwt>0</asrwt>
<pdfrwt beam="1">  1        1 0.15099290E+00 0.99601261E+03</pdfrwt>
<pdfrwt beam="2">  1       -1 0.21794378E+00 0.99601261E+03</pdfrwt>
<totfact> 0.17882011E+00</totfact>
</mgrwt>
</event>
<event>
 4    2  0.4681349E-007  0.7031846E+03  0.7818608E-02  0.9984238E-01
          1   -1    0    0  501    0  0.00000000000E+00  0.00000000000E+00  0.17636317714E+04  0.17636317714E+04  0.50400000000E-02 0. -1.
         -1   -1    0    0    0  501 -0.00000000000E+00 -0.00000000000E+00 -0.73580607010E+03  0.73580607011E+03  0.50400000000E-02 0.  1.
    8880023    1    1    2    0    0  0.10083716215E+03  0.22470045899E+03 -0.55154199018E+03  0.89368182411E+03  0.65864270000E+03 0.  1.
    8880022    1    1    2    0    0 -0.10083716215E+03 -0.22470045899E+03  0.15793676915E+04  0.16057560175E+04  0.15294330000E+03 0.  0.
<mgrwt>
<rscale>  0 0.56346805E+03</rscale>
<asrwt>0</asrwt>
<pdfrwt beam="1">  1        1 0.27132796E+00 0.70318464E+03</pdfrwt>
<pdfrwt beam="2">  1       -1 0.11320094E+00 0.70318464E+03</pdfrwt>
<totfact> 0.32509152E+00</totfact>
</mgrwt>
</event>
<event>
 4    2  0.4681349E-007  0.8074722E+03  0.7818608E-02  0.9694866E-01
          1   -1    0    0  501    0  0.00000000000E+00  0.00000000000E+00  0.13092811904E+04  0.13092811904E+04  0.50400000000E-02 0. -1.
         -1   -1    0    0    0  501 -0.00000000000E+00 -0.00000000000E+00 -0.52705350603E+03  0.52705350606E+03  0.50400000000E-02 0.  1.
    8880023    1    1    2    0    0 -0.38565653160E+03 -0.26357209122E+03 -0.11271214499E+03  0.81530082885E+03  0.65864270000E+03 0.  1.
    8880022    1    1    2    0    0  0.38565653160E+03  0.26357209122E+03  0.89493982934E+03  0.10210338676E+04  0.15294330000E+03 0.  0.
<mgrwt>
<rscale>  0 0.71323264E+03</rscale>
<asrwt>0</asrwt>
<pdfrwt beam="1">  1        1 0.20142787E+00 0.80747224E+03</pdfrwt>
<pdfrwt beam="2">  1       -1 0.81085156E-01 0.80747224E+03</pdfrwt>
<totfact> 0.13859254E+01</totfact>
</mgrwt>
</event>
<event>
 4    2  0.4681349E-007  0.9959604E+03  0.7818608E-02  0.9386862E-01
         -1   -1    0    0    0  501 -0.00000000000E+00  0.00000000000E+00  0.78048049497E+03  0.78048049499E+03  0.50400000000E-02 0.  1.
          1   -1    0    0  501    0  0.00000000000E+00 -0.00000000000E+00 -0.10527735914E+04  0.10527735914E+04  0.50400000000E-02 0. -1.
    8880023    1    1    2    0    0  0.71425077143E+02 -0.74365670828E+03 -0.37412579434E+03  0.10639112546E+04  0.65864270000E+03 0. -1.
    8880022    1    1    2    0    0 -0.71425077143E+02  0.74365670828E+03  0.10183269794E+03  0.76934283177E+03  0.15294330000E+03 0. -1.
<mgrwt>
<rscale>  0 0.93164827E+03</rscale>
<asrwt>0</asrwt>
<pdfrwt beam="1">  1        1 0.16196517E+00 0.99596036E+03</pdfrwt>
<pdfrwt beam="2">  1       -1 0.12007392E+00 0.99596036E+03</pdfrwt>
<totfact> 0.85392505E+00</totfact>
</mgrwt>
</event>
<event>
 4    2  0.4681349E-007  0.6713827E+03  0.7818608E-02  0.1014690E+00
          1   -1    0    0  501    0  0.00000000000E+00  0.00000000000E+00  0.50815618251E+03  0.50815618254E+03  0.50400000000E-02 0. -1.
         -1   -1    0    0    0  501 -0.00000000000E+00 -0.00000000000E+00 -0.61960567627E+03  0.61960567630E+03  0.50400000000E-02 0.  1.
    8880023    1    1    2    0    0  0.47566699379E+02  0.12116904568E+03 -0.39600354697E+03  0.77947004048E+03  0.65864270000E+03 0.  0.
    8880022    1    1    2    0    0 -0.47566699379E+02 -0.12116904568E+03  0.28455405321E+03  0.34829181836E+03  0.15294330000E+03 0.  0.
<mgrwt>
<rscale>  0 0.49652310E+03</rscale>
<asrwt>0</asrwt>
<pdfrwt beam="1">  1        1 0.78177874E-01 0.67138270E+03</pdfrwt>
<pdfrwt beam="2">  1       -1 0.95323951E-01 0.67138270E+03</pdfrwt>
<totfact> 0.47386282E+01</totfact>
</mgrwt>
</event>
<event>
 4    2  0.4681349E-007  0.9671742E+03  0.7818608E-02  0.9425823E-01
          1   -1    0    0  501    0  0.00000000000E+00  0.00000000000E+00  0.27202030662E+04  0.27202030662E+04  0.50400000000E-02 0. -1.
         -1   -1    0    0    0  501 -0.00000000000E+00 -0.00000000000E+00 -0.39399102901E+03  0.39399102904E+03  0.50400000000E-02 0.  1.
    8880023    1    1    2    0    0 -0.14033241907E+03 -0.69420645138E+03  0.21659899983E+04  0.23721169162E+04  0.65864270000E+03 0.  0.
    8880022    1    1    2    0    0  0.14033241907E+03  0.69420645138E+03  0.16022203892E+03  0.74207717911E+03  0.15294330000E+03 0.  0.
<mgrwt>
<rscale>  0 0.89980669E+03</rscale>
<asrwt>0</asrwt>
<pdfrwt beam="1">  1        1 0.41849279E+00 0.96717423E+03</pdfrwt>
<pdfrwt beam="2">  1       -1 0.60614003E-01 0.96717423E+03</pdfrwt>
<totfact> 0.26936539E+00</totfact>
</mgrwt>
</event>
<event>
 4    2  0.4681349E-007  0.6936537E+03  0.7818608E-02  0.1002462E+00
          1   -1    0    0  501    0  0.00000000000E+00  0.00000000000E+00  0.23259137085E+04  0.23259137085E+04  0.50400000000E-02 0. -1.
         -1   -1    0    0    0  501 -0.00000000000E+00 -0.00000000000E+00 -0.18089889127E+03  0.18089889134E+03  0.50400000000E-02 0.  1.
    8880023    1    1    2    0    0  0.15330193380E+03 -0.15441417917E+03  0.53773314028E+03  0.87767440321E+03  0.65864270000E+03 0.  0.
    8880022    1    1    2    0    0 -0.15330193380E+03  0.15441417917E+03  0.16072816770E+04  0.16291381966E+04  0.15294330000E+03 0.  0.
<mgrwt>
<rscale>  0 0.54583673E+03</rscale>
<asrwt>0</asrwt>
<pdfrwt beam="1">  1        1 0.35783289E+00 0.69365368E+03</pdfrwt>
<pdfrwt beam="2">  1       -1 0.27830598E-01 0.69365368E+03</pdfrwt>
<totfact> 0.21893115E+01</totfact>
</mgrwt>
</event>
<event>
 4    2  0.4681349E-007  0.6647129E+03  0.7818608E-02  0.1019776E+00
          1   -1    0    0  501    0  0.00000000000E+00  0.00000000000E+00  0.16060000921E+04  0.16060000921E+04  0.50400000000E-02 0. -1.
         -1   -1    0    0    0  501 -0.00000000000E+00 -0.00000000000E+00 -0.13006597591E+03  0.13006597600E+03  0.50400000000E-02 0.  1.
    8880023    1    1    2    0    0 -0.86457334164E+02  0.23624158315E+02  0.81461195097E+03  0.10513970746E+04  0.65864270000E+03 0.  1.
    8880022    1    1    2    0    0  0.86457334164E+02 -0.23624158315E+02  0.66132216520E+03  0.68466899352E+03  0.15294330000E+03 0.  0.
<mgrwt>
<rscale>  0 0.47767699E+03</rscale>
<asrwt>0</asrwt>
<pdfrwt beam="1">  1        1 0.24707693E+00 0.66471285E+03</pdfrwt>
<pdfrwt beam="2">  1       -1 0.20010150E-01 0.66471285E+03</pdfrwt>
<totfact> 0.11645508E+02</totfact>
</mgrwt>
</event>
<event>
 4    2  0.4681349E-007  0.8474618E+03  0.7818608E-02  0.9616268E-01
          1   -1    0    0  501    0  0.00000000000E+00  0.00000000000E+00  0.24263823043E+04  0.24263823043E+04  0.50400000000E-02 0. -1.
         -1   -1    0    0    0  501 -0.00000000000E+00 -0.00000000000E+00 -0.22423648248E+03  0.22423648253E+03  0.50400000000E-02 0.  1.
    8880023    1    1    2    0    0  0.46620304169E+03 -0.25891323381E+03  0.90514710639E+03  0.12399527528E+04  0.65864270000E+03 0.  0.
    8880022    1    1    2    0    0 -0.46620304169E+03  0.25891323381E+03  0.12969987154E+04  0.14106660340E+04  0.15294330000E+03 0.  0.
<mgrwt>
<rscale>  0 0.76228772E+03</rscale>
<asrwt>0</asrwt>
<pdfrwt beam="1">  1        1 0.37328958E+00 0.84746183E+03</pdfrwt>
<pdfrwt beam="2">  1       -1 0.34497921E-01 0.84746183E+03</pdfrwt>
<totfact> 0.12562284E+01</totfact>
</mgrwt>
</event>
<event>
 4    2  0.4681349E-007  0.7262778E+03  0.7818608E-02  0.9901889E-01
          1   -1    0    0  501    0  0.00000000000E+00  0.00000000000E+00  0.14410692439E+04  0.14410692439E+04  0.50400000000E-02 0. -1.
         -1   -1    0    0    0  501 -0.00000000000E+00 -0.00000000000E+00 -0.21406370069E+03  0.21406370075E+03  0.50400000000E-02 0.  1.
    8880023    1    1    2    0    0  0.27933140481E+03  0.12507303544E+03  0.60506939788E+03  0.94529809078E+03  0.65864270000E+03 0.  0.
    8880022    1    1    2    0    0 -0.27933140481E+03 -0.12507303544E+03  0.62193614529E+03  0.70983485385E+03  0.15294330000E+03 0.  0.
<mgrwt>
<rscale>  0 0.60169805E+03</rscale>
<asrwt>0</asrwt>
<pdfrwt beam="1">  1        1 0.22170297E+00 0.72627784E+03</pdfrwt>
<pdfrwt beam="2">  1       -1 0.32932876E-01 0.72627784E+03</pdfrwt>
<totfact> 0.63946612E+01</totfact>
</mgrwt>
</event>
<event>
 4    2  0.4681349E-007  0.8749794E+03  0.7818608E-02  0.9567454E-01
          1   -1    0    0  501    0  0.00000000000E+00  0.00000000000E+00  0.57771347416E+03  0.57771347418E+03  0.50400000000E-02 0. -1.
         -1   -1    0    0    0  501 -0.00000000000E+00 -0.00000000000E+00 -0.18544963264E+04  0.18544963264E+04  0.50400000000E-02 0.  1.
    8880023    1    1    2    0    0 -0.19069623068E+03 -0.54351969416E+03 -0.15474273349E+04  0.17776727127E+04  0.65864270000E+03 0.  1.
    8880022    1    1    2    0    0  0.19069623068E+03  0.54351969416E+03  0.27064448271E+03  0.65453708786E+03  0.15294330000E+03 0.  0.
<mgrwt>
<rscale>  0 0.79488253E+03</rscale>
<asrwt>0</asrwt>
<pdfrwt beam="1">  1        1 0.88878997E-01 0.87497938E+03</pdfrwt>
<pdfrwt beam="2">  1       -1 0.28530712E+00 0.87497938E+03</pdfrwt>
<totfact> 0.15321266E+00</totfact>
</mgrwt>
</event>
<event>
 4    2  0.9516329E-007  0.7396201E+03  0.7818608E-02  0.9861055E-01
          1   -1    0    0  501    0  0.00000000000E+00  0.00000000000E+00  0.18834117883E+04  0.18834117883E+04  0.50400000000E-02 0. -1.
         -1   -1    0    0    0  501 -0.00000000000E+00 -0.00000000000E+00 -0.13108700200E+04  0.13108700201E+04  0.50400000000E-02 0.  1.
    8880023    1    1    2    0    0 -0.23054086861E+02 -0.33570245276E+03 -0.11857760598E+04  0.13975345069E+04  0.65864270000E+03 0.  1.
    8880022    1    1    2    0    0  0.23054086861E+02  0.33570245276E+03  0.17583178280E+04  0.17967473014E+04  0.15294330000E+03 0.  0.
<mgrwt>
<rscale>  0 0.62186414E+03</rscale>
<asrwt>0</asrwt>
<pdfrwt beam="1">  1        1 0.28975566E+00 0.73962006E+03</pdfrwt>
<pdfrwt beam="2">  1       -1 0.20167231E+00 0.73962006E+03</pdfrwt>
<totfact> 0.55788699E-01</totfact>
</mgrwt>
</event>
<event>
 4    2  0.4681349E-007  0.1023148E+04  0.7818608E-02  0.9351880E-01
          1   -1    0    0  501    0  0.00000000000E+00  0.00000000000E+00  0.17232170194E+04  0.17232170194E+04  0.50400000000E-02 0. -1.
         -1   -1    0    0    0  501 -0.00000000000E+00 -0.00000000000E+00 -0.54399152237E+03  0.54399152240E+03  0.50400000000E-02 0.  1.
    8880023    1    1    2    0    0 -0.12998444884E+03 -0.77209200161E+03  0.10371798912E+04  0.14569057447E+04  0.65864270000E+03 0. -1.
    8880022    1    1    2    0    0  0.12998444884E+03  0.77209200161E+03  0.14204560583E+03  0.81030279713E+03  0.15294330000E+03 0.  0.
<mgrwt>
<rscale>  0 0.96143813E+03</rscale>
<asrwt>0</asrwt>
<pdfrwt beam="1">  1        1 0.26511031E+00 0.10231482E+04</pdfrwt>
<pdfrwt beam="2">  1       -1 0.83691003E-01 0.10231482E+04</pdfrwt>
<totfact> 0.65404512E+00</totfact>
</mgrwt>
</event>
<event>
 4    2  0.4681349E-007  0.7093708E+03  0.7818608E-02  0.9960345E-01
         -1   -1    0    0    0  501 -0.00000000000E+00  0.00000000000E+00  0.40384987341E+03  0.40384987345E+03  0.50400000000E-02 0.  1.
          1   -1    0    0  501    0  0.00000000000E+00 -0.00000000000E+00 -0.11081923411E+04  0.11081923411E+04  0.50400000000E-02 0. -1.
    8880023    1    1    2    0    0 -0.25904600488E+03 -0.47873676874E+02  0.37228059713E+02  0.71034699709E+03  0.65864270000E+03 0.  1.
    8880022    1    1    2    0    0  0.25904600488E+03  0.47873676874E+02 -0.74157052737E+03  0.80169521743E+03  0.15294330000E+03 0.  0.
<mgrwt>
<rscale>  0 0.57423767E+03</rscale>
<asrwt>0</asrwt>
<pdfrwt beam="1">  1        1 0.17049113E+00 0.70937080E+03</pdfrwt>
<pdfrwt beam="2">  1       -1 0.62130750E-01 0.70937080E+03</pdfrwt>
<totfact> 0.33896557E+01</totfact>
</mgrwt>
</event>
<event>
 4    2  0.4681349E-007  0.1065431E+04  0.7818608E-02  0.9300557E-01
         -1   -1    0    0    0  501 -0.00000000000E+00  0.00000000000E+00  0.15699729470E+04  0.15699729470E+04  0.50400000000E-02 0.  1.
          1   -1    0    0  501    0  0.00000000000E+00 -0.00000000000E+00 -0.10963223603E+04  0.10963223603E+04  0.50400000000E-02 0. -1.
    8880023    1    1    2    0    0 -0.69620479312E+03 -0.46543817793E+03  0.11583355778E+04  0.15738123549E+04  0.65864270000E+03 0.  0.
    8880022    1    1    2    0    0  0.69620479312E+03  0.46543817793E+03 -0.68468499106E+03  0.10924829525E+04  0.15294330000E+03 0.  0.
<mgrwt>
<rscale>  0 0.10073162E+04</rscale>
<asrwt>0</asrwt>
<pdfrwt beam="1">  1        1 0.16866498E+00 0.10654314E+04</pdfrwt>
<pdfrwt beam="2">  1       -1 0.24153430E+00 0.10654314E+04</pdfrwt>
<totfact> 0.10091738E+00</totfact>
</mgrwt>
</event>
<event>
 4    2  0.4681349E-007  0.7111840E+03  0.7818608E-02  0.9953630E-01
          1   -1    0    0  501    0  0.00000000000E+00  0.00000000000E+00  0.36312814052E+03  0.36312814055E+03  0.50400000000E-02 0. -1.
         -1   -1    0    0    0  501 -0.00000000000E+00 -0.00000000000E+00 -0.73671662488E+03  0.73671662490E+03  0.50400000000E-02 0.  1.
    8880023    1    1    2    0    0 -0.16757416574E+03 -0.20950266578E+03 -0.17403477625E+03  0.73216854453E+03  0.65864270000E+03 0.  0.
    8880022    1    1    2    0    0  0.16757416574E+03  0.20950266578E+03 -0.19955370811E+03  0.36767622092E+03  0.15294330000E+03 0. -1.
<mgrwt>
<rscale>  0 0.57731070E+03</rscale>
<asrwt>0</asrwt>
<pdfrwt beam="1">  1        1 0.55865868E-01 0.71118399E+03</pdfrwt>
<pdfrwt beam="2">  1       -1 0.11334102E+00 0.71118399E+03</pdfrwt>
<totfact> 0.49642720E+01</totfact>
</mgrwt>
</event>
<event>
 4    2  0.4681349E-007  0.6991172E+03  0.7818608E-02  0.1000088E+00
          1   -1    0    0  501    0  0.00000000000E+00  0.00000000000E+00  0.24539668740E+03  0.24539668745E+03  0.50400000000E-02 0. -1.
         -1   -1    0    0    0  501 -0.00000000000E+00 -0.00000000000E+00 -0.18203662419E+04  0.18203662419E+04  0.50400000000E-02 0.  1.
    8880023    1    1    2    0    0 -0.13308862297E+03  0.19298199431E+03 -0.16361452713E+04  0.17792515805E+04  0.65864270000E+03 0.  1.
    8880022    1    1    2    0    0  0.13308862297E+03 -0.19298199431E+03  0.61175716776E+02  0.28651134887E+03  0.15294330000E+03 0.  0.
<mgrwt>
<rscale>  0 0.55611522E+03</rscale>
<asrwt>0</asrwt>
<pdfrwt beam="1">  1        1 0.37753338E-01 0.69911718E+03</pdfrwt>
<pdfrwt beam="2">  1       -1 0.28005634E+00 0.69911718E+03</pdfrwt>
<totfact> 0.53184973E+00</totfact>
</mgrwt>
</event>
<event>
 4    2  0.4681349E-007  0.7208295E+03  0.7818608E-02  0.9919789E-01
          1   -1    0    0  501    0  0.00000000000E+00  0.00000000000E+00  0.59703866222E+03  0.59703866224E+03  0.50400000000E-02 0. -1.
         -1   -1    0    0    0  501 -0.00000000000E+00 -0.00000000000E+00 -0.79753032506E+03  0.79753032507E+03  0.50400000000E-02 0.  1.
    8880023    1    1    2    0    0  0.13895451586E+03  0.25783064145E+03 -0.55516136078E+03  0.90983478715E+03  0.65864270000E+03 0.  1.
    8880022    1    1    2    0    0 -0.13895451586E+03 -0.25783064145E+03  0.35466969794E+03  0.48473420016E+03  0.15294330000E+03 0.  0.
<mgrwt>
<rscale>  0 0.59311737E+03</rscale>
<asrwt>0</asrwt>
<pdfrwt beam="1">  1        1 0.91852101E-01 0.72082952E+03</pdfrwt>
<pdfrwt beam="2">  1       -1 0.12269697E+00 0.72082952E+03</pdfrwt>
<totfact> 0.20813142E+01</totfact>
</mgrwt>
</event>
<event>
 4    2  0.4681349E-007  0.8485769E+03  0.7818608E-02  0.9614215E-01
          1   -1    0    0  501    0  0.00000000000E+00  0.00000000000E+00  0.94918676658E+03  0.94918676660E+03  0.50400000000E-02 0. -1.
         -1   -1    0    0    0  501 -0.00000000000E+00 -0.00000000000E+00 -0.82605124258E+03  0.82605124260E+03  0.50400000000E-02 0.  1.
    8880023    1    1    2    0    0  0.35520188643E+02 -0.53386407399E+03 -0.46328885931E+03  0.96680882636E+03  0.65864270000E+03 0.  0.
    8880022    1    1    2    0    0 -0.35520188643E+02  0.53386407399E+03  0.58642438332E+03  0.80842918284E+03  0.15294330000E+03 0.  0.
<mgrwt>
<rscale>  0 0.76362436E+03</rscale>
<asrwt>0</asrwt>
<pdfrwt beam="1">  1        1 0.14602873E+00 0.84857689E+03</pdfrwt>
<pdfrwt beam="2">  1       -1 0.12708481E+00 0.84857689E+03</pdfrwt>
<totfact> 0.90867032E+00</totfact>
</mgrwt>
</event>
<event>
 4    2  0.4681349E-007  0.9119384E+03  0.7818608E-02  0.9507132E-01
         -1   -1    0    0    0  501 -0.00000000000E+00  0.00000000000E+00  0.81825571952E+03  0.81825571953E+03  0.50400000000E-02 0.  1.
          1   -1    0    0  501    0  0.00000000000E+00 -0.00000000000E+00 -0.11882224323E+04  0.11882224323E+04  0.50400000000E-02 0. -1.
    8880023    1    1    2    0    0  0.44870381266E+03  0.44326785446E+03  0.40313687929E+03  0.99707123718E+03  0.65864270000E+03 0.  1.
    8880022    1    1    2    0    0 -0.44870381266E+03 -0.44326785446E+03 -0.77310359210E+03  0.10094069147E+04  0.15294330000E+03 0.  0.
<mgrwt>
<rscale>  0 0.83760041E+03</rscale>
<asrwt>0</asrwt>
<pdfrwt beam="1">  1        1 0.18280345E+00 0.91193843E+03</pdfrwt>
<pdfrwt beam="2">  1       -1 0.12588549E+00 0.91193843E+03</pdfrwt>
<totfact> 0.60766906E+00</totfact>
</mgrwt>
</event>
<event>
 4    2  0.4681349E-007  0.6931138E+03  0.7818608E-02  0.1002706E+00
         -1   -1    0    0    0  501 -0.00000000000E+00  0.00000000000E+00  0.84786575616E+03  0.84786575618E+03  0.50400000000E-02 0.  1.
          1   -1    0    0  501    0  0.00000000000E+00 -0.00000000000E+00 -0.32038453265E+03  0.32038453269E+03  0.50400000000E-02 0. -1.
    8880023    1    1    2    0    0 -0.28517426156E+02  0.21397031381E+03  0.57363447092E+03  0.89970175685E+03  0.65864270000E+03 0.  1.
    8880022    1    1    2    0    0  0.28517426156E+02 -0.21397031381E+03 -0.46153247404E+02  0.26854853202E+03  0.15294330000E+03 0.  0.
<mgrwt>
<rscale>  0 0.54479299E+03</rscale>
<asrwt>0</asrwt>
<pdfrwt beam="1">  1        1 0.49289929E-01 0.69311380E+03</pdfrwt>
<pdfrwt beam="2">  1       -1 0.13044088E+00 0.69311380E+03</pdfrwt>
<totfact> 0.41511826E+01</totfact>
</mgrwt>
</event>
<event>
 4    2  0.4681349E-007  0.6914279E+03  0.7818608E-02  0.1003481E+00
         -1   -1    0    0    0  501 -0.00000000000E+00  0.00000000000E+00  0.36369382339E+03  0.36369382343E+03  0.50400000000E-02 0.  1.
          1   -1    0    0  501    0  0.00000000000E+00 -0.00000000000E+00 -0.16261140290E+04  0.16261140290E+04  0.50400000000E-02 0. -1.
    8880023    1    1    2    0    0  0.93215001153E+02 -0.18860901226E+03  0.95720488744E+01  0.69149419833E+03  0.65864270000E+03 0.  1.
    8880022    1    1    2    0    0 -0.93215001153E+02  0.18860901226E+03 -0.12719922545E+04  0.12983136541E+04  0.15294330000E+03 0.  0.
<mgrwt>
<rscale>  0 0.54149808E+03</rscale>
<asrwt>0</asrwt>
<pdfrwt beam="1">  1        1 0.25017138E+00 0.69142794E+03</pdfrwt>
<pdfrwt beam="2">  1       -1 0.55952897E-01 0.69142794E+03</pdfrwt>
<totfact> 0.18089292E+01</totfact>
</mgrwt>
</event>
<event>
 4    2  0.4681349E-007  0.9637792E+03  0.7818608E-02  0.9430560E-01
          1   -1    0    0  501    0  0.00000000000E+00  0.00000000000E+00  0.22922057747E+04  0.22922057747E+04  0.50400000000E-02 0. -1.
         -1   -1    0    0    0  501 -0.00000000000E+00 -0.00000000000E+00 -0.10109272878E+04  0.10109272879E+04  0.50400000000E-02 0.  1.
    8880023    1    1    2    0    0 -0.66599900409E+03  0.22694805137E+03 -0.70255829641E+03  0.11926686286E+04  0.65864270000E+03 0.  0.
    8880022    1    1    2    0    0  0.66599900409E+03 -0.22694805137E+03  0.19838367833E+04  0.21104644340E+04  0.15294330000E+03 0.  0.
<mgrwt>
<rscale>  0 0.89602824E+03</rscale>
<asrwt>0</asrwt>
<pdfrwt beam="1">  1        1 0.35264704E+00 0.96377917E+03</pdfrwt>
<pdfrwt beam="2">  1       -1 0.15552728E+00 0.96377917E+03</pdfrwt>
<totfact> 0.60861437E-01</totfact>
</mgrwt>
</event>
<event>
 4    2  0.4681349E-007  0.1234355E+04  0.7818608E-02  0.9124430E-01
         -1   -1    0    0    0  501 -0.00000000000E+00  0.00000000000E+00  0.27756108475E+04  0.27756108475E+04  0.50400000000E-02 0.  1.
          1   -1    0    0  501    0  0.00000000000E+00 -0.00000000000E+00 -0.22948954782E+04  0.22948954782E+04  0.50400000000E-02 0. -1.
    8880023    1    1    2    0    0  0.46643660351E+03  0.93394757131E+03 -0.20138220870E+04  0.23620141353E+04  0.65864270000E+03 0.  0.
    8880022    1    1    2    0    0 -0.46643660351E+03 -0.93394757131E+03  0.24945374564E+04  0.27084921904E+04  0.15294330000E+03 0.  0.
<mgrwt>
<rscale>  0 0.11868675E+04</rscale>
<asrwt>0</asrwt>
<pdfrwt beam="1">  1        1 0.35306084E+00 0.12343546E+04</pdfrwt>
<pdfrwt beam="2">  1       -1 0.42701705E+00 0.12343546E+04</pdfrwt>
<totfact> 0.86486452E-03</totfact>
</mgrwt>
</event>
<event>
 4    2  0.4681349E-007  0.9180603E+03  0.7818608E-02  0.9497640E-01
          1   -1    0    0  501    0  0.00000000000E+00  0.00000000000E+00  0.18513446511E+04  0.18513446511E+04  0.50400000000E-02 0. -1.
         -1   -1    0    0    0  501 -0.00000000000E+00 -0.00000000000E+00 -0.67987435989E+03  0.67987435991E+03  0.50400000000E-02 0.  1.
    8880023    1    1    2    0    0  0.63942434606E+03 -0.12687441123E+02 -0.26149479784E+03  0.95457540355E+03  0.65864270000E+03 0.  1.
    8880022    1    1    2    0    0 -0.63942434606E+03  0.12687441123E+02  0.14329650890E+04  0.15766436074E+04  0.15294330000E+03 0. -1.
<mgrwt>
<rscale>  0 0.84458066E+03</rscale>
<asrwt>0</asrwt>
<pdfrwt beam="1">  1        1 0.28482226E+00 0.91806028E+03</pdfrwt>
<pdfrwt beam="2">  1       -1 0.10459605E+00 0.91806028E+03</pdfrwt>
<totfact> 0.32971307E+00</totfact>
</mgrwt>
</event>
<event>
 4    2  0.4681349E-007  0.7145882E+03  0.7818608E-02  0.9941342E-01
         -1   -1    0    0    0  501 -0.00000000000E+00  0.00000000000E+00  0.81633415008E+03  0.81633415010E+03  0.50400000000E-02 0.  1.
          1   -1    0    0  501    0  0.00000000000E+00 -0.00000000000E+00 -0.13803320764E+04  0.13803320764E+04  0.50400000000E-02 0. -1.
    8880023    1    1    2    0    0  0.13428686797E+03 -0.24247304293E+03  0.63537950122E+03  0.95621308101E+03  0.65864270000E+03 0.  1.
    8880022    1    1    2    0    0 -0.13428686797E+03  0.24247304293E+03 -0.11993774275E+04  0.12404531455E+04  0.15294330000E+03 0.  0.
<mgrwt>
<rscale>  0 0.58298852E+03</rscale>
<asrwt>0</asrwt>
<pdfrwt beam="1">  1        1 0.21235878E+00 0.71458824E+03</pdfrwt>
<pdfrwt beam="2">  1       -1 0.12558987E+00 0.71458824E+03</pdfrwt>
<totfact> 0.45936423E+00</totfact>
</mgrwt>
</event>
<event>
 4    2  0.4681349E-007  0.1221291E+04  0.7818608E-02  0.9136699E-01
          1   -1    0    0  501    0  0.00000000000E+00  0.00000000000E+00  0.12463835050E+04  0.12463835050E+04  0.50400000000E-02 0. -1.
         -1   -1    0    0    0  501 -0.00000000000E+00 -0.00000000000E+00 -0.14752602524E+04  0.14752602524E+04  0.50400000000E-02 0.  1.
    8880023    1    1    2    0    0  0.93618938139E+03  0.42578137251E+03 -0.87055712828E+03  0.14998067392E+04  0.65864270000E+03 0.  0.
    8880022    1    1    2    0    0 -0.93618938139E+03 -0.42578137251E+03  0.64168038088E+03  0.12218370183E+04  0.15294330000E+03 0.  0.
<mgrwt>
<rscale>  0 0.11731379E+04</rscale>
<asrwt>0</asrwt>
<pdfrwt beam="1">  1        1 0.19175131E+00 0.12212905E+04</pdfrwt>
<pdfrwt beam="2">  1       -1 0.22696312E+00 0.12212905E+04</pdfrwt>
<totfact> 0.95587722E-01</totfact>
</mgrwt>
</event>
<event>
 4    2  0.4681349E-007  0.9518145E+03  0.7818608E-02  0.9447508E-01
         -1   -1    0    0    0  501 -0.00000000000E+00  0.00000000000E+00  0.10089826244E+04  0.10089826244E+04  0.50400000000E-02 0.  1.
          1   -1    0    0  501    0  0.00000000000E+00 -0.00000000000E+00 -0.22591089856E+04  0.22591089856E+04  0.50400000000E-02 0. -1.
    8880023    1    1    2    0    0 -0.29753209702E+03 -0.61936679897E+03  0.70866041495E+03  0.11866551186E+04  0.65864270000E+03 0.  1.
    8880022    1    1    2    0    0  0.29753209702E+03  0.61936679897E+03 -0.19587867762E+04  0.20814364915E+04  0.15294330000E+03 0.  0.
<mgrwt>
<rscale>  0 0.88266970E+03</rscale>
<asrwt>0</asrwt>
<pdfrwt beam="1">  1        1 0.34755523E+00 0.95181447E+03</pdfrwt>
<pdfrwt beam="2">  1       -1 0.15522810E+00 0.95181447E+03</pdfrwt>
<totfact> 0.64562313E-01</totfact>
</mgrwt>
</event>
<event>
 4    2  0.4681349E-007  0.8406577E+03  0.7818608E-02  0.9628941E-01
          1   -1    0    0  501    0  0.00000000000E+00  0.00000000000E+00  0.93888535182E+03  0.93888535184E+03  0.50400000000E-02 0. -1.
         -1   -1    0    0    0  501 -0.00000000000E+00 -0.00000000000E+00 -0.10056842854E+04  0.10056842854E+04  0.50400000000E-02 0.  1.
    8880023    1    1    2    0    0  0.31411036148E+03  0.41740845173E+03 -0.71112973604E+03  0.11010952922E+04  0.65864270000E+03 0.  0.
    8880022    1    1    2    0    0 -0.31411036148E+03 -0.41740845173E+03  0.64433080245E+03  0.84347434506E+03  0.15294330000E+03 0.  0.
<mgrwt>
<rscale>  0 0.75409911E+03</rscale>
<asrwt>0</asrwt>
<pdfrwt beam="1">  1        1 0.14444390E+00 0.84065768E+03</pdfrwt>
<pdfrwt beam="2">  1       -1 0.15472066E+00 0.84065768E+03</pdfrwt>
<totfact> 0.55464978E+00</totfact>
</mgrwt>
</event>
<event>
 4    2  0.4681349E-007  0.7235816E+03  0.7818608E-02  0.9910648E-01
         -1   -1    0    0    0  501 -0.00000000000E+00  0.00000000000E+00  0.77172957506E+03  0.77172957508E+03  0.50400000000E-02 0.  1.
          1   -1    0    0  501    0  0.00000000000E+00 -0.00000000000E+00 -0.74643782549E+03  0.74643782551E+03  0.50400000000E-02 0. -1.
    8880023    1    1    2    0    0  0.19633443376E+03  0.22630276106E+03  0.54029287917E+03  0.90304305052E+03  0.65864270000E+03 0.  1.
    8880022    1    1    2    0    0 -0.19633443376E+03 -0.22630276106E+03 -0.51500112960E+03  0.61512435007E+03  0.15294330000E+03 0.  0.
<mgrwt>
<rscale>  0 0.59747994E+03</rscale>
<asrwt>0</asrwt>
<pdfrwt beam="1">  1        1 0.11483659E+00 0.72358162E+03</pdfrwt>
<pdfrwt beam="2">  1       -1 0.11872763E+00 0.72358162E+03</pdfrwt>
<totfact> 0.16174783E+01</totfact>
</mgrwt>
</event>
<event>
 4    2  0.4681349E-007  0.7068877E+03  0.7818608E-02  0.9969745E-01
          1   -1    0    0  501    0  0.00000000000E+00  0.00000000000E+00  0.10197714369E+04  0.10197714369E+04  0.50400000000E-02 0. -1.
         -1   -1    0    0    0  501 -0.00000000000E+00 -0.00000000000E+00 -0.33237806268E+03  0.33237806272E+03  0.50400000000E-02 0.  1.
    8880023    1    1    2    0    0 -0.15078503249E+03 -0.20771093012E+03  0.12859719020E+03  0.71848966597E+03  0.65864270000E+03 0.  1.
    8880022    1    1    2    0    0  0.15078503249E+03  0.20771093012E+03  0.55879618400E+03  0.63365983365E+03  0.15294330000E+03 0.  0.
<mgrwt>
<rscale>  0 0.56996996E+03</rscale>
<asrwt>0</asrwt>
<pdfrwt beam="1">  1        1 0.15688791E+00 0.70688766E+03</pdfrwt>
<pdfrwt beam="2">  1       -1 0.51135087E-01 0.70688766E+03</pdfrwt>
<totfact> 0.57705589E+01</totfact>
</mgrwt>
</event>
<event>
 4    2  0.4681349E-007  0.7548136E+03  0.7818608E-02  0.9818724E-01
         -1   -1    0    0    0  501 -0.00000000000E+00  0.00000000000E+00  0.24109828822E+03  0.24109828827E+03  0.50400000000E-02 0.  1.
          1   -1    0    0  501    0  0.00000000000E+00 -0.00000000000E+00 -0.16764003535E+04  0.16764003535E+04  0.50400000000E-02 0. -1.
    8880023    1    1    2    0    0  0.36666910817E+03  0.38563500465E+02 -0.51331650925E+03  0.91281839562E+03  0.65864270000E+03 0.  0.
    8880022    1    1    2    0    0 -0.36666910817E+03 -0.38563500465E+02 -0.92198555601E+03  0.10046802461E+04  0.15294330000E+03 0.  1.
<mgrwt>
<rscale>  0 0.64367300E+03</rscale>
<asrwt>0</asrwt>
<pdfrwt beam="1">  1        1 0.25790774E+00 0.75481361E+03</pdfrwt>
<pdfrwt beam="2">  1       -1 0.37092046E-01 0.75481361E+03</pdfrwt>
<totfact> 0.35667554E+01</totfact>
</mgrwt>
</event>
<event>
 4    2  0.4681349E-007  0.7049238E+03  0.7818608E-02  0.9977357E-01
          1   -1    0    0  501    0  0.00000000000E+00  0.00000000000E+00  0.16438104778E+04  0.16438104778E+04  0.50400000000E-02 0. -1.
         -1   -1    0    0    0  501 -0.00000000000E+00 -0.00000000000E+00 -0.23958383924E+03  0.23958383930E+03  0.50400000000E-02 0.  1.
    8880023    1    1    2    0    0 -0.16076507931E+03  0.19303344956E+03  0.34638674815E+03  0.78543065189E+03  0.65864270000E+03 0.  0.
    8880022    1    1    2    0    0  0.16076507931E+03 -0.19303344956E+03  0.10578398904E+04  0.10979636652E+04  0.15294330000E+03 0.  0.
<mgrwt>
<rscale>  0 0.56654315E+03</rscale>
<asrwt>0</asrwt>
<pdfrwt beam="1">  1        1 0.25289393E+00 0.70492378E+03</pdfrwt>
<pdfrwt beam="2">  1       -1 0.36859050E-01 0.70492378E+03</pdfrwt>
<totfact> 0.38178214E+01</totfact>
</mgrwt>
</event>
<event>
 4    2  0.4681349E-007  0.8354064E+03  0.7818608E-02  0.9638903E-01
          1   -1    0    0  501    0  0.00000000000E+00  0.00000000000E+00  0.22137705603E+04  0.22137705603E+04  0.50400000000E-02 0. -1.
         -1   -1    0    0    0  501 -0.00000000000E+00 -0.00000000000E+00 -0.27276184742E+03  0.27276184746E+03  0.50400000000E-02 0.  1.
    8880023    1    1    2    0    0  0.30906815288E+03 -0.41057339225E+03  0.17091083168E+04  0.19023551399E+04  0.65864270000E+03 0.  0.
    8880022    1    1    2    0    0 -0.30906815288E+03  0.41057339225E+03  0.23190039607E+03  0.58417726784E+03  0.15294330000E+03 0.  0.
<mgrwt>
<rscale>  0 0.74773946E+03</rscale>
<asrwt>0</asrwt>
<pdfrwt beam="1">  1        1 0.34058010E+00 0.83540639E+03</pdfrwt>
<pdfrwt beam="2">  1       -1 0.41963359E-01 0.83540639E+03</pdfrwt>
<totfact> 0.12299083E+01</totfact>
</mgrwt>
</event>
<event>
 4    2  0.4681349E-007  0.7133515E+03  0.7818608E-02  0.9945760E-01
         -1   -1    0    0    0  501 -0.00000000000E+00  0.00000000000E+00  0.13049956372E+03  0.13049956382E+03  0.50400000000E-02 0.  1.
          1   -1    0    0  501    0  0.00000000000E+00 -0.00000000000E+00 -0.25382516879E+04  0.25382516879E+04  0.50400000000E-02 0. -1.
    8880023    1    1    2    0    0  0.13313981233E+03 -0.23944499294E+03 -0.10118996518E+04  0.12380675369E+04  0.65864270000E+03 0.  0.
    8880022    1    1    2    0    0 -0.13313981233E+03  0.23944499294E+03 -0.13958524724E+04  0.14306837149E+04  0.15294330000E+03 0.  0.
<mgrwt>
<rscale>  0 0.58093910E+03</rscale>
<asrwt>0</asrwt>
<pdfrwt beam="1">  1        1 0.39050022E+00 0.71335147E+03</pdfrwt>
<pdfrwt beam="2">  1       -1 0.20076858E-01 0.71335147E+03</pdfrwt>
<totfact> 0.27233735E+01</totfact>
</mgrwt>
</event>
<event>
 4    2  0.4681349E-007  0.8678488E+03  0.7818608E-02  0.9579752E-01
         -1   -1    0    0    0  501 -0.00000000000E+00  0.00000000000E+00  0.28147078353E+03  0.28147078357E+03  0.50400000000E-02 0.  1.
          1   -1    0    0  501    0  0.00000000000E+00 -0.00000000000E+00 -0.18898183036E+04  0.18898183036E+04  0.50400000000E-02 0. -1.
    8880023    1    1    2    0    0  0.42505238228E+03  0.37240012113E+03 -0.86792053673E+03  0.12273742878E+04  0.65864270000E+03 0.  0.
    8880022    1    1    2    0    0 -0.42505238228E+03 -0.37240012113E+03 -0.74042698337E+03  0.94391479944E+03  0.15294330000E+03 0.  1.
<mgrwt>
<rscale>  0 0.78650980E+03</rscale>
<asrwt>0</asrwt>
<pdfrwt beam="1">  1        1 0.29074127E+00 0.86784883E+03</pdfrwt>
<pdfrwt beam="2">  1       -1 0.43303199E-01 0.86784883E+03</pdfrwt>
<totfact> 0.19071016E+01</totfact>
</mgrwt>
</event>
<event>
 4    2  0.4681349E-007  0.6799244E+03  0.7818608E-02  0.1009366E+00
         -1   -1    0    0    0  501 -0.00000000000E+00  0.00000000000E+00  0.74174085165E+03  0.74174085167E+03  0.50400000000E-02 0.  1.
          1   -1    0    0  501    0  0.00000000000E+00 -0.00000000000E+00 -0.36664696710E+03  0.36664696714E+03  0.50400000000E-02 0. -1.
    8880023    1    1    2    0    0 -0.14751493307E+03  0.82014384399E+02  0.50429264249E+03  0.84652719405E+03  0.65864270000E+03 0.  1.
    8880022    1    1    2    0    0  0.14751493307E+03 -0.82014384399E+02 -0.12919875795E+03  0.26186062476E+03  0.15294330000E+03 0.  0.
<mgrwt>
<rscale>  0 0.51727213E+03</rscale>
<asrwt>0</asrwt>
<pdfrwt beam="1">  1        1 0.56407226E-01 0.67992442E+03</pdfrwt>
<pdfrwt beam="2">  1       -1 0.11411398E+00 0.67992442E+03</pdfrwt>
<totfact> 0.48363853E+01</totfact>
</mgrwt>
</event>
<event>
 4    2  0.4681349E-007  0.8609225E+03  0.7818608E-02  0.9591925E-01
         -1   -1    0    0    0  501 -0.00000000000E+00  0.00000000000E+00  0.76726942542E+03  0.76726942543E+03  0.50400000000E-02 0.  1.
          1   -1    0    0  501    0  0.00000000000E+00 -0.00000000000E+00 -0.11599375115E+04  0.11599375115E+04  0.50400000000E-02 0. -1.
    8880023    1    1    2    0    0  0.51103665384E+03 -0.21498595405E+03  0.39883386511E+03  0.94881825458E+03  0.65864270000E+03 0.  1.
    8880022    1    1    2    0    0 -0.51103665384E+03  0.21498595405E+03 -0.79150195117E+03  0.97838868234E+03  0.15294330000E+03 0.  0.
<mgrwt>
<rscale>  0 0.77832983E+03</rscale>
<asrwt>0</asrwt>
<pdfrwt beam="1">  1        1 0.17845193E+00 0.86092254E+03</pdfrwt>
<pdfrwt beam="2">  1       -1 0.11804145E+00 0.86092254E+03</pdfrwt>
<totfact> 0.75165439E+00</totfact>
</mgrwt>
</event>
<event>
 4    2  0.4681349E-007  0.8066871E+03  0.7818608E-02  0.9696519E-01
         -1   -1    0    0    0  501 -0.00000000000E+00  0.00000000000E+00  0.58544609704E+03  0.58544609707E+03  0.50400000000E-02 0.  1.
          1   -1    0    0  501    0  0.00000000000E+00 -0.00000000000E+00 -0.87787474635E+03  0.87787474637E+03  0.50400000000E-02 0. -1.
    8880023    1    1    2    0    0  0.28307429531E+03 -0.36986872380E+03  0.12889025336E+03  0.81691911055E+03  0.65864270000E+03 0.  1.
    8880022    1    1    2    0    0 -0.28307429531E+03  0.36986872380E+03 -0.42131890267E+03  0.64640173288E+03  0.15294330000E+03 0.  0.
<mgrwt>
<rscale>  0 0.71224408E+03</rscale>
<asrwt>0</asrwt>
<pdfrwt beam="1">  1        1 0.13505765E+00 0.80668714E+03</pdfrwt>
<pdfrwt beam="2">  1       -1 0.90068631E-01 0.80668714E+03</pdfrwt>
<totfact> 0.23366789E+01</totfact>
</mgrwt>
</event>
<event>
 4    2  0.4681349E-007  0.8360703E+03  0.7818608E-02  0.9637635E-01
         -1   -1    0    0    0  501 -0.00000000000E+00  0.00000000000E+00  0.10908562062E+04  0.10908562062E+04  0.50400000000E-02 0.  1.
          1   -1    0    0  501    0  0.00000000000E+00 -0.00000000000E+00 -0.16345091472E+04  0.16345091472E+04  0.50400000000E-02 0. -1.
    8880023    1    1    2    0    0  0.41845525520E+03  0.30016423896E+03  0.87390324804E+03  0.12094298095E+04  0.65864270000E+03 0.  1.
    8880022    1    1    2    0    0 -0.41845525520E+03 -0.30016423896E+03 -0.14175561891E+04  0.15159355439E+04  0.15294330000E+03 0.  0.
<mgrwt>
<rscale>  0 0.74854551E+03</rscale>
<asrwt>0</asrwt>
<pdfrwt beam="1">  1        1 0.25146295E+00 0.83607032E+03</pdfrwt>
<pdfrwt beam="2">  1       -1 0.16782403E+00 0.83607032E+03</pdfrwt>
<totfact> 0.13954418E+00</totfact>
</mgrwt>
</event>
<event>
 4    2  0.4681349E-007  0.9646515E+03  0.7818608E-02  0.9429340E-01
          1   -1    0    0  501    0  0.00000000000E+00  0.00000000000E+00  0.25653404494E+04  0.25653404494E+04  0.50400000000E-02 0. -1.
         -1   -1    0    0    0  501 -0.00000000000E+00 -0.00000000000E+00 -0.48521138764E+03  0.48521138766E+03  0.50400000000E-02 0.  1.
    8880023    1    1    2    0    0  0.45979131804E+03  0.53416686758E+03  0.13253476317E+03  0.97371349393E+03  0.65864270000E+03 0.  0.
    8880022    1    1    2    0    0 -0.45979131804E+03 -0.53416686758E+03  0.19475942986E+04  0.20768383431E+04  0.15294330000E+03 0.  0.
<mgrwt>
<rscale>  0 0.89699956E+03</rscale>
<asrwt>0</asrwt>
<pdfrwt beam="1">  1        1 0.39466775E+00 0.96465149E+03</pdfrwt>
<pdfrwt beam="2">  1       -1 0.74647907E-01 0.96465149E+03</pdfrwt>
<totfact> 0.22589267E+00</totfact>
</mgrwt>
</event>
<event>
 4    2  0.4681349E-007  0.1111439E+04  0.7818608E-02  0.9248426E-01
         -1   -1    0    0    0  501 -0.00000000000E+00  0.00000000000E+00  0.14170126840E+04  0.14170126840E+04  0.50400000000E-02 0.  1.
          1   -1    0    0  501    0  0.00000000000E+00 -0.00000000000E+00 -0.13843681678E+04  0.13843681678E+04  0.50400000000E-02 0. -1.
    8880023    1    1    2    0    0 -0.47926297697E+03  0.75617065187E+03  0.98520142000E+03  0.14852336853E+04  0.65864270000E+03 0.  0.
    8880022    1    1    2    0    0  0.47926297697E+03 -0.75617065187E+03 -0.95255690382E+03  0.13161471665E+04  0.15294330000E+03 0.  0.
<mgrwt>
<rscale>  0 0.10567276E+04</rscale>
<asrwt>0</asrwt>
<pdfrwt beam="1">  1        1 0.21297972E+00 0.11114393E+04</pdfrwt>
<pdfrwt beam="2">  1       -1 0.21800195E+00 0.11114393E+04</pdfrwt>
<totfact> 0.88673006E-01</totfact>
</mgrwt>
</event>
<event>
 4    2  0.4681349E-007  0.7284530E+03  0.7818608E-02  0.9894957E-01
         -1   -1    0    0    0  501 -0.00000000000E+00  0.00000000000E+00  0.38880753632E+03  0.38880753635E+03  0.50400000000E-02 0.  1.
          1   -1    0    0  501    0  0.00000000000E+00 -0.00000000000E+00 -0.76230237307E+03  0.76230237309E+03  0.50400000000E-02 0. -1.
    8880023    1    1    2    0    0 -0.48744842819E+02 -0.30733930884E+03 -0.16633022867E+03  0.74720108518E+03  0.65864270000E+03 0.  1.
    8880022    1    1    2    0    0  0.48744842819E+02  0.30733930884E+03 -0.20716460808E+03  0.40390882426E+03  0.15294330000E+03 0.  0.
<mgrwt>
<rscale>  0 0.60506294E+03</rscale>
<asrwt>0</asrwt>
<pdfrwt beam="1">  1        1 0.11727729E+00 0.72845296E+03</pdfrwt>
<pdfrwt beam="2">  1       -1 0.59816544E-01 0.72845296E+03</pdfrwt>
<totfact> 0.69188354E+01</totfact>
</mgrwt>
</event>
<event>
 4    2  0.4681349E-007  0.7686072E+03  0.7818608E-02  0.9783313E-01
          1   -1    0    0  501    0  0.00000000000E+00  0.00000000000E+00  0.32056871810E+04  0.32056871810E+04  0.50400000000E-02 0. -1.
         -1   -1    0    0    0  501 -0.00000000000E+00 -0.00000000000E+00 -0.66769459327E+03  0.66769459329E+03  0.50400000000E-02 0.  1.
    8880023    1    1    2    0    0 -0.22437178395E+03 -0.32650291059E+03 -0.42624021051E+03  0.87888439022E+03  0.65864270000E+03 0.  1.
    8880022    1    1    2    0    0  0.22437178395E+03  0.32650291059E+03  0.29642327982E+04  0.29944973840E+04  0.15294330000E+03 0.  0.
<mgrwt>
<rscale>  0 0.66265793E+03</rscale>
<asrwt>0</asrwt>
<pdfrwt beam="1">  1        1 0.49318264E+00 0.76860722E+03</pdfrwt>
<pdfrwt beam="2">  1       -1 0.10272225E+00 0.76860722E+03</pdfrwt>
<totfact> 0.40866408E-01</totfact>
</mgrwt>
</event>
<event>
 4    2  0.4681349E-007  0.8250020E+03  0.7818608E-02  0.9659136E-01
          1   -1    0    0  501    0  0.00000000000E+00  0.00000000000E+00  0.23722144013E+04  0.23722144013E+04  0.50400000000E-02 0. -1.
         -1   -1    0    0    0  501 -0.00000000000E+00 -0.00000000000E+00 -0.59325804178E+03  0.59325804180E+03  0.50400000000E-02 0.  1.
    8880023    1    1    2    0    0 -0.46100120815E+03  0.18519194753E+03 -0.25707838734E+03  0.86412827453E+03  0.65864270000E+03 0.  1.
    8880022    1    1    2    0    0  0.46100120815E+03 -0.18519194753E+03  0.20360347469E+04  0.21013441686E+04  0.15294330000E+03 0.  0.
<mgrwt>
<rscale>  0 0.73502805E+03</rscale>
<asrwt>0</asrwt>
<pdfrwt beam="1">  1        1 0.36495606E+00 0.82500205E+03</pdfrwt>
<pdfrwt beam="2">  1       -1 0.91270469E-01 0.82500205E+03</pdfrwt>
<totfact> 0.20340645E+00</totfact>
</mgrwt>
</event>
<event>
 4    2  0.4681349E-007  0.1349011E+04  0.7818608E-02  0.9024351E-01
         -1   -1    0    0    0  501 -0.00000000000E+00  0.00000000000E+00  0.74743552047E+03  0.74743552048E+03  0.50400000000E-02 0.  1.
          1   -1    0    0  501    0  0.00000000000E+00 -0.00000000000E+00 -0.23685594374E+04  0.23685594374E+04  0.50400000000E-02 0. -1.
    8880023    1    1    2    0    0  0.11021012914E+04  0.41399559469E+03 -0.38672032593E+03  0.14033468658E+04  0.65864270000E+03 0.  1.
    8880022    1    1    2    0    0 -0.11021012914E+04 -0.41399559469E+03 -0.12344035910E+04  0.17126480921E+04  0.15294330000E+03 0. -1.
<mgrwt>
<rscale>  0 0.13065958E+04</rscale>
<asrwt>0</asrwt>
<pdfrwt beam="1">  1        1 0.36439376E+00 0.13490107E+04</pdfrwt>
<pdfrwt beam="2">  1       -1 0.11499008E+00 0.13490107E+04</pdfrwt>
<totfact> 0.11121386E+00</totfact>
</mgrwt>
</event>
<event>
 4    2  0.4681349E-007  0.7781679E+03  0.7818608E-02  0.9760158E-01
          1   -1    0    0  501    0  0.00000000000E+00  0.00000000000E+00  0.99759675824E+03  0.99759675825E+03  0.50400000000E-02 0. -1.
         -1   -1    0    0    0  501 -0.00000000000E+00 -0.00000000000E+00 -0.10954827943E+04  0.10954827943E+04  0.50400000000E-02 0.  1.
    8880023    1    1    2    0    0 -0.26891489817E+03 -0.31530903570E+03 -0.89239834661E+03  0.11840270376E+04  0.65864270000E+03 0.  0.
    8880022    1    1    2    0    0  0.26891489817E+03  0.31530903570E+03  0.79451231052E+03  0.90905251500E+03  0.15294330000E+03 0.  0.
<mgrwt>
<rscale>  0 0.67545208E+03</rscale>
<asrwt>0</asrwt>
<pdfrwt beam="1">  1        1 0.15347643E+00 0.77816786E+03</pdfrwt>
<pdfrwt beam="2">  1       -1 0.16853581E+00 0.77816786E+03</pdfrwt>
<totfact> 0.39623225E+00</totfact>
</mgrwt>
</event>
<event>
 4    2  0.4681349E-007  0.7097903E+03  0.7818608E-02  0.9958781E-01
         -1   -1    0    0    0  501 -0.00000000000E+00  0.00000000000E+00  0.31760542706E+03  0.31760542710E+03  0.50400000000E-02 0.  1.
          1   -1    0    0  501    0  0.00000000000E+00 -0.00000000000E+00 -0.83133153202E+03  0.83133153203E+03  0.50400000000E-02 0. -1.
    8880023    1    1    2    0    0 -0.23214170298E+03 -0.12689463520E+03 -0.43818448866E+03  0.83415098817E+03  0.65864270000E+03 0.  1.
    8880022    1    1    2    0    0  0.23214170298E+03  0.12689463520E+03 -0.75541616299E+02  0.31478597096E+03  0.15294330000E+03 0. -1.
<mgrwt>
<rscale>  0 0.57495175E+03</rscale>
<asrwt>0</asrwt>
<pdfrwt beam="1">  1        1 0.12789716E+00 0.70979027E+03</pdfrwt>
<pdfrwt beam="2">  1       -1 0.48862374E-01 0.70979027E+03</pdfrwt>
<totfact> 0.89098343E+01</totfact>
</mgrwt>
</event>
<event>
 4    2  0.4681349E-007  0.8448043E+03  0.7818608E-02  0.9621187E-01
          1   -1    0    0  501    0  0.00000000000E+00  0.00000000000E+00  0.85493194277E+03  0.85493194279E+03  0.50400000000E-02 0. -1.
         -1   -1    0    0    0  501 -0.00000000000E+00 -0.00000000000E+00 -0.71195705190E+03  0.71195705192E+03  0.50400000000E-02 0.  1.
    8880023    1    1    2    0    0  0.12563786975E+03 -0.51390587185E+03  0.42773619068E+03  0.94691740639E+03  0.65864270000E+03 0.  1.
    8880022    1    1    2    0    0 -0.12563786975E+03  0.51390587185E+03 -0.28476129981E+03  0.61997158832E+03  0.15294330000E+03 0.  0.
<mgrwt>
<rscale>  0 0.75909618E+03</rscale>
<asrwt>0</asrwt>
<pdfrwt beam="1">  1        1 0.13152799E+00 0.84480431E+03</pdfrwt>
<pdfrwt beam="2">  1       -1 0.10953186E+00 0.84480431E+03</pdfrwt>
<totfact> 0.15566688E+01</totfact>
</mgrwt>
</event>
<event>
 4    2  0.4681349E-007  0.8658069E+03  0.7818608E-02  0.9583316E-01
          1   -1    0    0  501    0  0.00000000000E+00  0.00000000000E+00  0.11766023245E+04  0.11766023245E+04  0.50400000000E-02 0. -1.
         -1   -1    0    0    0  501 -0.00000000000E+00 -0.00000000000E+00 -0.51516378750E+03  0.51516378753E+03  0.50400000000E-02 0.  1.
    8880023    1    1    2    0    0  0.44275041346E+03 -0.34609741838E+03  0.69226995787E+03  0.11085392426E+04  0.65864270000E+03 0.  0.
    8880022    1    1    2    0    0 -0.44275041346E+03  0.34609741838E+03 -0.30831420903E+02  0.58322686937E+03  0.15294330000E+03 0.  0.
<mgrwt>
<rscale>  0 0.78410322E+03</rscale>
<asrwt>0</asrwt>
<pdfrwt beam="1">  1        1 0.18101574E+00 0.86580688E+03</pdfrwt>
<pdfrwt beam="2">  1       -1 0.79255967E-01 0.86580688E+03</pdfrwt>
<totfact> 0.17996816E+01</totfact>
</mgrwt>
</event>
<event>
 4    2  0.4681349E-007  0.6620021E+03  0.7818608E-02  0.1022193E+00
         -1   -1    0    0    0  501 -0.00000000000E+00  0.00000000000E+00  0.22244342378E+03  0.22244342384E+03  0.50400000000E-02 0.  1.
          1   -1    0    0  501    0  0.00000000000E+00 -0.00000000000E+00 -0.17078906580E+04  0.17078906580E+04  0.50400000000E-02 0. -1.
    8880023    1    1    2    0    0 -0.35294733215E+02  0.56487646938E+02 -0.28903667462E+03  0.72234962310E+03  0.65864270000E+03 0.  1.
    8880022    1    1    2    0    0  0.35294733215E+02 -0.56487646938E+02 -0.11964105596E+04  0.12079844587E+04  0.15294330000E+03 0.  0.
<mgrwt>
<rscale>  0 0.46903496E+03</rscale>
<asrwt>0</asrwt>
<pdfrwt beam="1">  1        1 0.26275240E+00 0.66200210E+03</pdfrwt>
<pdfrwt beam="2">  1       -1 0.34222066E-01 0.66200210E+03</pdfrwt>
<totfact> 0.39684484E+01</totfact>
</mgrwt>
</event>
<event>
 4    2  0.4681349E-007  0.7065876E+03  0.7818608E-02  0.9970898E-01
         -1   -1    0    0    0  501 -0.00000000000E+00  0.00000000000E+00  0.11631018296E+03  0.11631018307E+03  0.50400000000E-02 0.  1.
          1   -1    0    0  501    0  0.00000000000E+00 -0.00000000000E+00 -0.27685916964E+04  0.27685916964E+04  0.50400000000E-02 0. -1.
    8880023    1    1    2    0    0  0.23384271910E+03 -0.10379525180E+03 -0.11226778138E+04  0.13265261216E+04  0.65864270000E+03 0.  1.
    8880022    1    1    2    0    0 -0.23384271910E+03  0.10379525180E+03 -0.15296036997E+04  0.15583757578E+04  0.15294330000E+03 0.  0.
<mgrwt>
<rscale>  0 0.56944946E+03</rscale>
<asrwt>0</asrwt>
<pdfrwt beam="1">  1        1 0.42593714E+00 0.70658763E+03</pdfrwt>
<pdfrwt beam="2">  1       -1 0.17893876E-01 0.70658763E+03</pdfrwt>
<totfact> 0.22873522E+01</totfact>
</mgrwt>
</event>
<event>
 4    2  0.4681349E-007  0.7718248E+03  0.7818608E-02  0.9775403E-01
         -1   -1    0    0    0  501 -0.00000000000E+00  0.00000000000E+00  0.76227257731E+03  0.76227257733E+03  0.50400000000E-02 0.  1.
          1   -1    0    0  501    0  0.00000000000E+00 -0.00000000000E+00 -0.15352616965E+04  0.15352616965E+04  0.50400000000E-02 0. -1.
    8880023    1    1    2    0    0  0.14018170683E+03 -0.37716354874E+03  0.52273206910E+03  0.93218146074E+03  0.65864270000E+03 0.  0.
    8880022    1    1    2    0    0 -0.14018170683E+03  0.37716354874E+03 -0.12957211883E+04  0.13653528131E+04  0.15294330000E+03 0.  0.
<mgrwt>
<rscale>  0 0.66699406E+03</rscale>
<asrwt>0</asrwt>
<pdfrwt beam="1">  1        1 0.23619411E+00 0.77182476E+03</pdfrwt>
<pdfrwt beam="2">  1       -1 0.11727270E+00 0.77182476E+03</pdfrwt>
<totfact> 0.42088709E+00</totfact>
</mgrwt>
</event>
<event>
 4    2  0.4681349E-007  0.8281413E+03  0.7818608E-02  0.9652960E-01
         -1   -1    0    0    0  501 -0.00000000000E+00  0.00000000000E+00  0.91012976113E+03  0.91012976114E+03  0.50400000000E-02 0.  1.
          1   -1    0    0  501    0  0.00000000000E+00 -0.00000000000E+00 -0.88703992387E+03  0.88703992389E+03  0.50400000000E-02 0. -1.
    8880023    1    1    2    0    0  0.13547905391E+03  0.48337684905E+03  0.59594369991E+03  0.10202778308E+04  0.65864270000E+03 0.  1.
    8880022    1    1    2    0    0 -0.13547905391E+03 -0.48337684905E+03 -0.57285386265E+03  0.77689185426E+03  0.15294330000E+03 0.  0.
<mgrwt>
<rscale>  0 0.73887963E+03</rscale>
<asrwt>0</asrwt>
<pdfrwt beam="1">  1        1 0.13646768E+00 0.82814127E+03</pdfrwt>
<pdfrwt beam="2">  1       -1 0.14001996E+00 0.82814127E+03</pdfrwt>
<totfact> 0.79878343E+00</totfact>
</mgrwt>
</event>
<event>
 4    2  0.4681349E-007  0.7454185E+03  0.7818608E-02  0.9844435E-01
          1   -1    0    0  501    0  0.00000000000E+00  0.00000000000E+00  0.58299033630E+03  0.58299033632E+03  0.50400000000E-02 0. -1.
         -1   -1    0    0    0  501 -0.00000000000E+00 -0.00000000000E+00 -0.82209586199E+03  0.82209586201E+03  0.50400000000E-02 0.  1.
    8880023    1    1    2    0    0  0.11493142491E+03  0.32958956649E+03 -0.53922521938E+03  0.92000682511E+03  0.65864270000E+03 0.  1.
    8880022    1    1    2    0    0 -0.11493142491E+03 -0.32958956649E+03  0.30011969368E+03  0.48507937322E+03  0.15294330000E+03 0.  0.
<mgrwt>
<rscale>  0 0.63031439E+03</rscale>
<asrwt>0</asrwt>
<pdfrwt beam="1">  1        1 0.89690820E-01 0.74541849E+03</pdfrwt>
<pdfrwt beam="2">  1       -1 0.12647629E+00 0.74541849E+03</pdfrwt>
<totfact> 0.19922213E+01</totfact>
</mgrwt>
</event>
<event>
 4    2  0.4681349E-007  0.7850477E+03  0.7818608E-02  0.9744111E-01
          1   -1    0    0  501    0  0.00000000000E+00  0.00000000000E+00  0.55721757412E+03  0.55721757414E+03  0.50400000000E-02 0. -1.
         -1   -1    0    0    0  501 -0.00000000000E+00 -0.00000000000E+00 -0.74369780852E+03  0.74369780854E+03  0.50400000000E-02 0.  1.
    8880023    1    1    2    0    0 -0.25028397074E+03 -0.34619012281E+03 -0.28755090860E+03  0.83605346626E+03  0.65864270000E+03 0.  1.
    8880022    1    1    2    0    0  0.25028397074E+03  0.34619012281E+03  0.10107067420E+03  0.46486191642E+03  0.15294330000E+03 0. -1.
<mgrwt>
<rscale>  0 0.68450110E+03</rscale>
<asrwt>0</asrwt>
<pdfrwt beam="1">  1        1 0.85725780E-01 0.78504769E+03</pdfrwt>
<pdfrwt beam="2">  1       -1 0.11441505E+00 0.78504769E+03</pdfrwt>
<totfact> 0.27019381E+01</totfact>
</mgrwt>
</event>
<event>
 4    2  0.4681349E-007  0.8344892E+03  0.7818608E-02  0.9640660E-01
          1   -1    0    0  501    0  0.00000000000E+00  0.00000000000E+00  0.16245553176E+04  0.16245553176E+04  0.50400000000E-02 0. -1.
         -1   -1    0    0    0  501 -0.00000000000E+00 -0.00000000000E+00 -0.33960206436E+03  0.33960206440E+03  0.50400000000E-02 0.  1.
    8880023    1    1    2    0    0  0.47469670926E+03 -0.19293789355E+03  0.38887688283E+03  0.92065054869E+03  0.65864270000E+03 0.  0.
    8880022    1    1    2    0    0 -0.47469670926E+03  0.19293789355E+03  0.89607637036E+03  0.10435068333E+04  0.15294330000E+03 0.  0.
<mgrwt>
<rscale>  0 0.74662494E+03</rscale>
<asrwt>0</asrwt>
<pdfrwt beam="1">  1        1 0.24993159E+00 0.83448919E+03</pdfrwt>
<pdfrwt beam="2">  1       -1 0.52246472E-01 0.83448919E+03</pdfrwt>
<totfact> 0.20300125E+01</totfact>
</mgrwt>
</event>
<event>
 4    2  0.4681349E-007  0.6931928E+03  0.7818608E-02  0.1002671E+00
          1   -1    0    0  501    0  0.00000000000E+00  0.00000000000E+00  0.96274568086E+03  0.96274568088E+03  0.50400000000E-02 0. -1.
         -1   -1    0    0    0  501 -0.00000000000E+00 -0.00000000000E+00 -0.31836419956E+03  0.31836419960E+03  0.50400000000E-02 0.  1.
    8880023    1    1    2    0    0 -0.87428276844E+02  0.19764204612E+03  0.13383204979E+03  0.70599384261E+03  0.65864270000E+03 0.  1.
    8880022    1    1    2    0    0  0.87428276844E+02 -0.19764204612E+03  0.51054943151E+03  0.57511603787E+03  0.15294330000E+03 0.  0.
<mgrwt>
<rscale>  0 0.54494609E+03</rscale>
<asrwt>0</asrwt>
<pdfrwt beam="1">  1        1 0.14811472E+00 0.69319282E+03</pdfrwt>
<pdfrwt beam="2">  1       -1 0.48979108E-01 0.69319282E+03</pdfrwt>
<totfact> 0.69423226E+01</totfact>
</mgrwt>
</event>
<event>
 4    2  0.4681349E-007  0.1073044E+04  0.7818608E-02  0.9291679E-01
         -1   -1    0    0    0  501 -0.00000000000E+00  0.00000000000E+00  0.17582500896E+04  0.17582500896E+04  0.50400000000E-02 0.  1.
          1   -1    0    0  501    0  0.00000000000E+00 -0.00000000000E+00 -0.85143879682E+03  0.85143879684E+03  0.50400000000E-02 0. -1.
    8880023    1    1    2    0    0  0.63288737605E+03  0.56308639178E+03  0.12810159930E+04  0.16710550248E+04  0.65864270000E+03 0.  0.
    8880022    1    1    2    0    0 -0.63288737605E+03 -0.56308639178E+03 -0.37420470028E+03  0.93863386158E+03  0.15294330000E+03 0.  0.
<mgrwt>
<rscale>  0 0.10155251E+04</rscale>
<asrwt>0</asrwt>
<pdfrwt beam="1">  1        1 0.13099058E+00 0.10730438E+04</pdfrwt>
<pdfrwt beam="2">  1       -1 0.27050001E+00 0.10730438E+04</pdfrwt>
<totfact> 0.10243615E+00</totfact>
</mgrwt>
</event>
<event>
 4    2  0.4681349E-007  0.6950039E+03  0.7818608E-02  0.1001859E+00
         -1   -1    0    0    0  501 -0.00000000000E+00  0.00000000000E+00  0.10590214458E+04  0.10590214458E+04  0.50400000000E-02 0.  1.
          1   -1    0    0  501    0  0.00000000000E+00 -0.00000000000E+00 -0.52092165466E+03  0.52092165468E+03  0.50400000000E-02 0. -1.
    8880023    1    1    2    0    0  0.16178926293E+03  0.15180375405E+03  0.89473517116E+03  0.11329525048E+04  0.65864270000E+03 0.  1.
    8880022    1    1    2    0    0 -0.16178926293E+03 -0.15180375405E+03 -0.35663538002E+03  0.44699059570E+03  0.15294330000E+03 0.  0.
<mgrwt>
<rscale>  0 0.54842382E+03</rscale>
<asrwt>0</asrwt>
<pdfrwt beam="1">  1        1 0.80141793E-01 0.69500385E+03</pdfrwt>
<pdfrwt beam="2">  1       -1 0.16292638E+00 0.69500385E+03</pdfrwt>
<totfact> 0.12052409E+01</totfact>
</mgrwt>
</event>
<event>
 4    2  0.4681349E-007  0.6933639E+03  0.7818608E-02  0.1002593E+00
          1   -1    0    0  501    0  0.00000000000E+00  0.00000000000E+00  0.18849771330E+04  0.18849771330E+04  0.50400000000E-02 0. -1.
         -1   -1    0    0    0  501 -0.00000000000E+00 -0.00000000000E+00 -0.24149185187E+03  0.24149185192E+03  0.50400000000E-02 0.  1.
    8880023    1    1    2    0    0 -0.33976413558E+02 -0.21398353838E+03  0.29730968144E+03  0.75441805673E+03  0.65864270000E+03 0.  1.
    8880022    1    1    2    0    0  0.33976413558E+02  0.21398353838E+03  0.13461755997E+04  0.13720509282E+04  0.15294330000E+03 0.  0.
<mgrwt>
<rscale>  0 0.54527725E+03</rscale>
<asrwt>0</asrwt>
<pdfrwt beam="1">  1        1 0.28999648E+00 0.69336394E+03</pdfrwt>
<pdfrwt beam="2">  1       -1 0.37152593E-01 0.69336394E+03</pdfrwt>
<totfact> 0.25984790E+01</totfact>
</mgrwt>
</event>
<event>
 4    2  0.4681349E-007  0.9680317E+03  0.7818608E-02  0.9424632E-01
         -1   -1    0    0    0  501 -0.00000000000E+00  0.00000000000E+00  0.13975289181E+04  0.13975289181E+04  0.50400000000E-02 0.  1.
          1   -1    0    0  501    0  0.00000000000E+00 -0.00000000000E+00 -0.98011309774E+03  0.98011309775E+03  0.50400000000E-02 0. -1.
    8880023    1    1    2    0    0  0.70369695384E+03 -0.89921120469E+02  0.10404761779E+04  0.14211530860E+04  0.65864270000E+03 0.  1.
    8880022    1    1    2    0    0 -0.70369695384E+03  0.89921120469E+02 -0.62306035757E+03  0.95648892986E+03  0.15294330000E+03 0.  0.
<mgrwt>
<rscale>  0 0.90076021E+03</rscale>
<asrwt>0</asrwt>
<pdfrwt beam="1">  1        1 0.15078663E+00 0.96803172E+03</pdfrwt>
<pdfrwt beam="2">  1       -1 0.21500445E+00 0.96803172E+03</pdfrwt>
<totfact> 0.18829185E+00</totfact>
</mgrwt>
</event>
<event>
 4    2  0.4681349E-007  0.8374000E+03  0.7818608E-02  0.9635102E-01
          1   -1    0    0  501    0  0.00000000000E+00  0.00000000000E+00  0.84996943268E+03  0.84996943269E+03  0.50400000000E-02 0. -1.
         -1   -1    0    0    0  501 -0.00000000000E+00 -0.00000000000E+00 -0.62915164055E+03  0.62915164058E+03  0.50400000000E-02 0.  1.
    8880023    1    1    2    0    0 -0.50411030911E+03 -0.11533154261E+03 -0.11284219526E+03  0.84496871881E+03  0.65864270000E+03 0.  0.
    8880022    1    1    2    0    0  0.50411030911E+03  0.11533154261E+03  0.33365998738E+03  0.63415235446E+03  0.15294330000E+03 0.  0.
<mgrwt>
<rscale>  0 0.75015809E+03</rscale>
<asrwt>0</asrwt>
<pdfrwt beam="1">  1        1 0.13076453E+00 0.83740001E+03</pdfrwt>
<pdfrwt beam="2">  1       -1 0.96792560E-01 0.83740001E+03</pdfrwt>
<totfact> 0.20928054E+01</totfact>
</mgrwt>
</event>
<event>
 4    2  0.4681349E-007  0.8908797E+03  0.7818608E-02  0.9540834E-01
         -1   -1    0    0    0  501 -0.00000000000E+00  0.00000000000E+00  0.13283080632E+04  0.13283080632E+04  0.50400000000E-02 0.  1.
          1   -1    0    0  501    0  0.00000000000E+00 -0.00000000000E+00 -0.10655833075E+04  0.10655833075E+04  0.50400000000E-02 0. -1.
    8880023    1    1    2    0    0 -0.52100341993E+03 -0.29734140013E+03  0.10598930295E+04  0.13845721043E+04  0.65864270000E+03 0.  0.
    8880022    1    1    2    0    0  0.52100341993E+03  0.29734140013E+03 -0.79716827378E+03  0.10093192664E+04  0.15294330000E+03 0.  0.
<mgrwt>
<rscale>  0 0.81339090E+03</rscale>
<asrwt>0</asrwt>
<pdfrwt beam="1">  1        1 0.16393589E+00 0.89087972E+03</pdfrwt>
<pdfrwt beam="2">  1       -1 0.20435509E+00 0.89087972E+03</pdfrwt>
<totfact> 0.19300023E+00</totfact>
</mgrwt>
</event>
<event>
 4    2  0.4681349E-007  0.6680315E+03  0.7818608E-02  0.1017115E+00
          1   -1    0    0  501    0  0.00000000000E+00  0.00000000000E+00  0.13820567256E+04  0.13820567256E+04  0.50400000000E-02 0. -1.
         -1   -1    0    0    0  501 -0.00000000000E+00 -0.00000000000E+00 -0.51810710645E+03  0.51810710648E+03  0.50400000000E-02 0.  1.
    8880023    1    1    2    0    0  0.78580970967E+02  0.79252517365E+02 -0.29181980038E+03  0.72898897980E+03  0.65864270000E+03 0.  1.
    8880022    1    1    2    0    0 -0.78580970967E+02 -0.79252517365E+02  0.11557694195E+04  0.11711748523E+04  0.15294330000E+03 0.  0.
<mgrwt>
<rscale>  0 0.48742209E+03</rscale>
<asrwt>0</asrwt>
<pdfrwt beam="1">  1        1 0.21262411E+00 0.66803154E+03</pdfrwt>
<pdfrwt beam="2">  1       -1 0.79708787E-01 0.66803154E+03</pdfrwt>
<totfact> 0.13035668E+01</totfact>
</mgrwt>
</event>
<event>
 4    2  0.4681349E-007  0.6659041E+03  0.7818608E-02  0.1018787E+00
          1   -1    0    0  501    0  0.00000000000E+00  0.00000000000E+00  0.99780796879E+03  0.99780796880E+03  0.50400000000E-02 0. -1.
         -1   -1    0    0    0  501 -0.00000000000E+00 -0.00000000000E+00 -0.57041736459E+03  0.57041736461E+03  0.50400000000E-02 0.  1.
    8880023    1    1    2    0    0  0.91599138790E+02 -0.35038388423E+02 -0.36217672674E+03  0.75802393006E+03  0.65864270000E+03 0.  1.
    8880022    1    1    2    0    0 -0.91599138790E+02  0.35038388423E+02  0.78956733094E+03  0.81020140335E+03  0.15294330000E+03 0.  0.
<mgrwt>
<rscale>  0 0.48127028E+03</rscale>
<asrwt>0</asrwt>
<pdfrwt beam="1">  1        1 0.15350892E+00 0.66590412E+03</pdfrwt>
<pdfrwt beam="2">  1       -1 0.87756518E-01 0.66590412E+03</pdfrwt>
<totfact> 0.20180430E+01</totfact>
</mgrwt>
</event>
<event>
 4    2  0.4681349E-007  0.6684426E+03  0.7818608E-02  0.1016805E+00
         -1   -1    0    0    0  501 -0.00000000000E+00  0.00000000000E+00  0.11963253128E+03  0.11963253139E+03  0.50400000000E-02 0.  1.
          1   -1    0    0  501    0  0.00000000000E+00 -0.00000000000E+00 -0.16032466705E+04  0.16032466706E+04  0.50400000000E-02 0. -1.
    8880023    1    1    2    0    0  0.75308410134E+01  0.11379172843E+03 -0.99840253435E+03  0.12015086757E+04  0.65864270000E+03 0.  1.
    8880022    1    1    2    0    0 -0.75308410134E+01 -0.11379172843E+03 -0.48521160492E+03  0.52137052620E+03  0.15294330000E+03 0.  0.
<mgrwt>
<rscale>  0 0.48857491E+03</rscale>
<asrwt>0</asrwt>
<pdfrwt beam="1">  1        1 0.24665332E+00 0.66844258E+03</pdfrwt>
<pdfrwt beam="2">  1       -1 0.18405006E-01 0.66844258E+03</pdfrwt>
<totfact> 0.13428338E+02</totfact>
</mgrwt>
</event>
<event>
 4    2  0.5880094E-007  0.7664880E+03  0.7818608E-02  0.9788591E-01
         -1   -1    0    0    0  501 -0.00000000000E+00  0.00000000000E+00  0.10667669202E+04  0.10667669202E+04  0.50400000000E-02 0.  1.
          1   -1    0    0  501    0  0.00000000000E+00 -0.00000000000E+00 -0.12510733035E+04  0.12510733035E+04  0.50400000000E-02 0. -1.
    8880023    1    1    2    0    0  0.39378159577E+02 -0.39005519503E+03  0.88377124895E+03  0.11698527776E+04  0.65864270000E+03 0.  1.
    8880022    1    1    2    0    0 -0.39378159577E+02  0.39005519503E+03 -0.10680776323E+04  0.11479874460E+04  0.15294330000E+03 0.  0.
<mgrwt>
<rscale>  0 0.65978412E+03</rscale>
<asrwt>0</asrwt>
<pdfrwt beam="1">  1        1 0.19247282E+00 0.76648803E+03</pdfrwt>
<pdfrwt beam="2">  1       -1 0.16411799E+00 0.76648803E+03</pdfrwt>
<totfact> 0.27745029E+00</totfact>
</mgrwt>
</event>
<event>
 4    2  0.4681349E-007  0.7041143E+03  0.7818608E-02  0.9980543E-01
         -1   -1    0    0    0  501 -0.00000000000E+00  0.00000000000E+00  0.19085222484E+03  0.19085222491E+03  0.50400000000E-02 0.  1.
          1   -1    0    0  501    0  0.00000000000E+00 -0.00000000000E+00 -0.14124846321E+04  0.14124846321E+04  0.50400000000E-02 0. -1.
    8880023    1    1    2    0    0  0.24890492757E+03 -0.36163451722E+01 -0.63579846117E+03  0.94869206300E+03  0.65864270000E+03 0.  1.
    8880022    1    1    2    0    0 -0.24890492757E+03  0.36163451722E+01 -0.58583394608E+03  0.65464479400E+03  0.15294330000E+03 0.  0.
<mgrwt>
<rscale>  0 0.56511671E+03</rscale>
<asrwt>0</asrwt>
<pdfrwt beam="1">  1        1 0.21730532E+00 0.70411430E+03</pdfrwt>
<pdfrwt beam="2">  1       -1 0.29361882E-01 0.70411430E+03</pdfrwt>
<totfact> 0.81999389E+01</totfact>
</mgrwt>
</event>
<event>
 4    2  0.4681349E-007  0.8312282E+03  0.7818608E-02  0.9646947E-01
          1   -1    0    0  501    0  0.00000000000E+00  0.00000000000E+00  0.27805383590E+04  0.27805383590E+04  0.50400000000E-02 0. -1.
         -1   -1    0    0    0  501 -0.00000000000E+00 -0.00000000000E+00 -0.23388211538E+03  0.23388211543E+03  0.50400000000E-02 0.  1.
    8880023    1    1    2    0    0 -0.44283071100E+03 -0.24704473009E+03  0.67956966095E+03  0.10736644111E+04  0.65864270000E+03 0.  1.
    8880022    1    1    2    0    0  0.44283071100E+03  0.24704473009E+03  0.18670865826E+04  0.19407560633E+04  0.15294330000E+03 0.  0.
<mgrwt>
<rscale>  0 0.74265316E+03</rscale>
<asrwt>0</asrwt>
<pdfrwt beam="1">  1        1 0.42777513E+00 0.83122821E+03</pdfrwt>
<pdfrwt beam="2">  1       -1 0.35981864E-01 0.83122821E+03</pdfrwt>
<totfact> 0.66517048E+00</totfact>
</mgrwt>
</event>
<event>
 4    2  0.4681349E-007  0.7629047E+03  0.7818608E-02  0.9797645E-01
         -1   -1    0    0    0  501 -0.00000000000E+00  0.00000000000E+00  0.16241386593E+04  0.16241386593E+04  0.50400000000E-02 0.  1.
          1   -1    0    0  501    0  0.00000000000E+00 -0.00000000000E+00 -0.60948042699E+03  0.60948042701E+03  0.50400000000E-02 0. -1.
    8880023    1    1    2    0    0 -0.34831502604E+03 -0.16398186867E+03  0.14464102921E+04  0.16352756190E+04  0.65864270000E+03 0.  1.
    8880022    1    1    2    0    0  0.34831502604E+03  0.16398186867E+03 -0.43175205987E+03  0.59834346728E+03  0.15294330000E+03 0.  0.
<mgrwt>
<rscale>  0 0.65489095E+03</rscale>
<asrwt>0</asrwt>
<pdfrwt beam="1">  1        1 0.93766221E-01 0.76290472E+03</pdfrwt>
<pdfrwt beam="2">  1       -1 0.24986748E+00 0.76290472E+03</pdfrwt>
<totfact> 0.24378738E+00</totfact>
</mgrwt>
</event>
<event>
 4    2  0.4681349E-007  0.6586591E+03  0.7818608E-02  0.1025574E+00
          1   -1    0    0  501    0  0.00000000000E+00  0.00000000000E+00  0.44872829189E+03  0.44872829192E+03  0.50400000000E-02 0. -1.
         -1   -1    0    0    0  501 -0.00000000000E+00 -0.00000000000E+00 -0.66180626393E+03  0.66180626395E+03  0.50400000000E-02 0.  1.
    8880023    1    1    2    0    0 -0.15541767259E+01  0.43763347404E+01 -0.47162635108E+03  0.81010072773E+03  0.65864270000E+03 0.  1.
    8880022    1    1    2    0    0  0.15541767259E+01 -0.43763347404E+01  0.25854837904E+03  0.30043382814E+03  0.15294330000E+03 0.  0.
<mgrwt>
<rscale>  0 0.45727573E+03</rscale>
<asrwt>0</asrwt>
<pdfrwt beam="1">  1        1 0.69035122E-01 0.65865907E+03</pdfrwt>
<pdfrwt beam="2">  1       -1 0.10181635E+00 0.65865907E+03</pdfrwt>
<totfact> 0.48394864E+01</totfact>
</mgrwt>
</event>
<event>
 4    2  0.4681349E-007  0.6596554E+03  0.7818608E-02  0.1024512E+00
          1   -1    0    0  501    0  0.00000000000E+00  0.00000000000E+00  0.20064760981E+04  0.20064760981E+04  0.50400000000E-02 0. -1.
         -1   -1    0    0    0  501 -0.00000000000E+00 -0.00000000000E+00 -0.10792300167E+03  0.10792300179E+03  0.50400000000E-02 0.  1.
    8880023    1    1    2    0    0 -0.28805508298E+02  0.22477523513E+02  0.97267256822E+03  0.11752604510E+04  0.65864270000E+03 0.  1.
    8880022    1    1    2    0    0  0.28805508298E+02 -0.22477523513E+02  0.92588052822E+03  0.93913864894E+03  0.15294330000E+03 0.  0.
<mgrwt>
<rscale>  0 0.46092842E+03</rscale>
<asrwt>0</asrwt>
<pdfrwt beam="1">  1        1 0.30868862E+00 0.65965537E+03</pdfrwt>
<pdfrwt beam="2">  1       -1 0.16603539E-01 0.65965537E+03</pdfrwt>
<totfact> 0.85555643E+01</totfact>
</mgrwt>
</event>
<event>
 4    2  0.4681349E-007  0.7888185E+03  0.7818608E-02  0.9735516E-01
         -1   -1    0    0    0  501 -0.00000000000E+00  0.00000000000E+00  0.49433694549E+03  0.49433694551E+03  0.50400000000E-02 0.  1.
          1   -1    0    0  501    0  0.00000000000E+00 -0.00000000000E+00 -0.17379502369E+04  0.17379502369E+04  0.50400000000E-02 0. -1.
    8880023    1    1    2    0    0 -0.31117817756E+03 -0.30264253101E+03  0.11562305717E+03  0.79724730001E+03  0.65864270000E+03 0.  1.
    8880022    1    1    2    0    0  0.31117817756E+03  0.30264253101E+03 -0.13592363486E+04  0.14350398824E+04  0.15294330000E+03 0.  0.
<mgrwt>
<rscale>  0 0.68941011E+03</rscale>
<asrwt>0</asrwt>
<pdfrwt beam="1">  1        1 0.26737696E+00 0.78881846E+03</pdfrwt>
<pdfrwt beam="2">  1       -1 0.76051838E-01 0.78881846E+03</pdfrwt>
<totfact> 0.80837163E+00</totfact>
</mgrwt>
</event>
<event>
 4    2  0.4681349E-007  0.9118274E+03  0.7818608E-02  0.9507305E-01
         -1   -1    0    0    0  501 -0.00000000000E+00  0.00000000000E+00  0.87141803523E+03  0.87141803524E+03  0.50400000000E-02 0.  1.
          1   -1    0    0  501    0  0.00000000000E+00 -0.00000000000E+00 -0.23234157035E+04  0.23234157035E+04  0.50400000000E-02 0. -1.
    8880023    1    1    2    0    0  0.20145176111E+03 -0.59752509019E+03  0.56726678353E+03  0.10738812110E+04  0.65864270000E+03 0.  1.
    8880022    1    1    2    0    0 -0.20145176111E+03  0.59752509019E+03 -0.20192644518E+04  0.21209525277E+04  0.15294330000E+03 0.  0.
<mgrwt>
<rscale>  0 0.83747361E+03</rscale>
<asrwt>0</asrwt>
<pdfrwt beam="1">  1        1 0.35744857E+00 0.91182742E+03</pdfrwt>
<pdfrwt beam="2">  1       -1 0.13406431E+00 0.91182742E+03</pdfrwt>
<totfact> 0.86713173E-01</totfact>
</mgrwt>
</event>
<event>
 4    2  0.4681349E-007  0.7148267E+03  0.7818608E-02  0.9940496E-01
          1   -1    0    0  501    0  0.00000000000E+00  0.00000000000E+00  0.33028996340E+03  0.33028996344E+03  0.50400000000E-02 0. -1.
         -1   -1    0    0    0  501 -0.00000000000E+00 -0.00000000000E+00 -0.15734678422E+04  0.15734678422E+04  0.50400000000E-02 0.  1.
    8880023    1    1    2    0    0 -0.10459552194E+03 -0.25734552216E+03 -0.10532645495E+03  0.72254467638E+03  0.65864270000E+03 0. -1.
    8880022    1    1    2    0    0  0.10459552194E+03  0.25734552216E+03 -0.11378514239E+04  0.11812131293E+04  0.15294330000E+03 0.  0.
<mgrwt>
<rscale>  0 0.58338190E+03</rscale>
<asrwt>0</asrwt>
<pdfrwt beam="1">  1        1 0.50813841E-01 0.71482666E+03</pdfrwt>
<pdfrwt beam="2">  1       -1 0.24207197E+00 0.71482666E+03</pdfrwt>
<totfact> 0.63298458E+00</totfact>
</mgrwt>
</event>
<event>
 4    2  0.4681349E-007  0.7815324E+03  0.7818608E-02  0.9752249E-01
         -1   -1    0    0    0  501 -0.00000000000E+00  0.00000000000E+00  0.68743180711E+03  0.68743180712E+03  0.50400000000E-02 0.  1.
          1   -1    0    0  501    0  0.00000000000E+00 -0.00000000000E+00 -0.73668107503E+03  0.73668107505E+03  0.50400000000E-02 0. -1.
    8880023    1    1    2    0    0  0.34280809346E+03 -0.24385520032E+03  0.31933968902E+03  0.84425753826E+03  0.65864270000E+03 0.  0.
    8880022    1    1    2    0    0 -0.34280809346E+03  0.24385520032E+03 -0.36858895695E+03  0.57985534391E+03  0.15294330000E+03 0.  1.
<mgrwt>
<rscale>  0 0.67989295E+03</rscale>
<asrwt>0</asrwt>
<pdfrwt beam="1">  1        1 0.11333555E+00 0.78153244E+03</pdfrwt>
<pdfrwt beam="2">  1       -1 0.10575874E+00 0.78153244E+03</pdfrwt>
<totfact> 0.21574410E+01</totfact>
</mgrwt>
</event>
<event>
 4    2  0.4681349E-007  0.6586512E+03  0.7818608E-02  0.1025583E+00
          1   -1    0    0  501    0  0.00000000000E+00  0.00000000000E+00  0.16909593365E+04  0.16909593365E+04  0.50400000000E-02 0. -1.
         -1   -1    0    0    0  501 -0.00000000000E+00 -0.00000000000E+00 -0.68957548679E+03  0.68957548681E+03  0.50400000000E-02 0.  1.
    8880023    1    1    2    0    0 -0.11640148860E+01 -0.31309099972E+01 -0.52760465530E+03  0.84391233910E+03  0.65864270000E+03 0.  1.
    8880022    1    1    2    0    0  0.11640148860E+01  0.31309099972E+01  0.15289885050E+04  0.15366224842E+04  0.15294330000E+03 0.  0.
<mgrwt>
<rscale>  0 0.45724620E+03</rscale>
<asrwt>0</asrwt>
<pdfrwt beam="1">  1        1 0.26014759E+00 0.65865117E+03</pdfrwt>
<pdfrwt beam="2">  1       -1 0.10608854E+00 0.65865117E+03</pdfrwt>
<totfact> 0.42734666E+00</totfact>
</mgrwt>
</event>
<event>
 4    2  0.4681349E-007  0.7575504E+03  0.7818608E-02  0.9811491E-01
          1   -1    0    0  501    0  0.00000000000E+00  0.00000000000E+00  0.13489094188E+04  0.13489094188E+04  0.50400000000E-02 0. -1.
         -1   -1    0    0    0  501 -0.00000000000E+00 -0.00000000000E+00 -0.31647268901E+03  0.31647268905E+03  0.50400000000E-02 0.  1.
    8880023    1    1    2    0    0  0.14351931002E+03 -0.34565106150E+03  0.10071957471E+04  0.12602880337E+04  0.65864270000E+03 0. -1.
    8880022    1    1    2    0    0 -0.14351931002E+03  0.34565106150E+03  0.25240982647E+02  0.40509407411E+03  0.15294330000E+03 0.  0.
<mgrwt>
<rscale>  0 0.64749506E+03</rscale>
<asrwt>0</asrwt>
<pdfrwt beam="1">  1        1 0.20752452E+00 0.75755043E+03</pdfrwt>
<pdfrwt beam="2">  1       -1 0.48688107E-01 0.75755043E+03</pdfrwt>
<totfact> 0.36240056E+01</totfact>
</mgrwt>
</event>
<event>
 4    2  0.4681349E-007  0.7304249E+03  0.7818608E-02  0.9888771E-01
         -1   -1    0    0    0  501 -0.00000000000E+00  0.00000000000E+00  0.10820491031E+03  0.10820491042E+03  0.50400000000E-02 0.  1.
          1   -1    0    0  501    0  0.00000000000E+00 -0.00000000000E+00 -0.28151377474E+04  0.28151377474E+04  0.50400000000E-02 0. -1.
    8880023    1    1    2    0    0 -0.76434221597E+02  0.30637910715E+03 -0.15333563701E+04  0.16984411416E+04  0.65864270000E+03 0. -1.
    8880022    1    1    2    0    0  0.76434221597E+02 -0.30637910715E+03 -0.11735764670E+04  0.12249015162E+04  0.15294330000E+03 0.  0.
<mgrwt>
<rscale>  0 0.60808574E+03</rscale>
<asrwt>0</asrwt>
<pdfrwt beam="1">  1        1 0.43309806E+00 0.73042491E+03</pdfrwt>
<pdfrwt beam="2">  1       -1 0.16646911E-01 0.73042491E+03</pdfrwt>
<totfact> 0.23809503E+01</totfact>
</mgrwt>
</event>
<event>
 4    2  0.4681349E-007  0.6810546E+03  0.7818608E-02  0.1008733E+00
          1   -1    0    0  501    0  0.00000000000E+00  0.00000000000E+00  0.35182729936E+03  0.35182729939E+03  0.50400000000E-02 0. -1.
         -1   -1    0    0    0  501 -0.00000000000E+00 -0.00000000000E+00 -0.90278992648E+03  0.90278992649E+03  0.50400000000E-02 0.  1.
    8880023    1    1    2    0    0 -0.11277552628E+02  0.17291018653E+03 -0.70234910089E+03  0.97832999626E+03  0.65864270000E+03 0.  1.
    8880022    1    1    2    0    0  0.11277552628E+02 -0.17291018653E+03  0.15138647377E+03  0.27628722963E+03  0.15294330000E+03 0.  0.
<mgrwt>
<rscale>  0 0.51981180E+03</rscale>
<asrwt>0</asrwt>
<pdfrwt beam="1">  1        1 0.54127277E-01 0.68105457E+03</pdfrwt>
<pdfrwt beam="2">  1       -1 0.13889076E+00 0.68105457E+03</pdfrwt>
<totfact> 0.31347169E+01</totfact>
</mgrwt>
</event>
<event>
 4    2  0.4681349E-007  0.6914760E+03  0.7818608E-02  0.1003459E+00
         -1   -1    0    0    0  501 -0.00000000000E+00  0.00000000000E+00  0.15498882783E+03  0.15498882791E+03  0.50400000000E-02 0.  1.
          1   -1    0    0  501    0  0.00000000000E+00 -0.00000000000E+00 -0.18122698410E+04  0.18122698410E+04  0.50400000000E-02 0. -1.
    8880023    1    1    2    0    0 -0.10219956037E+03 -0.18407641034E+03 -0.73574056295E+03  0.10096797795E+04  0.65864270000E+03 0.  0.
    8880022    1    1    2    0    0  0.10219956037E+03  0.18407641034E+03 -0.92154045022E+03  0.95757888939E+03  0.15294330000E+03 0.  0.
<mgrwt>
<rscale>  0 0.54159280E+03</rscale>
<asrwt>0</asrwt>
<pdfrwt beam="1">  1        1 0.27881073E+00 0.69147602E+03</pdfrwt>
<pdfrwt beam="2">  1       -1 0.23844436E-01 0.69147602E+03</pdfrwt>
<totfact> 0.62902191E+01</totfact>
</mgrwt>
</event>
<event>
 4    2  0.4681349E-007  0.8906252E+03  0.7818608E-02  0.9541252E-01
          1   -1    0    0  501    0  0.00000000000E+00  0.00000000000E+00  0.32089152056E+04  0.32089152056E+04  0.50400000000E-02 0. -1.
         -1   -1    0    0    0  501 -0.00000000000E+00 -0.00000000000E+00 -0.29593248357E+03  0.29593248361E+03  0.50400000000E-02 0.  1.
    8880023    1    1    2    0    0 -0.51289971823E+03  0.31038179855E+03  0.51600440006E+03  0.10293074026E+04  0.65864270000E+03 0.  0.
    8880022    1    1    2    0    0  0.51289971823E+03 -0.31038179855E+03  0.23969783220E+04  0.24755402867E+04  0.15294330000E+03 0.  0.
<mgrwt>
<rscale>  0 0.81309624E+03</rscale>
<asrwt>0</asrwt>
<pdfrwt beam="1">  1        1 0.49367926E+00 0.89062517E+03</pdfrwt>
<pdfrwt beam="2">  1       -1 0.45528074E-01 0.89062517E+03</pdfrwt>
<totfact> 0.21068405E+00</totfact>
</mgrwt>
</event>
<event>
 4    2  0.4681349E-007  0.8022651E+03  0.7818608E-02  0.9705920E-01
         -1   -1    0    0    0  501 -0.00000000000E+00  0.00000000000E+00  0.82442160656E+03  0.82442160658E+03  0.50400000000E-02 0.  1.
          1   -1    0    0  501    0  0.00000000000E+00 -0.00000000000E+00 -0.13245970137E+04  0.13245970137E+04  0.50400000000E-02 0. -1.
    8880023    1    1    2    0    0 -0.37123677380E+03  0.26833265332E+03  0.56381118285E+03  0.98056739249E+03  0.65864270000E+03 0.  1.
    8880022    1    1    2    0    0  0.37123677380E+03 -0.26833265332E+03 -0.10639865899E+04  0.11684512278E+04  0.15294330000E+03 0.  0.
<mgrwt>
<rscale>  0 0.70665433E+03</rscale>
<asrwt>0</asrwt>
<pdfrwt beam="1">  1        1 0.20378416E+00 0.80226514E+03</pdfrwt>
<pdfrwt beam="2">  1       -1 0.12683409E+00 0.80226514E+03</pdfrwt>
<totfact> 0.48343718E+00</totfact>
</mgrwt>
</event>
<event>
 4    2  0.4681349E-007  0.8738051E+03  0.7818608E-02  0.9569463E-01
         -1   -1    0    0    0  501 -0.00000000000E+00  0.00000000000E+00  0.16343373362E+04  0.16343373362E+04  0.50400000000E-02 0.  1.
          1   -1    0    0  501    0  0.00000000000E+00 -0.00000000000E+00 -0.10518253912E+04  0.10518253912E+04  0.50400000000E-02 0. -1.
    8880023    1    1    2    0    0  0.40364826635E+03  0.40840331874E+03  0.14151735158E+04  0.16632051827E+04  0.65864270000E+03 0.  0.
    8880022    1    1    2    0    0 -0.40364826635E+03 -0.40840331874E+03 -0.83266157078E+03  0.10229575446E+04  0.15294330000E+03 0.  0.
<mgrwt>
<rscale>  0 0.79350697E+03</rscale>
<asrwt>0</asrwt>
<pdfrwt beam="1">  1        1 0.16181929E+00 0.87380513E+03</pdfrwt>
<pdfrwt beam="2">  1       -1 0.25143652E+00 0.87380513E+03</pdfrwt>
<totfact> 0.96832063E-01</totfact>
</mgrwt>
</event>
<event>
 4    2  0.4681349E-007  0.8778563E+03  0.7818608E-02  0.9562557E-01
          1   -1    0    0  501    0  0.00000000000E+00  0.00000000000E+00  0.62935033358E+03  0.62935033360E+03  0.50400000000E-02 0. -1.
         -1   -1    0    0    0  501 -0.00000000000E+00 -0.00000000000E+00 -0.14226729816E+04  0.14226729816E+04  0.50400000000E-02 0.  1.
    8880023    1    1    2    0    0  0.41381907798E+03 -0.40690945365E+03 -0.10759474928E+04  0.13886305291E+04  0.65864270000E+03 0.  0.
    8880022    1    1    2    0    0 -0.41381907798E+03  0.40690945365E+03  0.28262484477E+03  0.66339278612E+03  0.15294330000E+03 0.  0.
<mgrwt>
<rscale>  0 0.79824744E+03</rscale>
<asrwt>0</asrwt>
<pdfrwt beam="1">  1        1 0.96823129E-01 0.87785633E+03</pdfrwt>
<pdfrwt beam="2">  1       -1 0.21887276E+00 0.87785633E+03</pdfrwt>
<totfact> 0.36506234E+00</totfact>
</mgrwt>
</event>
<event>
 4    2  0.4681349E-007  0.7880299E+03  0.7818608E-02  0.9737302E-01
         -1   -1    0    0    0  501 -0.00000000000E+00  0.00000000000E+00  0.20577087132E+04  0.20577087132E+04  0.50400000000E-02 0.  1.
          1   -1    0    0  501    0  0.00000000000E+00 -0.00000000000E+00 -0.11875831264E+04  0.11875831264E+04  0.50400000000E-02 0. -1.
    8880023    1    1    2    0    0  0.15273103166E+03  0.40478911029E+03  0.19330714100E+04  0.20875239578E+04  0.65864270000E+03 0.  1.
    8880022    1    1    2    0    0 -0.15273103166E+03 -0.40478911029E+03 -0.10629458233E+04  0.11577678818E+04  0.15294330000E+03 0.  0.
<mgrwt>
<rscale>  0 0.68838641E+03</rscale>
<asrwt>0</asrwt>
<pdfrwt beam="1">  1        1 0.18270510E+00 0.78802995E+03</pdfrwt>
<pdfrwt beam="2">  1       -1 0.31657057E+00 0.78802995E+03</pdfrwt>
<totfact> 0.29814324E-01</totfact>
</mgrwt>
</event>
<event>
 4    2  0.4681349E-007  0.6909656E+03  0.7818608E-02  0.1003697E+00
         -1   -1    0    0    0  501 -0.00000000000E+00  0.00000000000E+00  0.24779363099E+03  0.24779363104E+03  0.50400000000E-02 0.  1.
          1   -1    0    0  501    0  0.00000000000E+00 -0.00000000000E+00 -0.13362503662E+04  0.13362503662E+04  0.50400000000E-02 0. -1.
    8880023    1    1    2    0    0 -0.19750697464E+03  0.67928689841E+02 -0.29838052443E+03  0.75263832985E+03  0.65864270000E+03 0.  1.
    8880022    1    1    2    0    0  0.19750697464E+03 -0.67928689841E+02 -0.79007621073E+03  0.83140566735E+03  0.15294330000E+03 0.  0.
<mgrwt>
<rscale>  0 0.54058478E+03</rscale>
<asrwt>0</asrwt>
<pdfrwt beam="1">  1        1 0.20557698E+00 0.69096564E+03</pdfrwt>
<pdfrwt beam="2">  1       -1 0.38122098E-01 0.69096564E+03</pdfrwt>
<totfact> 0.58479952E+01</totfact>
</mgrwt>
</event>
<event>
 4    2  0.4681349E-007  0.7537922E+03  0.7818608E-02  0.9821452E-01
          1   -1    0    0  501    0  0.00000000000E+00  0.00000000000E+00  0.14192015579E+04  0.14192015579E+04  0.50400000000E-02 0. -1.
         -1   -1    0    0    0  501 -0.00000000000E+00 -0.00000000000E+00 -0.33488641127E+03  0.33488641131E+03  0.50400000000E-02 0.  1.
    8880023    1    1    2    0    0  0.30801760198E+03 -0.19879051605E+03  0.19276098719E+03  0.77804853116E+03  0.65864270000E+03 0.  0.
    8880022    1    1    2    0    0 -0.30801760198E+03  0.19879051605E+03  0.89155415947E+03  0.97603943808E+03  0.15294330000E+03 0.  0.
<mgrwt>
<rscale>  0 0.64223899E+03</rscale>
<asrwt>0</asrwt>
<pdfrwt beam="1">  1        1 0.21833870E+00 0.75379223E+03</pdfrwt>
<pdfrwt beam="2">  1       -1 0.51520986E-01 0.75379223E+03</pdfrwt>
<totfact> 0.29099202E+01</totfact>
</mgrwt>
</event>
<event>
 4    2  0.4681349E-007  0.9502986E+03  0.7818608E-02  0.9449685E-01
         -1   -1    0    0    0  501 -0.00000000000E+00  0.00000000000E+00  0.49257004162E+03  0.49257004165E+03  0.50400000000E-02 0.  1.
          1   -1    0    0  501    0  0.00000000000E+00 -0.00000000000E+00 -0.18204698736E+04  0.18204698736E+04  0.50400000000E-02 0. -1.
    8880023    1    1    2    0    0  0.64918207801E+03 -0.21867756946E+03 -0.17945782049E+03  0.96709491023E+03  0.65864270000E+03 0.  0.
    8880022    1    1    2    0    0 -0.64918207801E+03  0.21867756946E+03 -0.11484420115E+04  0.13459450050E+04  0.15294330000E+03 0.  0.
<mgrwt>
<rscale>  0 0.88097232E+03</rscale>
<asrwt>0</asrwt>
<pdfrwt beam="1">  1        1 0.28007228E+00 0.95029861E+03</pdfrwt>
<pdfrwt beam="2">  1       -1 0.75780007E-01 0.95029861E+03</pdfrwt>
<totfact> 0.70089902E+00</totfact>
</mgrwt>
</event>
<event>
 4    2  0.4681349E-007  0.7325163E+03  0.7818608E-02  0.9882308E-01
         -1   -1    0    0    0  501 -0.00000000000E+00  0.00000000000E+00  0.88740235654E+03  0.88740235656E+03  0.50400000000E-02 0.  1.
          1   -1    0    0  501    0  0.00000000000E+00 -0.00000000000E+00 -0.67563493776E+03  0.67563493778E+03  0.50400000000E-02 0. -1.
    8880023    1    1    2    0    0  0.17763864839E+03 -0.26686043929E+03  0.66353287119E+03  0.98836028900E+03  0.65864270000E+03 0.  1.
    8880022    1    1    2    0    0 -0.17763864839E+03  0.26686043929E+03 -0.45176545241E+03  0.57467700534E+03  0.15294330000E+03 0.  0.
<mgrwt>
<rscale>  0 0.61126412E+03</rscale>
<asrwt>0</asrwt>
<pdfrwt beam="1">  1        1 0.10394384E+00 0.73251634E+03</pdfrwt>
<pdfrwt beam="2">  1       -1 0.13652344E+00 0.73251634E+03</pdfrwt>
<totfact> 0.13265573E+01</totfact>
</mgrwt>
</event>
<event>
 4    2  0.4681349E-007  0.8654106E+03  0.7818608E-02  0.9584011E-01
          1   -1    0    0  501    0  0.00000000000E+00  0.00000000000E+00  0.94965342081E+03  0.94965342082E+03  0.50400000000E-02 0. -1.
         -1   -1    0    0    0  501 -0.00000000000E+00 -0.00000000000E+00 -0.87608989242E+03  0.87608989244E+03  0.50400000000E-02 0.  1.
    8880023    1    1    2    0    0 -0.26728058395E+03  0.49364599865E+03 -0.50767995517E+03  0.10033316629E+04  0.65864270000E+03 0.  0.
    8880022    1    1    2    0    0  0.26728058395E+03 -0.49364599865E+03  0.58124348355E+03  0.82241165041E+03  0.15294330000E+03 0.  0.
<mgrwt>
<rscale>  0 0.78363568E+03</rscale>
<asrwt>0</asrwt>
<pdfrwt beam="1">  1        1 0.14610053E+00 0.86541059E+03</pdfrwt>
<pdfrwt beam="2">  1       -1 0.13478306E+00 0.86541059E+03</pdfrwt>
<totfact> 0.78077927E+00</totfact>
</mgrwt>
</event>
<event>
 4    2  0.4681349E-007  0.7037044E+03  0.7818608E-02  0.9982168E-01
         -1   -1    0    0    0  501 -0.00000000000E+00  0.00000000000E+00  0.54110445738E+03  0.54110445740E+03  0.50400000000E-02 0.  1.
          1   -1    0    0  501    0  0.00000000000E+00 -0.00000000000E+00 -0.47776270433E+03  0.47776270436E+03  0.50400000000E-02 0. -1.
    8880023    1    1    2    0    0 -0.36328080353E+02 -0.24509164748E+03  0.14061475436E+03  0.71761574711E+03  0.65864270000E+03 0.  1.
    8880022    1    1    2    0    0  0.36328080353E+02  0.24509164748E+03 -0.77273001315E+02  0.30125141466E+03  0.15294330000E+03 0.  1.
<mgrwt>
<rscale>  0 0.56439115E+03</rscale>
<asrwt>0</asrwt>
<pdfrwt beam="1">  1        1 0.73501955E-01 0.70370438E+03</pdfrwt>
<pdfrwt beam="2">  1       -1 0.83246840E-01 0.70370438E+03</pdfrwt>
<totfact> 0.69163597E+01</totfact>
</mgrwt>
</event>
<event>
 4    2  0.4681349E-007  0.8551778E+03  0.7818608E-02  0.9602199E-01
         -1   -1    0    0    0  501 -0.00000000000E+00  0.00000000000E+00  0.33215852857E+03  0.33215852861E+03  0.50400000000E-02 0.  1.
          1   -1    0    0  501    0  0.00000000000E+00 -0.00000000000E+00 -0.20590149289E+04  0.20590149289E+04  0.50400000000E-02 0. -1.
    8880023    1    1    2    0    0 -0.53208931647E+03  0.11999910584E+03 -0.39131403429E+03  0.94045505251E+03  0.65864270000E+03 0.  1.
    8880022    1    1    2    0    0  0.53208931647E+03 -0.11999910584E+03 -0.13355423660E+04  0.14507184050E+04  0.15294330000E+03 0.  0.
<mgrwt>
<rscale>  0 0.77150775E+03</rscale>
<asrwt>0</asrwt>
<pdfrwt beam="1">  1        1 0.31677152E+00 0.85517778E+03</pdfrwt>
<pdfrwt beam="2">  1       -1 0.51101314E-01 0.85517778E+03</pdfrwt>
<totfact> 0.10778619E+01</totfact>
</mgrwt>
</event>
<event>
 4    2  0.4681349E-007  0.6678637E+03  0.7818608E-02  0.1017243E+00
         -1   -1    0    0    0  501 -0.00000000000E+00  0.00000000000E+00  0.19572918499E+03  0.19572918506E+03  0.50400000000E-02 0.  1.
          1   -1    0    0  501    0  0.00000000000E+00 -0.00000000000E+00 -0.20340865140E+04  0.20340865140E+04  0.50400000000E-02 0. -1.
    8880023    1    1    2    0    0  0.11046138490E+03  0.54723935455E+01 -0.39865995383E+03  0.77779922197E+03  0.65864270000E+03 0.  1.
    8880022    1    1    2    0    0 -0.11046138490E+03 -0.54723935455E+01 -0.14396973752E+04  0.14520164771E+04  0.15294330000E+03 0.  0.
<mgrwt>
<rscale>  0 0.48694808E+03</rscale>
<asrwt>0</asrwt>
<pdfrwt beam="1">  1        1 0.31293637E+00 0.66786366E+03</pdfrwt>
<pdfrwt beam="2">  1       -1 0.30112184E-01 0.66786366E+03</pdfrwt>
<totfact> 0.30069631E+01</totfact>
</mgrwt>
</event>
<event>
 4    2  0.4681349E-007  0.1113556E+04  0.7818608E-02  0.9246112E-01
          1   -1    0    0  501    0  0.00000000000E+00  0.00000000000E+00  0.21109769927E+04  0.21109769927E+04  0.50400000000E-02 0. -1.
         -1   -1    0    0    0  501 -0.00000000000E+00 -0.00000000000E+00 -0.55814837377E+03  0.55814837379E+03  0.50400000000E-02 0.  1.
    8880023    1    1    2    0    0 -0.71564789916E+03 -0.54225832394E+03  0.13239608370E+04  0.17299937889E+04  0.65864270000E+03 0.  0.
    8880022    1    1    2    0    0  0.71564789916E+03  0.54225832394E+03  0.22886778196E+03  0.93913157762E+03  0.15294330000E+03 0.  0.
<mgrwt>
<rscale>  0 0.10589897E+04</rscale>
<asrwt>0</asrwt>
<pdfrwt beam="1">  1        1 0.32476569E+00 0.11135557E+04</pdfrwt>
<pdfrwt beam="2">  1       -1 0.85868981E-01 0.11135557E+04</pdfrwt>
<totfact> 0.33484053E+00</totfact>
</mgrwt>
</event>
<event>
 4    2  0.4681349E-007  0.6734566E+03  0.7818608E-02  0.1013297E+00
          1   -1    0    0  501    0  0.00000000000E+00  0.00000000000E+00  0.62786942737E+03  0.62786942739E+03  0.50400000000E-02 0. -1.
         -1   -1    0    0    0  501 -0.00000000000E+00 -0.00000000000E+00 -0.64332269352E+03  0.64332269354E+03  0.50400000000E-02 0.  1.
    8880023    1    1    2    0    0 -0.13581606661E+03  0.35883112039E+02 -0.43592714351E+03  0.80223206268E+03  0.65864270000E+03 0.  0.
    8880022    1    1    2    0    0  0.13581606661E+03 -0.35883112039E+02  0.42047387736E+03  0.46896005825E+03  0.15294330000E+03 0. -1.
<mgrwt>
<rscale>  0 0.50184971E+03</rscale>
<asrwt>0</asrwt>
<pdfrwt beam="1">  1        1 0.96595297E-01 0.67345661E+03</pdfrwt>
<pdfrwt beam="2">  1       -1 0.98972722E-01 0.67345661E+03</pdfrwt>
<totfact> 0.32294552E+01</totfact>
</mgrwt>
</event>
<event>
 4    2  0.4681349E-007  0.7302058E+03  0.7818608E-02  0.9889454E-01
         -1   -1    0    0    0  501 -0.00000000000E+00  0.00000000000E+00  0.12962094617E+03  0.12962094627E+03  0.50400000000E-02 0.  1.
          1   -1    0    0  501    0  0.00000000000E+00 -0.00000000000E+00 -0.24881253800E+04  0.24881253800E+04  0.50400000000E-02 0. -1.
    8880023    1    1    2    0    0  0.23889807698E+03 -0.20571336858E+03 -0.11745582922E+04  0.13830356717E+04  0.65864270000E+03 0.  1.
    8880022    1    1    2    0    0 -0.23889807698E+03  0.20571336858E+03 -0.11839461416E+04  0.12347106546E+04  0.15294330000E+03 0.  1.
<mgrwt>
<rscale>  0 0.60775111E+03</rscale>
<asrwt>0</asrwt>
<pdfrwt beam="1">  1        1 0.38278849E+00 0.73020578E+03</pdfrwt>
<pdfrwt beam="2">  1       -1 0.19941686E-01 0.73020578E+03</pdfrwt>
<totfact> 0.29728642E+01</totfact>
</mgrwt>
</event>
<event>
 4    2  0.4681349E-007  0.1161832E+04  0.7818608E-02  0.9195148E-01
          1   -1    0    0  501    0  0.00000000000E+00  0.00000000000E+00  0.26155612834E+04  0.26155612834E+04  0.50400000000E-02 0. -1.
         -1   -1    0    0    0  501 -0.00000000000E+00 -0.00000000000E+00 -0.55040027433E+03  0.55040027435E+03  0.50400000000E-02 0.  1.
    8880023    1    1    2    0    0 -0.90409583772E+03  0.31409204301E+03  0.38081359215E+03  0.12226497019E+04  0.65864270000E+03 0.  0.
    8880022    1    1    2    0    0  0.90409583772E+03 -0.31409204301E+03  0.16843474169E+04  0.19433118559E+04  0.15294330000E+03 0.  0.
<mgrwt>
<rscale>  0 0.11103651E+04</rscale>
<asrwt>0</asrwt>
<pdfrwt beam="1">  1        1 0.40239404E+00 0.11618319E+04</pdfrwt>
<pdfrwt beam="2">  1       -1 0.84676966E-01 0.11618319E+04</pdfrwt>
<totfact> 0.15497293E+00</totfact>
</mgrwt>
</event>
<event>
 4    2  0.4681349E-007  0.7934004E+03  0.7818608E-02  0.9725252E-01
         -1   -1    0    0    0  501 -0.00000000000E+00  0.00000000000E+00  0.92028651167E+03  0.92028651168E+03  0.50400000000E-02 0.  1.
          1   -1    0    0  501    0  0.00000000000E+00 -0.00000000000E+00 -0.10173496216E+04  0.10173496216E+04  0.50400000000E-02 0. -1.
    8880023    1    1    2    0    0  0.18684459754E+03  0.40095270390E+03  0.67040048848E+03  0.10387112186E+04  0.65864270000E+03 0.  1.
    8880022    1    1    2    0    0 -0.18684459754E+03 -0.40095270390E+03 -0.76746359838E+03  0.89892491469E+03  0.15294330000E+03 0.  0.
<mgrwt>
<rscale>  0 0.69533019E+03</rscale>
<asrwt>0</asrwt>
<pdfrwt beam="1">  1        1 0.15651533E+00 0.79340039E+03</pdfrwt>
<pdfrwt beam="2">  1       -1 0.14158254E+00 0.79340039E+03</pdfrwt>
<totfact> 0.61412087E+00</totfact>
</mgrwt>
</event>
<event>
 4    2  0.4681349E-007  0.9071014E+03  0.7818608E-02  0.9514726E-01
         -1   -1    0    0    0  501 -0.00000000000E+00  0.00000000000E+00  0.17340723287E+04  0.17340723288E+04  0.50400000000E-02 0.  1.
          1   -1    0    0  501    0  0.00000000000E+00 -0.00000000000E+00 -0.66069012934E+03  0.66069012936E+03  0.50400000000E-02 0. -1.
    8880023    1    1    2    0    0  0.48113474543E+03 -0.39690306674E+03  0.14047071750E+04  0.16721349053E+04  0.65864270000E+03 0.  1.
    8880022    1    1    2    0    0 -0.48113474543E+03  0.39690306674E+03 -0.33132497560E+03  0.72262755284E+03  0.15294330000E+03 0.  0.
<mgrwt>
<rscale>  0 0.83206755E+03</rscale>
<asrwt>0</asrwt>
<pdfrwt beam="1">  1        1 0.10164464E+00 0.90710137E+03</pdfrwt>
<pdfrwt beam="2">  1       -1 0.26678036E+00 0.90710137E+03</pdfrwt>
<totfact> 0.16484944E+00</totfact>
</mgrwt>
</event>
<event>
 4    2  0.4681349E-007  0.9014471E+03  0.7818608E-02  0.9523713E-01
          1   -1    0    0  501    0  0.00000000000E+00  0.00000000000E+00  0.12226046861E+04  0.12226046862E+04  0.50400000000E-02 0. -1.
         -1   -1    0    0    0  501 -0.00000000000E+00 -0.00000000000E+00 -0.52590045765E+03  0.52590045767E+03  0.50400000000E-02 0.  1.
    8880023    1    1    2    0    0  0.38916785766E+03 -0.47680704923E+03  0.15545039865E+03  0.91475221581E+03  0.65864270000E+03 0.  0.
    8880022    1    1    2    0    0 -0.38916785766E+03  0.47680704923E+03  0.54125382985E+03  0.83375292801E+03  0.15294330000E+03 0.  0.
<mgrwt>
<rscale>  0 0.82557938E+03</rscale>
<asrwt>0</asrwt>
<pdfrwt beam="1">  1        1 0.18809303E+00 0.90144705E+03</pdfrwt>
<pdfrwt beam="2">  1       -1 0.80907763E-01 0.90144705E+03</pdfrwt>
<totfact> 0.15884437E+01</totfact>
</mgrwt>
</event>
<event>
 4    2  0.4681349E-007  0.6769918E+03  0.7818608E-02  0.1011079E+00
         -1   -1    0    0    0  501 -0.00000000000E+00  0.00000000000E+00  0.11233302411E+04  0.11233302411E+04  0.50400000000E-02 0.  1.
          1   -1    0    0  501    0  0.00000000000E+00 -0.00000000000E+00 -0.19655297972E+04  0.19655297972E+04  0.50400000000E-02 0. -1.
    8880023    1    1    2    0    0 -0.14399207385E+03  0.61432191120E+02  0.10143155153E+04  0.12194891562E+04  0.65864270000E+03 0.  1.
    8880022    1    1    2    0    0  0.14399207385E+03 -0.61432191120E+02 -0.18565150713E+04  0.18693708820E+04  0.15294330000E+03 0.  0.
<mgrwt>
<rscale>  0 0.51047992E+03</rscale>
<asrwt>0</asrwt>
<pdfrwt beam="1">  1        1 0.30238920E+00 0.67699176E+03</pdfrwt>
<pdfrwt beam="2">  1       -1 0.17282004E+00 0.67699176E+03</pdfrwt>
<totfact> 0.79559677E-01</totfact>
</mgrwt>
</event>
<event>
 4    2  0.4681349E-007  0.8314570E+03  0.7818608E-02  0.9646504E-01
         -1   -1    0    0    0  501 -0.00000000000E+00  0.00000000000E+00  0.67132561779E+03  0.67132561781E+03  0.50400000000E-02 0.  1.
          1   -1    0    0  501    0  0.00000000000E+00 -0.00000000000E+00 -0.13391495466E+04  0.13391495466E+04  0.50400000000E-02 0. -1.
    8880023    1    1    2    0    0 -0.21231267601E+03 -0.46090545679E+03  0.31882191500E+03  0.89048758119E+03  0.65864270000E+03 0.  1.
    8880022    1    1    2    0    0  0.21231267601E+03  0.46090545679E+03 -0.98664584384E+03  0.11199875833E+04  0.15294330000E+03 0.  0.
<mgrwt>
<rscale>  0 0.74293228E+03</rscale>
<asrwt>0</asrwt>
<pdfrwt beam="1">  1        1 0.20602301E+00 0.83145699E+03</pdfrwt>
<pdfrwt beam="2">  1       -1 0.10328086E+00 0.83145699E+03</pdfrwt>
<totfact> 0.76955491E+00</totfact>
</mgrwt>
</event>
<event>
 4    2  0.4681349E-007  0.7614776E+03  0.7818608E-02  0.9801297E-01
         -1   -1    0    0    0  501 -0.00000000000E+00  0.00000000000E+00  0.60211037941E+03  0.60211037943E+03  0.50400000000E-02 0.  1.
          1   -1    0    0  501    0  0.00000000000E+00 -0.00000000000E+00 -0.72258690120E+03  0.72258690121E+03  0.50400000000E-02 0. -1.
    8880023    1    1    2    0    0  0.29837383751E+03  0.23876972372E+03  0.21768827569E+03  0.79198252475E+03  0.65864270000E+03 0.  0.
    8880022    1    1    2    0    0 -0.29837383751E+03 -0.23876972372E+03 -0.33816479748E+03  0.53271475589E+03  0.15294330000E+03 0.  0.
<mgrwt>
<rscale>  0 0.65292982E+03</rscale>
<asrwt>0</asrwt>
<pdfrwt beam="1">  1        1 0.11116722E+00 0.76147760E+03</pdfrwt>
<pdfrwt beam="2">  1       -1 0.92632366E-01 0.76147760E+03</pdfrwt>
<totfact> 0.30102696E+01</totfact>
</mgrwt>
</event>
<event>
 4    2  0.4681349E-007  0.9848134E+03  0.7818608E-02  0.9401702E-01
         -1   -1    0    0    0  501 -0.00000000000E+00  0.00000000000E+00  0.59256756196E+03  0.59256756199E+03  0.50400000000E-02 0.  1.
          1   -1    0    0  501    0  0.00000000000E+00 -0.00000000000E+00 -0.20155460219E+04  0.20155460219E+04  0.50400000000E-02 0. -1.
    8880023    1    1    2    0    0  0.68792419122E+03  0.25061437410E+03  0.17561792087E+02  0.98496998948E+03  0.65864270000E+03 0.  1.
    8880022    1    1    2    0    0 -0.68792419122E+03 -0.25061437410E+03 -0.14405402520E+04  0.16231435944E+04  0.15294330000E+03 0.  0.
<mgrwt>
<rscale>  0 0.91935777E+03</rscale>
<asrwt>0</asrwt>
<pdfrwt beam="1">  1        1 0.31008400E+00 0.98481342E+03</pdfrwt>
<pdfrwt beam="2">  1       -1 0.91164241E-01 0.98481342E+03</pdfrwt>
<totfact> 0.34609389E+00</totfact>
</mgrwt>
</event>
<event>
 4    2  0.4681349E-007  0.7372436E+03  0.7818608E-02  0.9868050E-01
         -1   -1    0    0    0  501 -0.00000000000E+00  0.00000000000E+00  0.30493160508E+03  0.30493160512E+03  0.50400000000E-02 0.  1.
          1   -1    0    0  501    0  0.00000000000E+00 -0.00000000000E+00 -0.12062332722E+04  0.12062332722E+04  0.50400000000E-02 0. -1.
    8880023    1    1    2    0    0  0.32809240288E+03 -0.45534192090E+02 -0.27600725515E+03  0.78721547154E+03  0.65864270000E+03 0.  1.
    8880022    1    1    2    0    0 -0.32809240288E+03  0.45534192090E+02 -0.62529441192E+03  0.72394940574E+03  0.15294330000E+03 0.  0.
<mgrwt>
<rscale>  0 0.61835015E+03</rscale>
<asrwt>0</asrwt>
<pdfrwt beam="1">  1        1 0.18557435E+00 0.73724365E+03</pdfrwt>
<pdfrwt beam="2">  1       -1 0.46912555E-01 0.73724365E+03</pdfrwt>
<totfact> 0.49188246E+01</totfact>
</mgrwt>
</event>
<event>
 4    2  0.4681349E-007  0.8377504E+03  0.7818608E-02  0.9634437E-01
         -1   -1    0    0    0  501 -0.00000000000E+00  0.00000000000E+00  0.30244458067E+04  0.30244458067E+04  0.50400000000E-02 0.  1.
          1   -1    0    0  501    0  0.00000000000E+00 -0.00000000000E+00 -0.17708788078E+03  0.17708788085E+03  0.50400000000E-02 0. -1.
    8880023    1    1    2    0    0  0.29700520469E+03  0.42403231691E+03  0.22260550182E+04  0.23784756984E+04  0.65864270000E+03 0.  1.
    8880022    1    1    2    0    0 -0.29700520469E+03 -0.42403231691E+03  0.62130290768E+03  0.82305798915E+03  0.15294330000E+03 0.  0.
<mgrwt>
<rscale>  0 0.75058262E+03</rscale>
<asrwt>0</asrwt>
<pdfrwt beam="1">  1        1 0.27244289E-01 0.83775038E+03</pdfrwt>
<pdfrwt beam="2">  1       -1 0.46529937E+00 0.83775038E+03</pdfrwt>
<totfact> 0.46548645E-01</totfact>
</mgrwt>
</event>
<event>
 4    2  0.4681349E-007  0.6826618E+03  0.7818608E-02  0.1007856E+00
          1   -1    0    0  501    0  0.00000000000E+00  0.00000000000E+00  0.89101254965E+03  0.89101254966E+03  0.50400000000E-02 0. -1.
         -1   -1    0    0    0  501 -0.00000000000E+00 -0.00000000000E+00 -0.33561699774E+03  0.33561699777E+03  0.50400000000E-02 0.  1.
    8880023    1    1    2    0    0 -0.16912628492E+03  0.60110374713E+02  0.69069844443E+02  0.68614707394E+03  0.65864270000E+03 0.  0.
    8880022    1    1    2    0    0  0.16912628492E+03 -0.60110374713E+02  0.48632570747E+03  0.54048247350E+03  0.15294330000E+03 0.  0.
<mgrwt>
<rscale>  0 0.52335571E+03</rscale>
<asrwt>0</asrwt>
<pdfrwt beam="1">  1        1 0.13707885E+00 0.68266182E+03</pdfrwt>
<pdfrwt beam="2">  1       -1 0.51633384E-01 0.68266182E+03</pdfrwt>
<totfact> 0.71777767E+01</totfact>
</mgrwt>
</event>
<event>
 4    2  0.4681349E-007  0.7313472E+03  0.7818608E-02  0.9885909E-01
         -1   -1    0    0    0  501 -0.00000000000E+00  0.00000000000E+00  0.59792698779E+03  0.59792698781E+03  0.50400000000E-02 0.  1.
          1   -1    0    0  501    0  0.00000000000E+00 -0.00000000000E+00 -0.12493454807E+04  0.12493454807E+04  0.50400000000E-02 0. -1.
    8880023    1    1    2    0    0 -0.41253072105E+01  0.31787020511E+03  0.33149596422E+03  0.80296840910E+03  0.65864270000E+03 0.  1.
    8880022    1    1    2    0    0  0.41253072105E+01 -0.31787020511E+03 -0.98291445711E+03  0.10443040594E+04  0.15294330000E+03 0.  0.
<mgrwt>
<rscale>  0 0.60949074E+03</rscale>
<asrwt>0</asrwt>
<pdfrwt beam="1">  1        1 0.19220700E+00 0.73134718E+03</pdfrwt>
<pdfrwt beam="2">  1       -1 0.91988768E-01 0.73134718E+03</pdfrwt>
<totfact> 0.11741326E+01</totfact>
</mgrwt>
</event>
<event>
 4    2  0.4681349E-007  0.9115418E+03  0.7818608E-02  0.9507752E-01
         -1   -1    0    0    0  501 -0.00000000000E+00  0.00000000000E+00  0.68452762638E+03  0.68452762640E+03  0.50400000000E-02 0.  1.
          1   -1    0    0  501    0  0.00000000000E+00 -0.00000000000E+00 -0.18267532224E+04  0.18267532224E+04  0.50400000000E-02 0. -1.
    8880023    1    1    2    0    0 -0.28985922185E+03  0.55953537051E+03  0.27552532575E+03  0.95227234064E+03  0.65864270000E+03 0.  1.
    8880022    1    1    2    0    0  0.28985922185E+03 -0.55953537051E+03 -0.14177509217E+04  0.15590085081E+04  0.15294330000E+03 0.  0.
<mgrwt>
<rscale>  0 0.83714728E+03</rscale>
<asrwt>0</asrwt>
<pdfrwt beam="1">  1        1 0.28103896E+00 0.91154177E+03</pdfrwt>
<pdfrwt beam="2">  1       -1 0.10531194E+00 0.91154177E+03</pdfrwt>
<totfact> 0.33743782E+00</totfact>
</mgrwt>
</event>
<event>
 4    2  0.4681349E-007  0.7611581E+03  0.7818608E-02  0.9802118E-01
          1   -1    0    0  501    0  0.00000000000E+00  0.00000000000E+00  0.22445692664E+04  0.22445692664E+04  0.50400000000E-02 0. -1.
         -1   -1    0    0    0  501 -0.00000000000E+00 -0.00000000000E+00 -0.22425826706E+03  0.22425826712E+03  0.50400000000E-02 0.  1.
    8880023    1    1    2    0    0 -0.13105235304E+03 -0.35829697723E+03  0.54192797898E+03  0.93437015352E+03  0.65864270000E+03 0.  0.
    8880022    1    1    2    0    0  0.13105235304E+03  0.35829697723E+03  0.14783830204E+04  0.15344573800E+04  0.15294330000E+03 0.  0.
<mgrwt>
<rscale>  0 0.65248977E+03</rscale>
<asrwt>0</asrwt>
<pdfrwt beam="1">  1        1 0.34531835E+00 0.76115810E+03</pdfrwt>
<pdfrwt beam="2">  1       -1 0.34501271E-01 0.76115810E+03</pdfrwt>
<totfact> 0.16879223E+01</totfact>
</mgrwt>
</event>
<event>
 4    2  0.4681349E-007  0.9207833E+03  0.7818608E-02  0.9493459E-01
          1   -1    0    0  501    0  0.00000000000E+00  0.00000000000E+00  0.77917921169E+03  0.77917921171E+03  0.50400000000E-02 0. -1.
         -1   -1    0    0    0  501 -0.00000000000E+00 -0.00000000000E+00 -0.95962056213E+03  0.95962056214E+03  0.50400000000E-02 0.  1.
    8880023    1    1    2    0    0  0.47553011167E+03 -0.43347754177E+03 -0.44967582486E+03  0.10247195812E+04  0.65864270000E+03 0.  0.
    8880022    1    1    2    0    0 -0.47553011167E+03  0.43347754177E+03  0.26923447443E+03  0.71408019267E+03  0.15294330000E+03 0.  0.
<mgrwt>
<rscale>  0 0.84767781E+03</rscale>
<asrwt>0</asrwt>
<pdfrwt beam="1">  1        1 0.11987373E+00 0.92078329E+03</pdfrwt>
<pdfrwt beam="2">  1       -1 0.14763393E+00 0.92078329E+03</pdfrwt>
<totfact> 0.84878253E+00</totfact>
</mgrwt>
</event>
<event>
 4    2  0.4681349E-007  0.1008279E+04  0.7818608E-02  0.9370806E-01
         -1   -1    0    0    0  501 -0.00000000000E+00  0.00000000000E+00  0.13604966917E+04  0.13604966917E+04  0.50400000000E-02 0.  1.
          1   -1    0    0  501    0  0.00000000000E+00 -0.00000000000E+00 -0.91307676464E+03  0.91307676465E+03  0.50400000000E-02 0. -1.
    8880023    1    1    2    0    0 -0.16185379026E+03  0.74606887950E+03  0.91820120640E+03  0.13637151770E+04  0.65864270000E+03 0.  0.
    8880022    1    1    2    0    0  0.16185379026E+03 -0.74606887950E+03 -0.47078127938E+03  0.90985827929E+03  0.15294330000E+03 0.  0.
<mgrwt>
<rscale>  0 0.94517673E+03</rscale>
<asrwt>0</asrwt>
<pdfrwt beam="1">  1        1 0.14047335E+00 0.10082785E+04</pdfrwt>
<pdfrwt beam="2">  1       -1 0.20930718E+00 0.10082785E+04</pdfrwt>
<totfact> 0.23155794E+00</totfact>
</mgrwt>
</event>
<event>
 4    2  0.4681349E-007  0.1039568E+04  0.7818608E-02  0.9331528E-01
         -1   -1    0    0    0  501 -0.00000000000E+00  0.00000000000E+00  0.42616125126E+03  0.42616125129E+03  0.50400000000E-02 0.  1.
          1   -1    0    0  501    0  0.00000000000E+00 -0.00000000000E+00 -0.25579994419E+04  0.25579994419E+04  0.50400000000E-02 0. -1.
    8880023    1    1    2    0    0  0.40677724419E+03  0.69384750407E+03 -0.48945459482E+03  0.11490291954E+04  0.65864270000E+03 0.  0.
    8880022    1    1    2    0    0 -0.40677724419E+03 -0.69384750407E+03 -0.16423835959E+04  0.18351314978E+04  0.15294330000E+03 0.  0.
<mgrwt>
<rscale>  0 0.97931434E+03</rscale>
<asrwt>0</asrwt>
<pdfrwt beam="1">  1        1 0.39353837E+00 0.10395683E+04</pdfrwt>
<pdfrwt beam="2">  1       -1 0.65563271E-01 0.10395683E+04</pdfrwt>
<totfact> 0.29524781E+00</totfact>
</mgrwt>
</event>
<event>
 4    2  0.4681349E-007  0.9070896E+03  0.7818608E-02  0.9514745E-01
          1   -1    0    0  501    0  0.00000000000E+00  0.00000000000E+00  0.10812991243E+04  0.10812991243E+04  0.50400000000E-02 0. -1.
         -1   -1    0    0    0  501 -0.00000000000E+00 -0.00000000000E+00 -0.56643328673E+03  0.56643328675E+03  0.50400000000E-02 0.  1.
    8880023    1    1    2    0    0  0.23767026531E+03  0.57664041514E+03  0.41621384612E+03  0.99802078904E+03  0.65864270000E+03 0.  0.
    8880022    1    1    2    0    0 -0.23767026531E+03 -0.57664041514E+03  0.98651991464E+02  0.64971162204E+03  0.15294330000E+03 0. -1.
<mgrwt>
<rscale>  0 0.83205406E+03</rscale>
<asrwt>0</asrwt>
<pdfrwt beam="1">  1        1 0.16635371E+00 0.90708959E+03</pdfrwt>
<pdfrwt beam="2">  1       -1 0.87143583E-01 0.90708959E+03</pdfrwt>
<totfact> 0.17194248E+01</totfact>
</mgrwt>
</event>
<event>
 4    2  0.4681349E-007  0.6720743E+03  0.7818608E-02  0.1014217E+00
          1   -1    0    0  501    0  0.00000000000E+00  0.00000000000E+00  0.53785095262E+03  0.53785095265E+03  0.50400000000E-02 0. -1.
         -1   -1    0    0    0  501 -0.00000000000E+00 -0.00000000000E+00 -0.80811510887E+03  0.80811510889E+03  0.50400000000E-02 0.  1.
    8880023    1    1    2    0    0 -0.12335213002E+03  0.51555302067E+02 -0.63747378297E+03  0.92631351463E+03  0.65864270000E+03 0.  1.
    8880022    1    1    2    0    0  0.12335213002E+03 -0.51555302067E+02  0.36720962672E+03  0.41965254691E+03  0.15294330000E+03 0.  0.
<mgrwt>
<rscale>  0 0.49832328E+03</rscale>
<asrwt>0</asrwt>
<pdfrwt beam="1">  1        1 0.82746301E-01 0.67207433E+03</pdfrwt>
<pdfrwt beam="2">  1       -1 0.12432540E+00 0.67207433E+03</pdfrwt>
<totfact> 0.23483544E+01</totfact>
</mgrwt>
</event>
<event>
 4    2  0.4681349E-007  0.6859324E+03  0.7818608E-02  0.1006149E+00
         -1   -1    0    0    0  501 -0.00000000000E+00  0.00000000000E+00  0.62211866828E+03  0.62211866830E+03  0.50400000000E-02 0.  1.
          1   -1    0    0  501    0  0.00000000000E+00 -0.00000000000E+00 -0.88298346256E+03  0.88298346257E+03  0.50400000000E-02 0. -1.
    8880023    1    1    2    0    0  0.55210577182E+02 -0.18342524629E+03  0.40429466055E+03  0.79621442315E+03  0.65864270000E+03 0.  1.
    8880022    1    1    2    0    0 -0.55210577182E+02  0.18342524629E+03 -0.66515945483E+03  0.70888770773E+03  0.15294330000E+03 0.  0.
<mgrwt>
<rscale>  0 0.53034252E+03</rscale>
<asrwt>0</asrwt>
<pdfrwt beam="1">  1        1 0.13584361E+00 0.68593238E+03</pdfrwt>
<pdfrwt beam="2">  1       -1 0.95710565E-01 0.68593238E+03</pdfrwt>
<totfact> 0.20505496E+01</totfact>
</mgrwt>
</event>
<event>
 4    2  0.4681349E-007  0.7587335E+03  0.7818608E-02  0.9808397E-01
          1   -1    0    0  501    0  0.00000000000E+00  0.00000000000E+00  0.14849394226E+04  0.14849394226E+04  0.50400000000E-02 0. -1.
         -1   -1    0    0    0  501 -0.00000000000E+00 -0.00000000000E+00 -0.10382093124E+04  0.10382093124E+04  0.50400000000E-02 0.  1.
    8880023    1    1    2    0    0  0.33614353297E+03  0.16992306031E+03 -0.86456705930E+03  0.11502837595E+04  0.65864270000E+03 0.  1.
    8880022    1    1    2    0    0 -0.33614353297E+03 -0.16992306031E+03  0.13112971695E+04  0.13728649755E+04  0.15294330000E+03 0.  0.
<mgrwt>
<rscale>  0 0.64913832E+03</rscale>
<asrwt>0</asrwt>
<pdfrwt beam="1">  1        1 0.22845222E+00 0.75873350E+03</pdfrwt>
<pdfrwt beam="2">  1       -1 0.15972451E+00 0.75873350E+03</pdfrwt>
<totfact> 0.20567473E+00</totfact>
</mgrwt>
</event>
<event>
 4    2  0.4681349E-007  0.6854525E+03  0.7818608E-02  0.1006394E+00
         -1   -1    0    0    0  501 -0.00000000000E+00  0.00000000000E+00  0.21926534992E+03  0.21926534998E+03  0.50400000000E-02 0.  1.
          1   -1    0    0  501    0  0.00000000000E+00 -0.00000000000E+00 -0.19241390322E+04  0.19241390322E+04  0.50400000000E-02 0. -1.
    8880023    1    1    2    0    0 -0.12048488191E+03  0.14669107692E+03 -0.35544049301E+03  0.77212889413E+03  0.65864270000E+03 0.  0.
    8880022    1    1    2    0    0  0.12048488191E+03 -0.14669107692E+03 -0.13494331892E+04  0.13712754880E+04  0.15294330000E+03 0. -1.
<mgrwt>
<rscale>  0 0.52933493E+03</rscale>
<asrwt>0</asrwt>
<pdfrwt beam="1">  1        1 0.29602138E+00 0.68545247E+03</pdfrwt>
<pdfrwt beam="2">  1       -1 0.33733132E-01 0.68545247E+03</pdfrwt>
<totfact> 0.29092891E+01</totfact>
</mgrwt>
</event>
<event>
 4    2  0.4681349E-007  0.7511916E+03  0.7818608E-02  0.9828470E-01
          1   -1    0    0  501    0  0.00000000000E+00  0.00000000000E+00  0.31155142413E+04  0.31155142413E+04  0.50400000000E-02 0. -1.
         -1   -1    0    0    0  501 -0.00000000000E+00 -0.00000000000E+00 -0.31193241929E+03  0.31193241933E+03  0.50400000000E-02 0.  1.
    8880023    1    1    2    0    0  0.10571418803E+03  0.34540279725E+03  0.17703604255E+03  0.77177104670E+03  0.65864270000E+03 0.  1.
    8880022    1    1    2    0    0 -0.10571418803E+03 -0.34540279725E+03  0.26265457795E+04  0.26556756140E+04  0.15294330000E+03 0.  0.
<mgrwt>
<rscale>  0 0.63856831E+03</rscale>
<asrwt>0</asrwt>
<pdfrwt beam="1">  1        1 0.47930989E+00 0.75119158E+03</pdfrwt>
<pdfrwt beam="2">  1       -1 0.47989602E-01 0.75119158E+03</pdfrwt>
<totfact> 0.22947228E+00</totfact>
</mgrwt>
</event>
<event>
 4    2  0.4681349E-007  0.7037779E+03  0.7818608E-02  0.9981876E-01
          1   -1    0    0  501    0  0.00000000000E+00  0.00000000000E+00  0.86342591441E+03  0.86342591442E+03  0.50400000000E-02 0. -1.
         -1   -1    0    0    0  501 -0.00000000000E+00 -0.00000000000E+00 -0.53673163823E+03  0.53673163826E+03  0.50400000000E-02 0.  1.
    8880023    1    1    2    0    0  0.40485293513E+02  0.24465099196E+03 -0.25583187314E+03  0.74883464159E+03  0.65864270000E+03 0.  0.
    8880022    1    1    2    0    0 -0.40485293513E+02 -0.24465099196E+03  0.58252614932E+03  0.65132291110E+03  0.15294330000E+03 0.  0.
<mgrwt>
<rscale>  0 0.56452150E+03</rscale>
<asrwt>0</asrwt>
<pdfrwt beam="1">  1        1 0.13283476E+00 0.70377793E+03</pdfrwt>
<pdfrwt beam="2">  1       -1 0.82574098E-01 0.70377793E+03</pdfrwt>
<totfact> 0.29334994E+01</totfact>
</mgrwt>
</event>
<event>
 4    2  0.4681349E-007  0.8145949E+03  0.7818608E-02  0.9680084E-01
         -1   -1    0    0    0  501 -0.00000000000E+00  0.00000000000E+00  0.50270985217E+03  0.50270985220E+03  0.50400000000E-02 0.  1.
          1   -1    0    0  501    0  0.00000000000E+00 -0.00000000000E+00 -0.11746818988E+04  0.11746818988E+04  0.50400000000E-02 0. -1.
    8880023    1    1    2    0    0  0.42826415319E+03 -0.21527762986E+03  0.28329708951E+02  0.81508737047E+03  0.65864270000E+03 0.  1.
    8880022    1    1    2    0    0 -0.42826415319E+03  0.21527762986E+03 -0.70030175562E+03  0.86230438058E+03  0.15294330000E+03 0.  0.
<mgrwt>
<rscale>  0 0.72215049E+03</rscale>
<asrwt>0</asrwt>
<pdfrwt beam="1">  1        1 0.18072029E+00 0.81459490E+03</pdfrwt>
<pdfrwt beam="2">  1       -1 0.77339978E-01 0.81459490E+03</pdfrwt>
<totfact> 0.19124159E+01</totfact>
</mgrwt>
</event>
<event>
 4    2  0.4681349E-007  0.6766945E+03  0.7818608E-02  0.1011259E+00
          1   -1    0    0  501    0  0.00000000000E+00  0.00000000000E+00  0.16478623946E+04  0.16478623946E+04  0.50400000000E-02 0. -1.
         -1   -1    0    0    0  501 -0.00000000000E+00 -0.00000000000E+00 -0.60196730855E+03  0.60196730857E+03  0.50400000000E-02 0.  1.
    8880023    1    1    2    0    0  0.15523759366E+03  0.25633443626E+01 -0.40101864220E+03  0.78659483781E+03  0.65864270000E+03 0.  1.
    8880022    1    1    2    0    0 -0.15523759366E+03 -0.25633443626E+01  0.14469137282E+04  0.14632348653E+04  0.15294330000E+03 0.  0.
<mgrwt>
<rscale>  0 0.50977402E+03</rscale>
<asrwt>0</asrwt>
<pdfrwt beam="1">  1        1 0.25351729E+00 0.67669453E+03</pdfrwt>
<pdfrwt beam="2">  1       -1 0.92610357E-01 0.67669453E+03</pdfrwt>
<totfact> 0.61962233E+00</totfact>
</mgrwt>
</event>
<event>
 4    2  0.4681349E-007  0.6869567E+03  0.7818608E-02  0.1005634E+00
         -1   -1    0    0    0  501 -0.00000000000E+00  0.00000000000E+00  0.10885144639E+04  0.10885144639E+04  0.50400000000E-02 0.  1.
          1   -1    0    0  501    0  0.00000000000E+00 -0.00000000000E+00 -0.49881867858E+03  0.49881867861E+03  0.50400000000E-02 0. -1.
    8880023    1    1    2    0    0 -0.33349677385E+02  0.19232020972E+03  0.93622564689E+03  0.11612182965E+04  0.65864270000E+03 0.  1.
    8880022    1    1    2    0    0  0.33349677385E+02 -0.19232020972E+03 -0.34652986154E+03  0.42611484602E+03  0.15294330000E+03 0.  0.
<mgrwt>
<rscale>  0 0.53247397E+03</rscale>
<asrwt>0</asrwt>
<pdfrwt beam="1">  1        1 0.76741336E-01 0.68695667E+03</pdfrwt>
<pdfrwt beam="2">  1       -1 0.16746376E+00 0.68695667E+03</pdfrwt>
<totfact> 0.11854719E+01</totfact>
</mgrwt>
</event>
<event>
 4    2  0.4681349E-007  0.8852350E+03  0.7818608E-02  0.9550162E-01
         -1   -1    0    0    0  501 -0.00000000000E+00  0.00000000000E+00  0.36395692920E+03  0.36395692924E+03  0.50400000000E-02 0.  1.
          1   -1    0    0  501    0  0.00000000000E+00 -0.00000000000E+00 -0.23820195340E+04  0.23820195341E+04  0.50400000000E-02 0. -1.
    8880023    1    1    2    0    0  0.48691558028E+03  0.33577383341E+03 -0.31989540311E+03  0.94126198516E+03  0.65864270000E+03 0.  1.
    8880022    1    1    2    0    0 -0.48691558028E+03 -0.33577383341E+03 -0.16981672017E+04  0.18047144781E+04  0.15294330000E+03 0.  0.
<mgrwt>
<rscale>  0 0.80684464E+03</rscale>
<asrwt>0</asrwt>
<pdfrwt beam="1">  1        1 0.36646453E+00 0.88523503E+03</pdfrwt>
<pdfrwt beam="2">  1       -1 0.55993375E-01 0.88523503E+03</pdfrwt>
<totfact> 0.54488076E+00</totfact>
</mgrwt>
</event>
<event>
 4    2  0.4681349E-007  0.1057704E+04  0.7818608E-02  0.9309677E-01
          1   -1    0    0  501    0  0.00000000000E+00  0.00000000000E+00  0.17572425284E+04  0.17572425285E+04  0.50400000000E-02 0. -1.
         -1   -1    0    0    0  501 -0.00000000000E+00 -0.00000000000E+00 -0.10177455971E+04  0.10177455971E+04  0.50400000000E-02 0.  1.
    8880023    1    1    2    0    0 -0.31662068365E+02  0.82699755541E+03 -0.58275021239E+03  0.12076156092E+04  0.65864270000E+03 0.  0.
    8880022    1    1    2    0    0  0.31662068365E+02 -0.82699755541E+03  0.13222471437E+04  0.15673725164E+04  0.15294330000E+03 0.  0.
<mgrwt>
<rscale>  0 0.99896832E+03</rscale>
<asrwt>0</asrwt>
<pdfrwt beam="1">  1        1 0.27034500E+00 0.10577040E+04</pdfrwt>
<pdfrwt beam="2">  1       -1 0.15657625E+00 0.10577040E+04</pdfrwt>
<totfact> 0.13516861E+00</totfact>
</mgrwt>
</event>
<event>
 4    2  0.4681349E-007  0.7551588E+03  0.7818608E-02  0.9817806E-01
          1   -1    0    0  501    0  0.00000000000E+00  0.00000000000E+00  0.23282626385E+04  0.23282626385E+04  0.50400000000E-02 0. -1.
         -1   -1    0    0    0  501 -0.00000000000E+00 -0.00000000000E+00 -0.23838649979E+03  0.23838649984E+03  0.50400000000E-02 0.  1.
    8880023    1    1    2    0    0 -0.29440735834E+03  0.22311178744E+03  0.45072106461E+03  0.87943973454E+03  0.65864270000E+03 0.  1.
    8880022    1    1    2    0    0  0.29440735834E+03 -0.22311178744E+03  0.16391550741E+04  0.16872094038E+04  0.15294330000E+03 0.  0.
<mgrwt>
<rscale>  0 0.64415665E+03</rscale>
<asrwt>0</asrwt>
<pdfrwt beam="1">  1        1 0.35819424E+00 0.75515877E+03</pdfrwt>
<pdfrwt beam="2">  1       -1 0.36674847E-01 0.75515877E+03</pdfrwt>
<totfact> 0.13302744E+01</totfact>
</mgrwt>
</event>
<event>
 4    2  0.4681349E-007  0.1450475E+04  0.7818608E-02  0.8945423E-01
         -1   -1    0    0    0  501 -0.00000000000E+00  0.00000000000E+00  0.28056207598E+04  0.28056207598E+04  0.50400000000E-02 0.  1.
          1   -1    0    0  501    0  0.00000000000E+00 -0.00000000000E+00 -0.14023219752E+04  0.14023219752E+04  0.50400000000E-02 0. -1.
    8880023    1    1    2    0    0 -0.78996922030E+03  0.10227495917E+04  0.22343635749E+04  0.26638804191E+04  0.65864270000E+03 0.  0.
    8880022    1    1    2    0    0  0.78996922030E+03 -0.10227495917E+04 -0.83106479028E+03  0.15440623158E+04  0.15294330000E+03 0.  0.
<mgrwt>
<rscale>  0 0.14116583E+04</rscale>
<asrwt>0</asrwt>
<pdfrwt beam="1">  1        1 0.21574184E+00 0.14504752E+04</pdfrwt>
<pdfrwt beam="2">  1       -1 0.43163396E+00 0.14504752E+04</pdfrwt>
<totfact> 0.31627012E-02</totfact>
</mgrwt>
</event>
<event>
 4    2  0.4681349E-007  0.1070973E+04  0.7818608E-02  0.9294084E-01
          1   -1    0    0  501    0  0.00000000000E+00  0.00000000000E+00  0.24083743136E+04  0.24083743136E+04  0.50400000000E-02 0. -1.
         -1   -1    0    0    0  501 -0.00000000000E+00 -0.00000000000E+00 -0.10882059055E+04  0.10882059055E+04  0.50400000000E-02 0.  1.
    8880023    1    1    2    0    0  0.31699256461E+03  0.78274449966E+03 -0.71509393042E+03  0.12877665834E+04  0.65864270000E+03 0.  0.
    8880022    1    1    2    0    0 -0.31699256461E+03 -0.78274449966E+03  0.20352623385E+04  0.22088136357E+04  0.15294330000E+03 0.  0.
<mgrwt>
<rscale>  0 0.10132936E+04</rscale>
<asrwt>0</asrwt>
<pdfrwt beam="1">  1        1 0.37051912E+00 0.10709731E+04</pdfrwt>
<pdfrwt beam="2">  1       -1 0.16741630E+00 0.10709731E+04</pdfrwt>
<totfact> 0.40514139E-01</totfact>
</mgrwt>
</event>
<event>
 4    2  0.4681349E-007  0.1174603E+04  0.7818608E-02  0.9182214E-01
          1   -1    0    0  501    0  0.00000000000E+00  0.00000000000E+00  0.18403528175E+04  0.18403528175E+04  0.50400000000E-02 0. -1.
         -1   -1    0    0    0  501 -0.00000000000E+00 -0.00000000000E+00 -0.84525515683E+03  0.84525515685E+03  0.50400000000E-02 0.  1.
    8880023    1    1    2    0    0 -0.95147654421E+03  0.20143143131E+03 -0.14013700965E+03  0.11829331441E+04  0.65864270000E+03 0.  0.
    8880022    1    1    2    0    0  0.95147654421E+03 -0.20143143131E+03  0.11352346703E+04  0.15026748302E+04  0.15294330000E+03 0.  0.
<mgrwt>
<rscale>  0 0.11238909E+04</rscale>
<asrwt>0</asrwt>
<pdfrwt beam="1">  1        1 0.28313120E+00 0.11746031E+04</pdfrwt>
<pdfrwt beam="2">  1       -1 0.13003926E+00 0.11746031E+04</pdfrwt>
<totfact> 0.19112576E+00</totfact>
</mgrwt>
</event>
<event>
 4    2  0.4681349E-007  0.9057763E+03  0.7818608E-02  0.9516822E-01
         -1   -1    0    0    0  501 -0.00000000000E+00  0.00000000000E+00  0.14427773212E+04  0.14427773212E+04  0.50400000000E-02 0.  1.
          1   -1    0    0  501    0  0.00000000000E+00 -0.00000000000E+00 -0.88786087015E+03  0.88786087016E+03  0.50400000000E-02 0. -1.
    8880023    1    1    2    0    0  0.62007036575E+03  0.46187774925E+02  0.11449552419E+04  0.14599155049E+04  0.65864270000E+03 0.  1.
    8880022    1    1    2    0    0 -0.62007036575E+03 -0.46187774925E+02 -0.59003879089E+03  0.87072268651E+03  0.15294330000E+03 0.  0.
<mgrwt>
<rscale>  0 0.83054913E+03</rscale>
<asrwt>0</asrwt>
<pdfrwt beam="1">  1        1 0.13659398E+00 0.90577634E+03</pdfrwt>
<pdfrwt beam="2">  1       -1 0.22196574E+00 0.90577634E+03</pdfrwt>
<totfact> 0.20249714E+00</totfact>
</mgrwt>
</event>
<event>
 4    2  0.4681349E-007  0.7503896E+03  0.7818608E-02  0.9830655E-01
         -1   -1    0    0    0  501 -0.00000000000E+00  0.00000000000E+00  0.42095376326E+03  0.42095376329E+03  0.50400000000E-02 0.  1.
          1   -1    0    0  501    0  0.00000000000E+00 -0.00000000000E+00 -0.14261271385E+04  0.14261271385E+04  0.50400000000E-02 0. -1.
    8880023    1    1    2    0    0  0.11075028114E+03  0.34206537909E+03  0.19288537668E+02  0.75063746396E+03  0.65864270000E+03 0. -1.
    8880022    1    1    2    0    0 -0.11075028114E+03 -0.34206537909E+03 -0.10244619129E+04  0.10964434378E+04  0.15294330000E+03 0.  0.
<mgrwt>
<rscale>  0 0.63743058E+03</rscale>
<asrwt>0</asrwt>
<pdfrwt beam="1">  1        1 0.21940417E+00 0.75038960E+03</pdfrwt>
<pdfrwt beam="2">  1       -1 0.64762118E-01 0.75038960E+03</pdfrwt>
<totfact> 0.18413175E+01</totfact>
</mgrwt>
</event>
<event>
 4    2  0.4681349E-007  0.7663372E+03  0.7818608E-02  0.9788969E-01
         -1   -1    0    0    0  501 -0.00000000000E+00  0.00000000000E+00  0.57339433344E+03  0.57339433346E+03  0.50400000000E-02 0.  1.
          1   -1    0    0  501    0  0.00000000000E+00 -0.00000000000E+00 -0.14441115094E+04  0.14441115094E+04  0.50400000000E-02 0. -1.
    8880023    1    1    2    0    0  0.39141607360E+03  0.16000011132E+02  0.26148817639E+03  0.80972144326E+03  0.65864270000E+03 0.  0.
    8880022    1    1    2    0    0 -0.39141607360E+03 -0.16000011132E+02 -0.11322053523E+04  0.12077843996E+04  0.15294330000E+03 0.  0.
<mgrwt>
<rscale>  0 0.65957907E+03</rscale>
<asrwt>0</asrwt>
<pdfrwt beam="1">  1        1 0.22217100E+00 0.76633723E+03</pdfrwt>
<pdfrwt beam="2">  1       -1 0.88214514E-01 0.76633723E+03</pdfrwt>
<totfact> 0.93536640E+00</totfact>
</mgrwt>
</event>
<event>
 4    2  0.4681349E-007  0.9151102E+03  0.7818608E-02  0.9502198E-01
         -1   -1    0    0    0  501 -0.00000000000E+00  0.00000000000E+00  0.10002203019E+04  0.10002203019E+04  0.50400000000E-02 0.  1.
          1   -1    0    0  501    0  0.00000000000E+00 -0.00000000000E+00 -0.10190059678E+04  0.10190059678E+04  0.50400000000E-02 0. -1.
    8880023    1    1    2    0    0 -0.57773283424E+03  0.26427503114E+03  0.62003964808E+03  0.11053849516E+04  0.65864270000E+03 0.  0.
    8880022    1    1    2    0    0  0.57773283424E+03 -0.26427503114E+03 -0.63882531393E+03  0.91384131805E+03  0.15294330000E+03 0.  0.
<mgrwt>
<rscale>  0 0.84121998E+03</rscale>
<asrwt>0</asrwt>
<pdfrwt beam="1">  1        1 0.15677015E+00 0.91511023E+03</pdfrwt>
<pdfrwt beam="2">  1       -1 0.15388005E+00 0.91511023E+03</pdfrwt>
<totfact> 0.48223450E+00</totfact>
</mgrwt>
</event>
<event>
 4    2  0.5692325E-007  0.8257413E+03  0.7818608E-02  0.9657676E-01
         -1   -1    0    0    0  501 -0.00000000000E+00  0.00000000000E+00  0.10196060213E+04  0.10196060213E+04  0.50400000000E-02 0.  1.
          1   -1    0    0  501    0  0.00000000000E+00 -0.00000000000E+00 -0.13340175902E+04  0.13340175902E+04  0.50400000000E-02 0. -1.
    8880023    1    1    2    0    0  0.43029332035E+03  0.25077117543E+03  0.78354595608E+03  0.11383290366E+04  0.65864270000E+03 0.  0.
    8880022    1    1    2    0    0 -0.43029332035E+03 -0.25077117543E+03 -0.10979575250E+04  0.12152945749E+04  0.15294330000E+03 0.  0.
<mgrwt>
<rscale>  0 0.73593639E+03</rscale>
<asrwt>0</asrwt>
<pdfrwt beam="1">  1        1 0.20523348E+00 0.82574132E+03</pdfrwt>
<pdfrwt beam="2">  1       -1 0.15686246E+00 0.82574132E+03</pdfrwt>
<totfact> 0.27207272E+00</totfact>
</mgrwt>
</event>
<event>
 4    2  0.4681349E-007  0.6980370E+03  0.7818608E-02  0.1000544E+00
          1   -1    0    0  501    0  0.00000000000E+00  0.00000000000E+00  0.77993420742E+03  0.77993420743E+03  0.50400000000E-02 0. -1.
         -1   -1    0    0    0  501 -0.00000000000E+00 -0.00000000000E+00 -0.11678292827E+04  0.11678292827E+04  0.50400000000E-02 0.  1.
    8880023    1    1    2    0    0 -0.12513063638E+03 -0.19439092167E+03 -0.10323658659E+04  0.12462082466E+04  0.65864270000E+03 0.  0.
    8880022    1    1    2    0    0  0.12513063638E+03  0.19439092167E+03  0.64447079068E+03  0.70155524347E+03  0.15294330000E+03 0.  0.
<mgrwt>
<rscale>  0 0.55412184E+03</rscale>
<asrwt>0</asrwt>
<pdfrwt beam="1">  1        1 0.11998988E+00 0.69803704E+03</pdfrwt>
<pdfrwt beam="2">  1       -1 0.17966604E+00 0.69803704E+03</pdfrwt>
<totfact> 0.50319892E+00</totfact>
</mgrwt>
</event>
<event>
 4    2  0.4681349E-007  0.6965082E+03  0.7818608E-02  0.1001201E+00
         -1   -1    0    0    0  501 -0.00000000000E+00  0.00000000000E+00  0.28475711390E+03  0.28475711394E+03  0.50400000000E-02 0.  1.
          1   -1    0    0  501    0  0.00000000000E+00 -0.00000000000E+00 -0.15092478744E+04  0.15092478744E+04  0.50400000000E-02 0. -1.
    8880023    1    1    2    0    0 -0.92603386639E+02 -0.20673182526E+03 -0.18708356179E+03  0.72119615927E+03  0.65864270000E+03 0.  1.
    8880022    1    1    2    0    0  0.92603386639E+02  0.20673182526E+03 -0.10374071987E+04  0.10728088290E+04  0.15294330000E+03 0.  0.
<mgrwt>
<rscale>  0 0.55126883E+03</rscale>
<asrwt>0</asrwt>
<pdfrwt beam="1">  1        1 0.23219198E+00 0.69650818E+03</pdfrwt>
<pdfrwt beam="2">  1       -1 0.43808788E-01 0.69650818E+03</pdfrwt>
<totfact> 0.34443893E+01</totfact>
</mgrwt>
</event>
<event>
 4    2  0.4681349E-007  0.8393021E+03  0.7818608E-02  0.9631498E-01
         -1   -1    0    0    0  501 -0.00000000000E+00  0.00000000000E+00  0.27471600991E+03  0.27471600996E+03  0.50400000000E-02 0.  1.
          1   -1    0    0  501    0  0.00000000000E+00 -0.00000000000E+00 -0.22310715043E+04  0.22310715043E+04  0.50400000000E-02 0. -1.
    8880023    1    1    2    0    0 -0.35260201489E+03  0.38247832997E+03 -0.56298987222E+03  0.10106362631E+04  0.65864270000E+03 0.  0.
    8880022    1    1    2    0    0  0.35260201489E+03 -0.38247832997E+03 -0.13933656221E+04  0.14951512511E+04  0.15294330000E+03 0.  0.
<mgrwt>
<rscale>  0 0.75246086E+03</rscale>
<asrwt>0</asrwt>
<pdfrwt beam="1">  1        1 0.34324176E+00 0.83930213E+03</pdfrwt>
<pdfrwt beam="2">  1       -1 0.42264003E-01 0.83930213E+03</pdfrwt>
<totfact> 0.11810747E+01</totfact>
</mgrwt>
</event>
<event>
 4    2  0.5654470E-007  0.8038722E+03  0.7818608E-02  0.9702485E-01
         -1   -1    0    0    0  501 -0.00000000000E+00  0.00000000000E+00  0.10675221243E+04  0.10675221243E+04  0.50400000000E-02 0.  1.
          1   -1    0    0  501    0  0.00000000000E+00 -0.00000000000E+00 -0.22589325367E+04  0.22589325367E+04  0.50400000000E-02 0. -1.
    8880023    1    1    2    0    0 -0.15720729208E+03 -0.43322761204E+03  0.88408461795E+03  0.11949125970E+04  0.65864270000E+03 0.  1.
    8880022    1    1    2    0    0  0.15720729208E+03  0.43322761204E+03 -0.20754950304E+04  0.21315420640E+04  0.15294330000E+03 0.  0.
<mgrwt>
<rscale>  0 0.70869012E+03</rscale>
<asrwt>0</asrwt>
<pdfrwt beam="1">  1        1 0.34752808E+00 0.80387219E+03</pdfrwt>
<pdfrwt beam="2">  1       -1 0.16423417E+00 0.80387219E+03</pdfrwt>
<totfact> 0.56821712E-01</totfact>
</mgrwt>
</event>
<event>
 4    2  0.4681349E-007  0.7213047E+03  0.7818608E-02  0.9918196E-01
         -1   -1    0    0    0  501 -0.00000000000E+00  0.00000000000E+00  0.13002176687E+04  0.13002176687E+04  0.50400000000E-02 0.  1.
          1   -1    0    0  501    0  0.00000000000E+00 -0.00000000000E+00 -0.21675393547E+03  0.21675393552E+03  0.50400000000E-02 0. -1.
    8880023    1    1    2    0    0 -0.16300524456E+03 -0.24474384691E+03  0.83057025519E+03  0.11000579146E+04  0.65864270000E+03 0.  1.
    8880022    1    1    2    0    0  0.16300524456E+03  0.24474384691E+03  0.25289347800E+03  0.41691368961E+03  0.15294330000E+03 0. -1.
<mgrwt>
<rscale>  0 0.59387489E+03</rscale>
<asrwt>0</asrwt>
<pdfrwt beam="1">  1        1 0.33346759E-01 0.72130470E+03</pdfrwt>
<pdfrwt beam="2">  1       -1 0.20003349E+00 0.72130470E+03</pdfrwt>
<totfact> 0.20735871E+01</totfact>
</mgrwt>
</event>
<event>
 4    2  0.4681349E-007  0.6947843E+03  0.7818608E-02  0.1001957E+00
         -1   -1    0    0    0  501 -0.00000000000E+00  0.00000000000E+00  0.19528597283E+03  0.19528597289E+03  0.50400000000E-02 0.  1.
          1   -1    0    0  501    0  0.00000000000E+00 -0.00000000000E+00 -0.13794291282E+04  0.13794291282E+04  0.50400000000E-02 0. -1.
    8880023    1    1    2    0    0 -0.21573926818E+03 -0.48698320133E+02 -0.55071176988E+03  0.88657127066E+03  0.65864270000E+03 0.  0.
    8880022    1    1    2    0    0  0.21573926818E+03  0.48698320133E+02 -0.63343138551E+03  0.68814383044E+03  0.15294330000E+03 0.  0.
<mgrwt>
<rscale>  0 0.54800526E+03</rscale>
<asrwt>0</asrwt>
<pdfrwt beam="1">  1        1 0.21221986E+00 0.69478426E+03</pdfrwt>
<pdfrwt beam="2">  1       -1 0.30043997E-01 0.69478426E+03</pdfrwt>
<totfact> 0.83137645E+01</totfact>
</mgrwt>
</event>
<event>
 4    2  0.4681349E-007  0.7861274E+03  0.7818608E-02  0.9741635E-01
          1   -1    0    0  501    0  0.00000000000E+00  0.00000000000E+00  0.70271985016E+03  0.70271985018E+03  0.50400000000E-02 0. -1.
         -1   -1    0    0    0  501 -0.00000000000E+00 -0.00000000000E+00 -0.58592201189E+03  0.58592201191E+03  0.50400000000E-02 0.  1.
    8880023    1    1    2    0    0  0.42237876275E+03 -0.76041576667E+02 -0.84286714880E+02  0.79063303572E+03  0.65864270000E+03 0.  0.
    8880022    1    1    2    0    0 -0.42237876275E+03  0.76041576667E+02  0.20108455315E+03  0.49800882637E+03  0.15294330000E+03 0.  0.
<mgrwt>
<rscale>  0 0.68591030E+03</rscale>
<asrwt>0</asrwt>
<pdfrwt beam="1">  1        1 0.10811075E+00 0.78612744E+03</pdfrwt>
<pdfrwt beam="2">  1       -1 0.90141848E-01 0.78612744E+03</pdfrwt>
<totfact> 0.33279578E+01</totfact>
</mgrwt>
</event>
<event>
 4    2  0.4681349E-007  0.9461269E+03  0.7818608E-02  0.9455709E-01
         -1   -1    0    0    0  501 -0.00000000000E+00  0.00000000000E+00  0.72789041734E+03  0.72789041735E+03  0.50400000000E-02 0.  1.
          1   -1    0    0  501    0  0.00000000000E+00 -0.00000000000E+00 -0.13516154277E+04  0.13516154277E+04  0.50400000000E-02 0. -1.
    8880023    1    1    2    0    0  0.29490734090E+03  0.61186238424E+03  0.23413856295E+03  0.97466763047E+03  0.65864270000E+03 0.  0.
    8880022    1    1    2    0    0 -0.29490734090E+03 -0.61186238424E+03 -0.85786357327E+03  0.11048382145E+04  0.15294330000E+03 0.  0.
<mgrwt>
<rscale>  0 0.87629509E+03</rscale>
<asrwt>0</asrwt>
<pdfrwt beam="1">  1        1 0.20794083E+00 0.94612691E+03</pdfrwt>
<pdfrwt beam="2">  1       -1 0.11198314E+00 0.94612691E+03</pdfrwt>
<totfact> 0.61455925E+00</totfact>
</mgrwt>
</event>
<event>
 4    2  0.4681349E-007  0.7077624E+03  0.7818608E-02  0.9966406E-01
         -1   -1    0    0    0  501 -0.00000000000E+00  0.00000000000E+00  0.22310683766E+04  0.22310683766E+04  0.50400000000E-02 0.  1.
          1   -1    0    0  501    0  0.00000000000E+00 -0.00000000000E+00 -0.28088900180E+03  0.28088900184E+03  0.50400000000E-02 0. -1.
    8880023    1    1    2    0    0  0.64712525440E+02  0.25085795780E+03  0.20703597036E+04  0.21879938150E+04  0.65864270000E+03 0.  1.
    8880022    1    1    2    0    0 -0.64712525440E+02 -0.25085795780E+03 -0.12018032886E+03  0.32396356338E+03  0.15294330000E+03 0.  0.
<mgrwt>
<rscale>  0 0.57148145E+03</rscale>
<asrwt>0</asrwt>
<pdfrwt beam="1">  1        1 0.43213694E-01 0.70776241E+03</pdfrwt>
<pdfrwt beam="2">  1       -1 0.34324128E+00 0.70776241E+03</pdfrwt>
<totfact> 0.17528652E+00</totfact>
</mgrwt>
</event>
<event>
 4    2  0.4681349E-007  0.1170448E+04  0.7818608E-02  0.9186398E-01
         -1   -1    0    0    0  501 -0.00000000000E+00  0.00000000000E+00  0.62012438728E+03  0.62012438730E+03  0.50400000000E-02 0.  1.
          1   -1    0    0  501    0  0.00000000000E+00 -0.00000000000E+00 -0.22610048130E+04  0.22610048130E+04  0.50400000000E-02 0. -1.
    8880023    1    1    2    0    0 -0.33030710867E+02  0.96697811871E+03 -0.27845495395E+03  0.12031147400E+04  0.65864270000E+03 0.  0.
    8880022    1    1    2    0    0  0.33030710867E+02 -0.96697811871E+03 -0.13624254718E+04  0.16780144603E+04  0.15294330000E+03 0.  0.
<mgrwt>
<rscale>  0 0.11194928E+04</rscale>
<asrwt>0</asrwt>
<pdfrwt beam="1">  1        1 0.34784689E+00 0.11704477E+04</pdfrwt>
<pdfrwt beam="2">  1       -1 0.95403753E-01 0.11704477E+04</pdfrwt>
<totfact> 0.20823265E+00</totfact>
</mgrwt>
</event>
<event>
 4    2  0.4681349E-007  0.6845184E+03  0.7818608E-02  0.1006875E+00
          1   -1    0    0  501    0  0.00000000000E+00  0.00000000000E+00  0.22877279810E+04  0.22877279810E+04  0.50400000000E-02 0. -1.
         -1   -1    0    0    0  501 -0.00000000000E+00 -0.00000000000E+00 -0.17411635401E+03  0.17411635408E+03  0.50400000000E-02 0.  1.
    8880023    1    1    2    0    0  0.13365505739E+03  0.12996730445E+03  0.54547563406E+03  0.87527655527E+03  0.65864270000E+03 0.  1.
    8880022    1    1    2    0    0 -0.13365505739E+03 -0.12996730445E+03  0.15681359930E+04  0.15865677798E+04  0.15294330000E+03 0.  0.
<mgrwt>
<rscale>  0 0.52735683E+03</rscale>
<asrwt>0</asrwt>
<pdfrwt beam="1">  1        1 0.35195816E+00 0.68451836E+03</pdfrwt>
<pdfrwt beam="2">  1       -1 0.26787131E-01 0.68451836E+03</pdfrwt>
<totfact> 0.24841510E+01</totfact>
</mgrwt>
</event>
<event>
 4    2  0.4681349E-007  0.9217361E+03  0.7818608E-02  0.9492002E-01
          1   -1    0    0  501    0  0.00000000000E+00  0.00000000000E+00  0.61401314128E+03  0.61401314130E+03  0.50400000000E-02 0. -1.
         -1   -1    0    0    0  501 -0.00000000000E+00 -0.00000000000E+00 -0.15817353781E+04  0.15817353781E+04  0.50400000000E-02 0.  1.
    8880023    1    1    2    0    0 -0.62675096562E+02  0.64176242845E+03 -0.11823237965E+04  0.14991620821E+04  0.65864270000E+03 0.  0.
    8880022    1    1    2    0    0  0.62675096562E+02 -0.64176242845E+03  0.21460155964E+03  0.69658643736E+03  0.15294330000E+03 0.  0.
<mgrwt>
<rscale>  0 0.84876041E+03</rscale>
<asrwt>0</asrwt>
<pdfrwt beam="1">  1        1 0.94463561E-01 0.92173607E+03</pdfrwt>
<pdfrwt beam="2">  1       -1 0.24334390E+00 0.92173607E+03</pdfrwt>
<totfact> 0.25974650E+00</totfact>
</mgrwt>
</event>
<event>
 4    2  0.4681349E-007  0.6807478E+03  0.7818608E-02  0.1008904E+00
         -1   -1    0    0    0  501 -0.00000000000E+00  0.00000000000E+00  0.27354295406E+03  0.27354295411E+03  0.50400000000E-02 0.  1.
          1   -1    0    0  501    0  0.00000000000E+00 -0.00000000000E+00 -0.10680831314E+04  0.10680831314E+04  0.50400000000E-02 0. -1.
    8880023    1    1    2    0    0 -0.16998920198E+03  0.26666042947E+02 -0.20845676274E+03  0.71194932041E+03  0.65864270000E+03 0.  1.
    8880022    1    1    2    0    0  0.16998920198E+03 -0.26666042947E+02 -0.58608341457E+03  0.62967676508E+03  0.15294330000E+03 0.  0.
<mgrwt>
<rscale>  0 0.51912653E+03</rscale>
<asrwt>0</asrwt>
<pdfrwt beam="1">  1        1 0.16432048E+00 0.68074783E+03</pdfrwt>
<pdfrwt beam="2">  1       -1 0.42083532E-01 0.68074783E+03</pdfrwt>
<totfact> 0.76461895E+01</totfact>
</mgrwt>
</event>
<event>
 4    2  0.4681349E-007  0.9527819E+03  0.7818608E-02  0.9446123E-01
          1   -1    0    0  501    0  0.00000000000E+00  0.00000000000E+00  0.14072482100E+04  0.14072482100E+04  0.50400000000E-02 0. -1.
         -1   -1    0    0    0  501 -0.00000000000E+00 -0.00000000000E+00 -0.11190611161E+04  0.11190611161E+04  0.50400000000E-02 0.  1.
    8880023    1    1    2    0    0 -0.67057626247E+03 -0.15591863206E+03 -0.79017362668E+03  0.12378076224E+04  0.65864270000E+03 0.  1.
    8880022    1    1    2    0    0  0.67057626247E+03  0.15591863206E+03  0.10783607206E+04  0.12885017037E+04  0.15294330000E+03 0.  0.
<mgrwt>
<rscale>  0 0.88375238E+03</rscale>
<asrwt>0</asrwt>
<pdfrwt beam="1">  1        1 0.21649972E+00 0.95278190E+03</pdfrwt>
<pdfrwt beam="2">  1       -1 0.17216325E+00 0.95278190E+03</pdfrwt>
<totfact> 0.18231434E+00</totfact>
</mgrwt>
</event>
<event>
 4    2  0.4681349E-007  0.8531829E+03  0.7818608E-02  0.9605807E-01
         -1   -1    0    0    0  501 -0.00000000000E+00  0.00000000000E+00  0.19091563595E+04  0.19091563595E+04  0.50400000000E-02 0.  1.
          1   -1    0    0  501    0  0.00000000000E+00 -0.00000000000E+00 -0.29867579521E+03  0.29867579525E+03  0.50400000000E-02 0. -1.
    8880023    1    1    2    0    0  0.24416393008E+02 -0.54177002695E+03  0.13256146097E+04  0.15764438531E+04  0.65864270000E+03 0.  1.
    8880022    1    1    2    0    0 -0.24416393008E+02  0.54177002695E+03  0.28486595460E+03  0.63138830164E+03  0.15294330000E+03 0.  0.
<mgrwt>
<rscale>  0 0.76913049E+03</rscale>
<asrwt>0</asrwt>
<pdfrwt beam="1">  1        1 0.45950121E-01 0.85318294E+03</pdfrwt>
<pdfrwt beam="2">  1       -1 0.29371637E+00 0.85318294E+03</pdfrwt>
<totfact> 0.33006734E+00</totfact>
</mgrwt>
</event>
<event>
 4    2  0.4681349E-007  0.8921270E+03  0.7818608E-02  0.9538790E-01
          1   -1    0    0  501    0  0.00000000000E+00  0.00000000000E+00  0.82789021434E+03  0.82789021436E+03  0.50400000000E-02 0. -1.
         -1   -1    0    0    0  501 -0.00000000000E+00 -0.00000000000E+00 -0.81357794255E+03  0.81357794257E+03  0.50400000000E-02 0.  1.
    8880023    1    1    2    0    0  0.82995063987E+02  0.59598001032E+03 -0.30561603205E+03  0.94302265013E+03  0.65864270000E+03 0.  1.
    8880022    1    1    2    0    0 -0.82995063987E+02 -0.59598001032E+03  0.31992830384E+03  0.69844550679E+03  0.15294330000E+03 0.  0.
<mgrwt>
<rscale>  0 0.81483395E+03</rscale>
<asrwt>0</asrwt>
<pdfrwt beam="1">  1        1 0.12736773E+00 0.89212699E+03</pdfrwt>
<pdfrwt beam="2">  1       -1 0.12516584E+00 0.89212699E+03</pdfrwt>
<totfact> 0.11820129E+01</totfact>
</mgrwt>
</event>
<event>
 4    2  0.4681349E-007  0.6797276E+03  0.7818608E-02  0.1009478E+00
         -1   -1    0    0    0  501 -0.00000000000E+00  0.00000000000E+00  0.42521564909E+03  0.42521564912E+03  0.50400000000E-02 0.  1.
          1   -1    0    0  501    0  0.00000000000E+00 -0.00000000000E+00 -0.24201668993E+04  0.24201668993E+04  0.50400000000E-02 0. -1.
    8880023    1    1    2    0    0  0.15146412866E+03  0.72649580567E+02  0.14365645236E+03  0.69474220139E+03  0.65864270000E+03 0.  1.
    8880022    1    1    2    0    0 -0.15146412866E+03 -0.72649580567E+02 -0.21386077025E+04  0.21506403470E+04  0.15294330000E+03 0.  0.
<mgrwt>
<rscale>  0 0.51682551E+03</rscale>
<asrwt>0</asrwt>
<pdfrwt beam="1">  1        1 0.37233336E+00 0.67972756E+03</pdfrwt>
<pdfrwt beam="2">  1       -1 0.65417794E-01 0.67972756E+03</pdfrwt>
<totfact> 0.39129447E+00</totfact>
</mgrwt>
</event>
<event>
 4    2  0.4681349E-007  0.8537110E+03  0.7818608E-02  0.9604850E-01
          1   -1    0    0  501    0  0.00000000000E+00  0.00000000000E+00  0.11983631044E+04  0.11983631044E+04  0.50400000000E-02 0. -1.
         -1   -1    0    0    0  501 -0.00000000000E+00 -0.00000000000E+00 -0.78693253652E+03  0.78693253654E+03  0.50400000000E-02 0.  1.
    8880023    1    1    2    0    0  0.53191861341E+03 -0.10988577844E+03 -0.44265099013E+03  0.96164567327E+03  0.65864270000E+03 0.  1.
    8880022    1    1    2    0    0 -0.53191861341E+03  0.10988577844E+03  0.85408155804E+03  0.10236499677E+04  0.15294330000E+03 0.  0.
<mgrwt>
<rscale>  0 0.76976023E+03</rscale>
<asrwt>0</asrwt>
<pdfrwt beam="1">  1        1 0.18436355E+00 0.85371102E+03</pdfrwt>
<pdfrwt beam="2">  1       -1 0.12106655E+00 0.85371102E+03</pdfrwt>
<totfact> 0.66297196E+00</totfact>
</mgrwt>
</event>
<event>
 4    2  0.4681349E-007  0.6599648E+03  0.7818608E-02  0.1024193E+00
         -1   -1    0    0    0  501 -0.00000000000E+00  0.00000000000E+00  0.57305337252E+03  0.57305337254E+03  0.50400000000E-02 0.  1.
          1   -1    0    0  501    0  0.00000000000E+00 -0.00000000000E+00 -0.67932339177E+03  0.67932339179E+03  0.50400000000E-02 0. -1.
    8880023    1    1    2    0    0  0.32631537381E+02  0.26047804207E+02  0.36568428477E+03  0.75450547230E+03  0.65864270000E+03 0.  1.
    8880022    1    1    2    0    0 -0.32631537381E+02 -0.26047804207E+02 -0.47195430402E+03  0.49787129204E+03  0.15294330000E+03 0.  0.
<mgrwt>
<rscale>  0 0.46203550E+03</rscale>
<asrwt>0</asrwt>
<pdfrwt beam="1">  1        1 0.10451129E+00 0.65996478E+03</pdfrwt>
<pdfrwt beam="2">  1       -1 0.88162057E-01 0.65996478E+03</pdfrwt>
<totfact> 0.37242220E+01</totfact>
</mgrwt>
</event>
<event>
 4    2  0.4681349E-007  0.7285813E+03  0.7818608E-02  0.9894552E-01
          1   -1    0    0  501    0  0.00000000000E+00  0.00000000000E+00  0.51497215073E+03  0.51497215075E+03  0.50400000000E-02 0. -1.
         -1   -1    0    0    0  501 -0.00000000000E+00 -0.00000000000E+00 -0.57119498269E+03  0.57119498271E+03  0.50400000000E-02 0.  1.
    8880023    1    1    2    0    0 -0.11428007370E+03 -0.28975939321E+03 -0.10372054777E+03  0.73592703408E+03  0.65864270000E+03 0.  0.
    8880022    1    1    2    0    0  0.11428007370E+03  0.28975939321E+03  0.47497715799E+02  0.35024009939E+03  0.15294330000E+03 0.  1.
<mgrwt>
<rscale>  0 0.60526040E+03</rscale>
<asrwt>0</asrwt>
<pdfrwt beam="1">  1        1 0.79226485E-01 0.72858126E+03</pdfrwt>
<pdfrwt beam="2">  1       -1 0.87876151E-01 0.72858126E+03</pdfrwt>
<totfact> 0.55396592E+01</totfact>
</mgrwt>
</event>
<event>
 4    2  0.4681349E-007  0.1118562E+04  0.7818608E-02  0.9240666E-01
          1   -1    0    0  501    0  0.00000000000E+00  0.00000000000E+00  0.25921546648E+04  0.25921546648E+04  0.50400000000E-02 0. -1.
         -1   -1    0    0    0  501 -0.00000000000E+00 -0.00000000000E+00 -0.73620868649E+03  0.73620868651E+03  0.50400000000E-02 0.  1.
    8880023    1    1    2    0    0 -0.83075735748E+03 -0.35666807293E+03  0.21001630774E+04  0.23794673898E+04  0.65864270000E+03 0.  0.
    8880022    1    1    2    0    0  0.83075735748E+03  0.35666807293E+03 -0.24421709908E+03  0.94889596150E+03  0.15294330000E+03 0.  0.
<mgrwt>
<rscale>  0 0.10643367E+04</rscale>
<asrwt>0</asrwt>
<pdfrwt beam="1">  1        1 0.39879302E+00 0.11185616E+04</pdfrwt>
<pdfrwt beam="2">  1       -1 0.11326288E+00 0.11185616E+04</pdfrwt>
<totfact> 0.83312769E-01</totfact>
</mgrwt>
</event>
<event>
 4    2  0.4681349E-007  0.6817859E+03  0.7818608E-02  0.1008331E+00
         -1   -1    0    0    0  501 -0.00000000000E+00  0.00000000000E+00  0.11725205427E+04  0.11725205427E+04  0.50400000000E-02 0.  1.
          1   -1    0    0  501    0  0.00000000000E+00 -0.00000000000E+00 -0.62540614007E+03  0.62540614009E+03  0.50400000000E-02 0. -1.
    8880023    1    1    2    0    0 -0.14616050054E+03  0.98279519802E+02  0.10452091808E+04  0.12479159402E+04  0.65864270000E+03 0.  1.
    8880022    1    1    2    0    0  0.14616050054E+03 -0.98279519802E+02 -0.49809477815E+03  0.55001074260E+03  0.15294330000E+03 0.  0.
<mgrwt>
<rscale>  0 0.52143387E+03</rscale>
<asrwt>0</asrwt>
<pdfrwt beam="1">  1        1 0.96216329E-01 0.68178586E+03</pdfrwt>
<pdfrwt beam="2">  1       -1 0.18038778E+00 0.68178586E+03</pdfrwt>
<totfact> 0.69574163E+00</totfact>
</mgrwt>
</event>
<event>
 4    2  0.4681349E-007  0.6965973E+03  0.7818608E-02  0.1001162E+00
          1   -1    0    0  501    0  0.00000000000E+00  0.00000000000E+00  0.21025121362E+04  0.21025121362E+04  0.50400000000E-02 0. -1.
         -1   -1    0    0    0  501 -0.00000000000E+00 -0.00000000000E+00 -0.37484254442E+03  0.37484254446E+03  0.50400000000E-02 0.  1.
    8880023    1    1    2    0    0  0.17095710423E+03  0.14903438831E+03 -0.31243149924E+02  0.69729758430E+03  0.65864270000E+03 0.  1.
    8880022    1    1    2    0    0 -0.17095710423E+03 -0.14903438831E+03  0.17589127417E+04  0.17800570963E+04  0.15294330000E+03 0.  0.
<mgrwt>
<rscale>  0 0.55143617E+03</rscale>
<asrwt>0</asrwt>
<pdfrwt beam="1">  1        1 0.32346340E+00 0.69659729E+03</pdfrwt>
<pdfrwt beam="2">  1       -1 0.57668085E-01 0.69659729E+03</pdfrwt>
<totfact> 0.81831051E+00</totfact>
</mgrwt>
</event>
<event>
 4    2  0.4681349E-007  0.7341370E+03  0.7818608E-02  0.9877367E-01
         -1   -1    0    0    0  501 -0.00000000000E+00  0.00000000000E+00  0.50646467755E+03  0.50646467757E+03  0.50400000000E-02 0.  1.
          1   -1    0    0  501    0  0.00000000000E+00 -0.00000000000E+00 -0.74428067019E+03  0.74428067021E+03  0.50400000000E-02 0. -1.
    8880023    1    1    2    0    0 -0.58708355819E+02  0.31890483656E+03  0.12038846317E+03  0.74394257450E+03  0.65864270000E+03 0.  1.
    8880022    1    1    2    0    0  0.58708355819E+02 -0.31890483656E+03 -0.35820445581E+03  0.50680277328E+03  0.15294330000E+03 0.  1.
<mgrwt>
<rscale>  0 0.61370837E+03</rscale>
<asrwt>0</asrwt>
<pdfrwt beam="1">  1        1 0.11450472E+00 0.73413703E+03</pdfrwt>
<pdfrwt beam="2">  1       -1 0.77917643E-01 0.73413703E+03</pdfrwt>
<totfact> 0.41919068E+01</totfact>
</mgrwt>
</event>
<event>
 4    2  0.4681349E-007  0.8769952E+03  0.7818608E-02  0.9564019E-01
          1   -1    0    0  501    0  0.00000000000E+00  0.00000000000E+00  0.84625937228E+03  0.84625937230E+03  0.50400000000E-02 0. -1.
         -1   -1    0    0    0  501 -0.00000000000E+00 -0.00000000000E+00 -0.97208794339E+03  0.97208794341E+03  0.50400000000E-02 0.  1.
    8880023    1    1    2    0    0  0.49158501116E+03 -0.30603043147E+03 -0.59309373170E+03  0.10587165952E+04  0.65864270000E+03 0.  0.
    8880022    1    1    2    0    0 -0.49158501116E+03  0.30603043147E+03  0.46726516058E+03  0.75963072047E+03  0.15294330000E+03 0.  0.
<mgrwt>
<rscale>  0 0.79724108E+03</rscale>
<asrwt>0</asrwt>
<pdfrwt beam="1">  1        1 0.13019375E+00 0.87699524E+03</pdfrwt>
<pdfrwt beam="2">  1       -1 0.14955199E+00 0.87699524E+03</pdfrwt>
<totfact> 0.72112550E+00</totfact>
</mgrwt>
</event>
<event>
 4    2  0.4681349E-007  0.7376722E+03  0.7818608E-02  0.9866780E-01
         -1   -1    0    0    0  501 -0.00000000000E+00  0.00000000000E+00  0.16286849940E+04  0.16286849940E+04  0.50400000000E-02 0.  1.
          1   -1    0    0  501    0  0.00000000000E+00 -0.00000000000E+00 -0.50274715424E+03  0.50274715426E+03  0.50400000000E-02 0. -1.
    8880023    1    1    2    0    0 -0.12079444285E+03 -0.30944921617E+03  0.14602167272E+04  0.16359685851E+04  0.65864270000E+03 0.  1.
    8880022    1    1    2    0    0  0.12079444285E+03  0.30944921617E+03 -0.33427888744E+03  0.49546356316E+03  0.15294330000E+03 0.  0.
<mgrwt>
<rscale>  0 0.61898619E+03</rscale>
<asrwt>0</asrwt>
<pdfrwt beam="1">  1        1 0.77345716E-01 0.73767223E+03</pdfrwt>
<pdfrwt beam="2">  1       -1 0.25056692E+00 0.73767223E+03</pdfrwt>
<totfact> 0.31770510E+00</totfact>
</mgrwt>
</event>
<event>
 4    2  0.4681349E-007  0.6684271E+03  0.7818608E-02  0.1016816E+00
         -1   -1    0    0    0  501 -0.00000000000E+00  0.00000000000E+00  0.54025587277E+03  0.54025587280E+03  0.50400000000E-02 0.  1.
          1   -1    0    0  501    0  0.00000000000E+00 -0.00000000000E+00 -0.54577571527E+03  0.54577571529E+03  0.50400000000E-02 0. -1.
    8880023    1    1    2    0    0 -0.51157180326E+02 -0.10182107054E+03  0.29457416417E+03  0.73045789199E+03  0.65864270000E+03 0.  1.
    8880022    1    1    2    0    0  0.51157180326E+02  0.10182107054E+03 -0.30009400667E+03  0.35557369610E+03  0.15294330000E+03 0.  0.
<mgrwt>
<rscale>  0 0.48853172E+03</rscale>
<asrwt>0</asrwt>
<pdfrwt beam="1">  1        1 0.83965495E-01 0.66842710E+03</pdfrwt>
<pdfrwt beam="2">  1       -1 0.83116288E-01 0.66842710E+03</pdfrwt>
<totfact> 0.57942728E+01</totfact>
</mgrwt>
</event>
<event>
 4    2  0.4681349E-007  0.7854123E+03  0.7818608E-02  0.9743274E-01
          1   -1    0    0  501    0  0.00000000000E+00  0.00000000000E+00  0.87311503362E+03  0.87311503364E+03  0.50400000000E-02 0. -1.
         -1   -1    0    0    0  501 -0.00000000000E+00 -0.00000000000E+00 -0.45378750745E+03  0.45378750748E+03  0.50400000000E-02 0.  1.
    8880023    1    1    2    0    0 -0.41079918193E+03 -0.11960889378E+03  0.15282895594E+03  0.80014320679E+03  0.65864270000E+03 0.  1.
    8880022    1    1    2    0    0  0.41079918193E+03  0.11960889378E+03  0.26649857023E+03  0.52675933432E+03  0.15294330000E+03 0. -1.
<mgrwt>
<rscale>  0 0.68497727E+03</rscale>
<asrwt>0</asrwt>
<pdfrwt beam="1">  1        1 0.13432539E+00 0.78541229E+03</pdfrwt>
<pdfrwt beam="2">  1       -1 0.69813463E-01 0.78541229E+03</pdfrwt>
<totfact> 0.40565536E+01</totfact>
</mgrwt>
</event>
<event>
 4    2  0.4681349E-007  0.8165207E+03  0.7818608E-02  0.9676151E-01
         -1   -1    0    0    0  501 -0.00000000000E+00  0.00000000000E+00  0.92954116289E+03  0.92954116291E+03  0.50400000000E-02 0.  1.
          1   -1    0    0  501    0  0.00000000000E+00 -0.00000000000E+00 -0.56424683101E+03  0.56424683103E+03  0.50400000000E-02 0. -1.
    8880023    1    1    2    0    0 -0.17641217139E+03  0.44919326494E+03  0.51561439810E+03  0.96569366637E+03  0.65864270000E+03 0.  1.
    8880022    1    1    2    0    0  0.17641217139E+03 -0.44919326494E+03 -0.15032006622E+03  0.52809432756E+03  0.15294330000E+03 0.  0.
<mgrwt>
<rscale>  0 0.72454661E+03</rscale>
<asrwt>0</asrwt>
<pdfrwt beam="1">  1        1 0.86807206E-01 0.81652070E+03</pdfrwt>
<pdfrwt beam="2">  1       -1 0.14300633E+00 0.81652070E+03</pdfrwt>
<totfact> 0.15127854E+01</totfact>
</mgrwt>
</event>
<event>
 4    2  0.4681349E-007  0.7590469E+03  0.7818608E-02  0.9807581E-01
          1   -1    0    0  501    0  0.00000000000E+00  0.00000000000E+00  0.63678949316E+03  0.63678949318E+03  0.50400000000E-02 0. -1.
         -1   -1    0    0    0  501 -0.00000000000E+00 -0.00000000000E+00 -0.13991324745E+04  0.13991324745E+04  0.50400000000E-02 0.  1.
    8880023    1    1    2    0    0 -0.32047768836E+03  0.19908786529E+03  0.36141348107E+03  0.84069723290E+03  0.65864270000E+03 0.  0.
    8880022    1    1    2    0    0  0.32047768836E+03 -0.19908786529E+03 -0.11237564624E+04  0.11952247348E+04  0.15294330000E+03 0.  0.
<mgrwt>
<rscale>  0 0.64957268E+03</rscale>
<asrwt>0</asrwt>
<pdfrwt beam="1">  1        1 0.97967615E-01 0.75904686E+03</pdfrwt>
<pdfrwt beam="2">  1       -1 0.21525115E+00 0.75904686E+03</pdfrwt>
<totfact> 0.38577536E+00</totfact>
</mgrwt>
</event>
<event>
 4    2  0.4681349E-007  0.7294311E+03  0.7818608E-02  0.9891877E-01
          1   -1    0    0  501    0  0.00000000000E+00  0.00000000000E+00  0.87786154897E+03  0.87786154899E+03  0.50400000000E-02 0. -1.
         -1   -1    0    0    0  501 -0.00000000000E+00 -0.00000000000E+00 -0.41994440349E+03  0.41994440352E+03  0.50400000000E-02 0.  1.
    8880023    1    1    2    0    0 -0.13809021755E+03  0.28140835826E+03  0.92162080335E+01  0.72948935362E+03  0.65864270000E+03 0. -1.
    8880022    1    1    2    0    0  0.13809021755E+03 -0.28140835826E+03  0.44870093745E+03  0.56831659889E+03  0.15294330000E+03 0.  0.
<mgrwt>
<rscale>  0 0.60656561E+03</rscale>
<asrwt>0</asrwt>
<pdfrwt beam="1">  1        1 0.13505562E+00 0.72943113E+03</pdfrwt>
<pdfrwt beam="2">  1       -1 0.64606831E-01 0.72943113E+03</pdfrwt>
<totfact> 0.47290299E+01</totfact>
</mgrwt>
</event>
<event>
 4    2  0.5673927E-007  0.6935839E+03  0.7818608E-02  0.1002494E+00
          1   -1    0    0  501    0  0.00000000000E+00  0.00000000000E+00  0.17373108460E+04  0.17373108460E+04  0.50400000000E-02 0. -1.
         -1   -1    0    0    0  501 -0.00000000000E+00 -0.00000000000E+00 -0.80709444023E+03  0.80709444025E+03  0.50400000000E-02 0.  1.
    8880023    1    1    2    0    0 -0.19681893807E+03 -0.92253732354E+02 -0.64486735941E+03  0.94705467794E+03  0.65864270000E+03 0.  1.
    8880022    1    1    2    0    0  0.19681893807E+03  0.92253732354E+02  0.15750837652E+04  0.15973506083E+04  0.15294330000E+03 0.  0.
<mgrwt>
<rscale>  0 0.54570216E+03</rscale>
<asrwt>0</asrwt>
<pdfrwt beam="1">  1        1 0.26727859E+00 0.69358392E+03</pdfrwt>
<pdfrwt beam="2">  1       -1 0.12416838E+00 0.69358392E+03</pdfrwt>
<totfact> 0.27115557E+00</totfact>
</mgrwt>
</event>
<event>
 4    2  0.4681349E-007  0.6586489E+03  0.7818608E-02  0.1025585E+00
          1   -1    0    0  501    0  0.00000000000E+00  0.00000000000E+00  0.57001549895E+03  0.57001549897E+03  0.50400000000E-02 0. -1.
         -1   -1    0    0    0  501 -0.00000000000E+00 -0.00000000000E+00 -0.79751028746E+03  0.79751028748E+03  0.50400000000E-02 0.  1.
    8880023    1    1    2    0    0  0.25752690746E+01  0.12299386108E+01 -0.64561622888E+03  0.92230074597E+03  0.65864270000E+03 0.  1.
    8880022    1    1    2    0    0 -0.25752690746E+01 -0.12299386108E+01  0.41812144037E+03  0.44522504048E+03  0.15294330000E+03 0.  0.
<mgrwt>
<rscale>  0 0.45723765E+03</rscale>
<asrwt>0</asrwt>
<pdfrwt beam="1">  1        1 0.87694692E-01 0.65864888E+03</pdfrwt>
<pdfrwt beam="2">  1       -1 0.12269389E+00 0.65864888E+03</pdfrwt>
<totfact> 0.22396800E+01</totfact>
</mgrwt>
</event>
<event>
 4    2  0.4681349E-007  0.9824041E+03  0.7818608E-02  0.9404949E-01
         -1   -1    0    0    0  501 -0.00000000000E+00  0.00000000000E+00  0.12551245790E+04  0.12551245790E+04  0.50400000000E-02 0.  1.
          1   -1    0    0  501    0  0.00000000000E+00 -0.00000000000E+00 -0.94517035868E+03  0.94517035870E+03  0.50400000000E-02 0. -1.
    8880023    1    1    2    0    0 -0.71415692412E+03 -0.14590266308E+03  0.83477807379E+03  0.12891750611E+04  0.65864270000E+03 0.  0.
    8880022    1    1    2    0    0  0.71415692412E+03  0.14590266308E+03 -0.52482385349E+03  0.91111987662E+03  0.15294330000E+03 0.  0.
<mgrwt>
<rscale>  0 0.91669497E+03</rscale>
<asrwt>0</asrwt>
<pdfrwt beam="1">  1        1 0.14541082E+00 0.98240415E+03</pdfrwt>
<pdfrwt beam="2">  1       -1 0.19309609E+00 0.98240415E+03</pdfrwt>
<totfact> 0.28278510E+00</totfact>
</mgrwt>
</event>
<event>
 4    2  0.4681349E-007  0.6700650E+03  0.7818608E-02  0.1015616E+00
         -1   -1    0    0    0  501 -0.00000000000E+00  0.00000000000E+00  0.68577141277E+03  0.68577141279E+03  0.50400000000E-02 0.  1.
          1   -1    0    0  501    0  0.00000000000E+00 -0.00000000000E+00 -0.10501659451E+04  0.10501659451E+04  0.50400000000E-02 0. -1.
    8880023    1    1    2    0    0  0.10637995782E+03  0.62130163392E+02  0.50853656843E+03  0.84118755359E+03  0.65864270000E+03 0.  1.
    8880022    1    1    2    0    0 -0.10637995782E+03 -0.62130163392E+02 -0.87293110074E+03  0.89474980430E+03  0.15294330000E+03 0.  0.
<mgrwt>
<rscale>  0 0.49302255E+03</rscale>
<asrwt>0</asrwt>
<pdfrwt beam="1">  1        1 0.16156399E+00 0.67006497E+03</pdfrwt>
<pdfrwt beam="2">  1       -1 0.10550329E+00 0.67006497E+03</pdfrwt>
<totfact> 0.12160601E+01</totfact>
</mgrwt>
</event>
<event>
 4    2  0.4681349E-007  0.7056493E+03  0.7818608E-02  0.9974526E-01
          1   -1    0    0  501    0  0.00000000000E+00  0.00000000000E+00  0.25382916704E+03  0.25382916709E+03  0.50400000000E-02 0. -1.
         -1   -1    0    0    0  501 -0.00000000000E+00 -0.00000000000E+00 -0.13519974155E+04  0.13519974155E+04  0.50400000000E-02 0.  1.
    8880023    1    1    2    0    0  0.33943129226E+01  0.25321779943E+03 -0.11036245204E+04  0.13099343738E+04  0.65864270000E+03 0.  1.
    8880022    1    1    2    0    0 -0.33943129226E+01 -0.25321779943E+03  0.54562719749E+01  0.29589220880E+03  0.15294330000E+03 0.  0.
<mgrwt>
<rscale>  0 0.56781469E+03</rscale>
<asrwt>0</asrwt>
<pdfrwt beam="1">  1        1 0.39050642E-01 0.70564933E+03</pdfrwt>
<pdfrwt beam="2">  1       -1 0.20799960E+00 0.70564933E+03</pdfrwt>
<totfact> 0.14953085E+01</totfact>
</mgrwt>
</event>
<event>
 4    2  0.4681349E-007  0.7321922E+03  0.7818608E-02  0.9883304E-01
         -1   -1    0    0    0  501 -0.00000000000E+00  0.00000000000E+00  0.14221755706E+03  0.14221755715E+03  0.50400000000E-02 0.  1.
          1   -1    0    0  501    0  0.00000000000E+00 -0.00000000000E+00 -0.28513440630E+04  0.28513440630E+04  0.50400000000E-02 0. -1.
    8880023    1    1    2    0    0  0.28636322754E+03  0.14244761440E+03 -0.95187487653E+03  0.12009043291E+04  0.65864270000E+03 0.  1.
    8880022    1    1    2    0    0 -0.28636322754E+03 -0.14244761440E+03 -0.17572516294E+04  0.17926572910E+04  0.15294330000E+03 0.  0.
<mgrwt>
<rscale>  0 0.61077333E+03</rscale>
<asrwt>0</asrwt>
<pdfrwt beam="1">  1        1 0.43866827E+00 0.73219221E+03</pdfrwt>
<pdfrwt beam="2">  1       -1 0.21879626E-01 0.73219221E+03</pdfrwt>
<totfact> 0.14263558E+01</totfact>
</mgrwt>
</event>
<event>
 4    2  0.4681349E-007  0.7628484E+03  0.7818608E-02  0.9797788E-01
          1   -1    0    0  501    0  0.00000000000E+00  0.00000000000E+00  0.51416777772E+03  0.51416777775E+03  0.50400000000E-02 0. -1.
         -1   -1    0    0    0  501 -0.00000000000E+00 -0.00000000000E+00 -0.69349793045E+03  0.69349793047E+03  0.50400000000E-02 0.  1.
    8880023    1    1    2    0    0  0.34686799916E+03 -0.16676360191E+03 -0.21335259847E+03  0.79212186265E+03  0.65864270000E+03 0.  0.
    8880022    1    1    2    0    0 -0.34686799916E+03  0.16676360191E+03  0.34022445738E+02  0.41554384557E+03  0.15294330000E+03 0.  0.
<mgrwt>
<rscale>  0 0.65481372E+03</rscale>
<asrwt>0</asrwt>
<pdfrwt beam="1">  1        1 0.79102734E-01 0.76284842E+03</pdfrwt>
<pdfrwt beam="2">  1       -1 0.10669199E+00 0.76284842E+03</pdfrwt>
<totfact> 0.35731379E+01</totfact>
</mgrwt>
</event>
<event>
 4    2  0.4681349E-007  0.1309634E+04  0.7818608E-02  0.9057284E-01
         -1   -1    0    0    0  501 -0.00000000000E+00  0.00000000000E+00  0.15823292005E+04  0.15823292005E+04  0.50400000000E-02 0.  1.
          1   -1    0    0  501    0  0.00000000000E+00 -0.00000000000E+00 -0.95975123490E+03  0.95975123491E+03  0.50400000000E-02 0. -1.
    8880023    1    1    2    0    0 -0.65654126657E+03 -0.92210946509E+03  0.20332639381E+03  0.13253241600E+04  0.65864270000E+03 0.  0.
    8880022    1    1    2    0    0  0.65654126657E+03  0.92210946509E+03  0.41925157176E+03  0.12167562754E+04  0.15294330000E+03 0. -1.
<mgrwt>
<rscale>  0 0.12656173E+04</rscale>
<asrwt>0</asrwt>
<pdfrwt beam="1">  1        1 0.14765404E+00 0.13096345E+04</pdfrwt>
<pdfrwt beam="2">  1       -1 0.24343526E+00 0.13096345E+04</pdfrwt>
<totfact> 0.12160364E+00</totfact>
</mgrwt>
</event>
<event>
 4    2  0.4681349E-007  0.6600976E+03  0.7818608E-02  0.1024057E+00
          1   -1    0    0  501    0  0.00000000000E+00  0.00000000000E+00  0.82148100361E+03  0.82148100362E+03  0.50400000000E-02 0. -1.
         -1   -1    0    0    0  501 -0.00000000000E+00 -0.00000000000E+00 -0.78596497844E+03  0.78596497846E+03  0.50400000000E-02 0.  1.
    8880023    1    1    2    0    0  0.43333358800E+02 -0.63866558050E+01 -0.63642223951E+03  0.91693077305E+03  0.65864270000E+03 0.  1.
    8880022    1    1    2    0    0 -0.43333358800E+02  0.63866558050E+01  0.67193826467E+03  0.69051520903E+03  0.15294330000E+03 0.  0.
<mgrwt>
<rscale>  0 0.46250676E+03</rscale>
<asrwt>0</asrwt>
<pdfrwt beam="1">  1        1 0.12638169E+00 0.66009755E+03</pdfrwt>
<pdfrwt beam="2">  1       -1 0.12091769E+00 0.66009755E+03</pdfrwt>
<totfact> 0.13414456E+01</totfact>
</mgrwt>
</event>
<event>
 4    2  0.4681349E-007  0.7877377E+03  0.7818608E-02  0.9737965E-01
         -1   -1    0    0    0  501 -0.00000000000E+00  0.00000000000E+00  0.33808339341E+03  0.33808339345E+03  0.50400000000E-02 0.  1.
          1   -1    0    0  501    0  0.00000000000E+00 -0.00000000000E+00 -0.13305025505E+04  0.13305025505E+04  0.50400000000E-02 0. -1.
    8880023    1    1    2    0    0 -0.42138962720E+03  0.95661943407E+02 -0.31006436775E+03  0.84656396317E+03  0.65864270000E+03 0.  0.
    8880022    1    1    2    0    0  0.42138962720E+03 -0.95661943407E+02 -0.68235478930E+03  0.82202198074E+03  0.15294330000E+03 0.  0.
<mgrwt>
<rscale>  0 0.68800657E+03</rscale>
<asrwt>0</asrwt>
<pdfrwt beam="1">  1        1 0.20469270E+00 0.78773767E+03</pdfrwt>
<pdfrwt beam="2">  1       -1 0.52012831E-01 0.78773767E+03</pdfrwt>
<totfact> 0.32825688E+01</totfact>
</mgrwt>
</event>
<event>
 4    2  0.4681349E-007  0.7300288E+03  0.7818608E-02  0.9890007E-01
          1   -1    0    0  501    0  0.00000000000E+00  0.00000000000E+00  0.10746490309E+04  0.10746490309E+04  0.50400000000E-02 0. -1.
         -1   -1    0    0    0  501 -0.00000000000E+00 -0.00000000000E+00 -0.30529119742E+03  0.30529119746E+03  0.50400000000E-02 0.  1.
    8880023    1    1    2    0    0  0.31254259255E+03  0.38065766328E+02  0.72193388992E+03  0.10267086356E+04  0.65864270000E+03 0.  0.
    8880022    1    1    2    0    0 -0.31254259255E+03 -0.38065766328E+02  0.47423943588E+02  0.35323159281E+03  0.15294330000E+03 0.  0.
<mgrwt>
<rscale>  0 0.60748064E+03</rscale>
<asrwt>0</asrwt>
<pdfrwt beam="1">  1        1 0.16533062E+00 0.73002882E+03</pdfrwt>
<pdfrwt beam="2">  1       -1 0.46967876E-01 0.73002882E+03</pdfrwt>
<totfact> 0.61395177E+01</totfact>
</mgrwt>
</event>
<event>
 4    2  0.4681349E-007  0.6968248E+03  0.7818608E-02  0.1001064E+00
          1   -1    0    0  501    0  0.00000000000E+00  0.00000000000E+00  0.12853652742E+04  0.12853652743E+04  0.50400000000E-02 0. -1.
         -1   -1    0    0    0  501 -0.00000000000E+00 -0.00000000000E+00 -0.29747039982E+03  0.29747039986E+03  0.50400000000E-02 0.  1.
    8880023    1    1    2    0    0  0.22703646452E+03  0.14459114425E+02  0.16585182383E+03  0.71629020372E+03  0.65864270000E+03 0.  1.
    8880022    1    1    2    0    0 -0.22703646452E+03 -0.14459114425E+02  0.82204305061E+03  0.86654547040E+03  0.15294330000E+03 0.  0.
<mgrwt>
<rscale>  0 0.55186283E+03</rscale>
<asrwt>0</asrwt>
<pdfrwt beam="1">  1        1 0.19774851E+00 0.69682482E+03</pdfrwt>
<pdfrwt beam="2">  1       -1 0.45764677E-01 0.69682482E+03</pdfrwt>
<totfact> 0.45424704E+01</totfact>
</mgrwt>
</event>
<event>
 4    2  0.4681349E-007  0.7660537E+03  0.7818608E-02  0.9789680E-01
         -1   -1    0    0    0  501 -0.00000000000E+00  0.00000000000E+00  0.10052437110E+04  0.10052437110E+04  0.50400000000E-02 0.  1.
          1   -1    0    0  501    0  0.00000000000E+00 -0.00000000000E+00 -0.76488000440E+03  0.76488000441E+03  0.50400000000E-02 0. -1.
    8880023    1    1    2    0    0 -0.13763901836E+03  0.36617414239E+03  0.77534854770E+03  0.10899557691E+04  0.65864270000E+03 0.  0.
    8880022    1    1    2    0    0  0.13763901836E+03 -0.36617414239E+03 -0.53498484112E+03  0.68016794630E+03  0.15294330000E+03 0.  0.
<mgrwt>
<rscale>  0 0.65919327E+03</rscale>
<asrwt>0</asrwt>
<pdfrwt beam="1">  1        1 0.11767385E+00 0.76605366E+03</pdfrwt>
<pdfrwt beam="2">  1       -1 0.15465288E+00 0.76605366E+03</pdfrwt>
<totfact> 0.78560360E+00</totfact>
</mgrwt>
</event>
<event>
 4    2  0.4681349E-007  0.9819963E+03  0.7818608E-02  0.9405500E-01
          1   -1    0    0  501    0  0.00000000000E+00  0.00000000000E+00  0.15664599414E+04  0.15664599414E+04  0.50400000000E-02 0. -1.
         -1   -1    0    0    0  501 -0.00000000000E+00 -0.00000000000E+00 -0.15509374089E+04  0.15509374089E+04  0.50400000000E-02 0.  1.
    8880023    1    1    2    0    0  0.60338801715E+03  0.40795764996E+03 -0.12860317682E+04  0.16180835759E+04  0.65864270000E+03 0.  0.
    8880022    1    1    2    0    0 -0.60338801715E+03 -0.40795764996E+03  0.13015543007E+04  0.14993137744E+04  0.15294330000E+03 0.  0.
<mgrwt>
<rscale>  0 0.91624398E+03</rscale>
<asrwt>0</asrwt>
<pdfrwt beam="1">  1        1 0.24099384E+00 0.98199631E+03</pdfrwt>
<pdfrwt beam="2">  1       -1 0.23860575E+00 0.98199631E+03</pdfrwt>
<totfact> 0.49400870E-01</totfact>
</mgrwt>
</event>
<event>
 4    2  0.4681349E-007  0.9600148E+03  0.7818608E-02  0.9435849E-01
         -1   -1    0    0    0  501 -0.00000000000E+00  0.00000000000E+00  0.18357726585E+04  0.18357726585E+04  0.50400000000E-02 0.  1.
          1   -1    0    0  501    0  0.00000000000E+00 -0.00000000000E+00 -0.69595990647E+03  0.69595990649E+03  0.50400000000E-02 0. -1.
    8880023    1    1    2    0    0 -0.61034568327E+03 -0.33955304785E+03  0.14607829930E+04  0.17480032278E+04  0.65864270000E+03 0.  1.
    8880022    1    1    2    0    0  0.61034568327E+03  0.33955304785E+03 -0.32097024100E+03  0.78372933721E+03  0.15294330000E+03 0.  0.
<mgrwt>
<rscale>  0 0.89183256E+03</rscale>
<asrwt>0</asrwt>
<pdfrwt beam="1">  1        1 0.10707075E+00 0.96001476E+03</pdfrwt>
<pdfrwt beam="2">  1       -1 0.28242657E+00 0.96001476E+03</pdfrwt>
<totfact> 0.12003924E+00</totfact>
</mgrwt>
</event>
<event>
 4    2  0.4681349E-007  0.8185699E+03  0.7818608E-02  0.9671995E-01
         -1   -1    0    0    0  501 -0.00000000000E+00  0.00000000000E+00  0.28889826045E+03  0.28889826050E+03  0.50400000000E-02 0.  1.
          1   -1    0    0  501    0  0.00000000000E+00 -0.00000000000E+00 -0.19923759618E+04  0.19923759618E+04  0.50400000000E-02 0. -1.
    8880023    1    1    2    0    0  0.38076371852E+03  0.30210182226E+03 -0.46350381269E+03  0.94068725462E+03  0.65864270000E+03 0.  0.
    8880022    1    1    2    0    0 -0.38076371852E+03 -0.30210182226E+03 -0.12399738886E+04  0.13405869677E+04  0.15294330000E+03 0.  0.
<mgrwt>
<rscale>  0 0.72708956E+03</rscale>
<asrwt>0</asrwt>
<pdfrwt beam="1">  1        1 0.30651937E+00 0.81856993E+03</pdfrwt>
<pdfrwt beam="2">  1       -1 0.44445887E-01 0.81856993E+03</pdfrwt>
<totfact> 0.15609317E+01</totfact>
</mgrwt>
</event>
<event>
 4    2  0.4681349E-007  0.7652832E+03  0.7818608E-02  0.9791617E-01
         -1   -1    0    0    0  501 -0.00000000000E+00  0.00000000000E+00  0.14595952850E+04  0.14595952851E+04  0.50400000000E-02 0.  1.
          1   -1    0    0  501    0  0.00000000000E+00 -0.00000000000E+00 -0.97229214168E+03  0.97229214170E+03  0.50400000000E-02 0. -1.
    8880023    1    1    2    0    0  0.26039998092E+03 -0.28989667922E+03  0.13052424667E+04  0.15130486899E+04  0.65864270000E+03 0.  1.
    8880022    1    1    2    0    0 -0.26039998092E+03  0.28989667922E+03 -0.81793932336E+03  0.91883873689E+03  0.15294330000E+03 0. -1.
<mgrwt>
<rscale>  0 0.65814377E+03</rscale>
<asrwt>0</asrwt>
<pdfrwt beam="1">  1        1 0.14958341E+00 0.76528324E+03</pdfrwt>
<pdfrwt beam="2">  1       -1 0.22455312E+00 0.76528324E+03</pdfrwt>
<totfact> 0.17030445E+00</totfact>
</mgrwt>
</event>
<event>
 4    2  0.4681349E-007  0.1072259E+04  0.7818608E-02  0.9292590E-01
          1   -1    0    0  501    0  0.00000000000E+00  0.00000000000E+00  0.14732448520E+04  0.14732448521E+04  0.50400000000E-02 0. -1.
         -1   -1    0    0    0  501 -0.00000000000E+00 -0.00000000000E+00 -0.74463442445E+03  0.74463442447E+03  0.50400000000E-02 0.  1.
    8880023    1    1    2    0    0  0.83876522905E+03 -0.11136177573E+03 -0.27891626479E+02  0.10726214167E+04  0.65864270000E+03 0.  0.
    8880022    1    1    2    0    0 -0.83876522905E+03  0.11136177573E+03  0.75650205407E+03  0.11452578598E+04  0.15294330000E+03 0.  0.
<mgrwt>
<rscale>  0 0.10146792E+04</rscale>
<asrwt>0</asrwt>
<pdfrwt beam="1">  1        1 0.22665305E+00 0.10722587E+04</pdfrwt>
<pdfrwt beam="2">  1       -1 0.11455914E+00 0.10722587E+04</pdfrwt>
<totfact> 0.47144856E+00</totfact>
</mgrwt>
</event>
<event>
 4    2  0.4681349E-007  0.9171530E+03  0.7818608E-02  0.9499038E-01
         -1   -1    0    0    0  501 -0.00000000000E+00  0.00000000000E+00  0.23236403895E+03  0.23236403901E+03  0.50400000000E-02 0.  1.
          1   -1    0    0  501    0  0.00000000000E+00 -0.00000000000E+00 -0.27000320088E+04  0.27000320088E+04  0.50400000000E-02 0. -1.
    8880023    1    1    2    0    0  0.49017254047E+03 -0.40876671763E+03 -0.12678912492E+04  0.15648379388E+04  0.65864270000E+03 0.  0.
    8880022    1    1    2    0    0 -0.49017254047E+03  0.40876671763E+03 -0.11997767206E+04  0.13675581089E+04  0.15294330000E+03 0.  0.
<mgrwt>
<rscale>  0 0.84354764E+03</rscale>
<asrwt>0</asrwt>
<pdfrwt beam="1">  1        1 0.41538952E+00 0.91715296E+03</pdfrwt>
<pdfrwt beam="2">  1       -1 0.35748316E-01 0.91715296E+03</pdfrwt>
<totfact> 0.75646456E+00</totfact>
</mgrwt>
</event>
<event>
 4    2  0.4681349E-007  0.7221227E+03  0.7818608E-02  0.9915468E-01
         -1   -1    0    0    0  501 -0.00000000000E+00  0.00000000000E+00  0.12861979970E+04  0.12861979970E+04  0.50400000000E-02 0.  1.
          1   -1    0    0  501    0  0.00000000000E+00 -0.00000000000E+00 -0.54068816956E+03  0.54068816958E+03  0.50400000000E-02 0. -1.
    8880023    1    1    2    0    0  0.24442098724E+03 -0.16706097585E+03  0.11155761164E+04  0.13288985162E+04  0.65864270000E+03 0.  1.
    8880022    1    1    2    0    0 -0.24442098724E+03  0.16706097585E+03 -0.37006628898E+03  0.49798765036E+03  0.15294330000E+03 0.  0.
<mgrwt>
<rscale>  0 0.59517471E+03</rscale>
<asrwt>0</asrwt>
<pdfrwt beam="1">  1        1 0.83182795E-01 0.72212270E+03</pdfrwt>
<pdfrwt beam="2">  1       -1 0.19787662E+00 0.72212270E+03</pdfrwt>
<totfact> 0.64239032E+00</totfact>
</mgrwt>
</event>
<event>
 4    2  0.4681349E-007  0.7525646E+03  0.7818608E-02  0.9824752E-01
         -1   -1    0    0    0  501 -0.00000000000E+00  0.00000000000E+00  0.50144795934E+03  0.50144795937E+03  0.50400000000E-02 0.  1.
          1   -1    0    0  501    0  0.00000000000E+00 -0.00000000000E+00 -0.10848887515E+04  0.10848887515E+04  0.50400000000E-02 0. -1.
    8880023    1    1    2    0    0 -0.13602822605E+03 -0.33769741841E+03  0.13684684810E+03  0.76490554370E+03  0.65864270000E+03 0.  1.
    8880022    1    1    2    0    0  0.13602822605E+03  0.33769741841E+03 -0.72028764026E+03  0.82143116718E+03  0.15294330000E+03 0.  0.
<mgrwt>
<rscale>  0 0.64050973E+03</rscale>
<asrwt>0</asrwt>
<pdfrwt beam="1">  1        1 0.16690596E+00 0.75256457E+03</pdfrwt>
<pdfrwt beam="2">  1       -1 0.77145840E-01 0.75256457E+03</pdfrwt>
<totfact> 0.22568231E+01</totfact>
</mgrwt>
</event>
<event>
 4    2  0.4681349E-007  0.1087675E+04  0.7818608E-02  0.9274904E-01
         -1   -1    0    0    0  501 -0.00000000000E+00  0.00000000000E+00  0.12202052909E+04  0.12202052909E+04  0.50400000000E-02 0.  1.
          1   -1    0    0  501    0  0.00000000000E+00 -0.00000000000E+00 -0.85730211160E+03  0.85730211162E+03  0.50400000000E-02 0. -1.
    8880023    1    1    2    0    0 -0.74979601994E+03 -0.43247233599E+03  0.48347842080E+03  0.11902890332E+04  0.65864270000E+03 0.  1.
    8880022    1    1    2    0    0  0.74979601994E+03  0.43247233599E+03 -0.12057524153E+03  0.88721836929E+03  0.15294330000E+03 0.  0.
<mgrwt>
<rscale>  0 0.10312642E+04</rscale>
<asrwt>0</asrwt>
<pdfrwt beam="1">  1        1 0.13189263E+00 0.10876749E+04</pdfrwt>
<pdfrwt beam="2">  1       -1 0.18772389E+00 0.10876749E+04</pdfrwt>
<totfact> 0.35969958E+00</totfact>
</mgrwt>
</event>
<event>
 4    2  0.4681349E-007  0.8443922E+03  0.7818608E-02  0.9621953E-01
          1   -1    0    0  501    0  0.00000000000E+00  0.00000000000E+00  0.23096971086E+04  0.23096971086E+04  0.50400000000E-02 0. -1.
         -1   -1    0    0    0  501 -0.00000000000E+00 -0.00000000000E+00 -0.26027590448E+03  0.26027590453E+03  0.50400000000E-02 0.  1.
    8880023    1    1    2    0    0 -0.46858311180E+02  0.52630062377E+03  0.64773937578E+03  0.10642201619E+04  0.65864270000E+03 0.  1.
    8880022    1    1    2    0    0  0.46858311180E+02 -0.52630062377E+03  0.14016818283E+04  0.15057528511E+04  0.15294330000E+03 0.  0.
<mgrwt>
<rscale>  0 0.75860054E+03</rscale>
<asrwt>0</asrwt>
<pdfrwt beam="1">  1        1 0.35533802E+00 0.84439224E+03</pdfrwt>
<pdfrwt beam="2">  1       -1 0.40042447E-01 0.84439224E+03</pdfrwt>
<totfact> 0.11530293E+01</totfact>
</mgrwt>
</event>
<event>
 4    2  0.4681349E-007  0.7058876E+03  0.7818608E-02  0.9973601E-01
         -1   -1    0    0    0  501 -0.00000000000E+00  0.00000000000E+00  0.12555041224E+03  0.12555041234E+03  0.50400000000E-02 0.  1.
          1   -1    0    0  501    0  0.00000000000E+00 -0.00000000000E+00 -0.22771455978E+04  0.22771455978E+04  0.50400000000E-02 0. -1.
    8880023    1    1    2    0    0  0.24746299617E+03 -0.56826008512E+02 -0.18487811314E+04  0.19789565452E+04  0.65864270000E+03 0.  0.
    8880022    1    1    2    0    0 -0.24746299617E+03  0.56826008512E+02 -0.30281405408E+03  0.42373946486E+03  0.15294330000E+03 0.  0.
<mgrwt>
<rscale>  0 0.56823087E+03</rscale>
<asrwt>0</asrwt>
<pdfrwt beam="1">  1        1 0.35033006E+00 0.70588762E+03</pdfrwt>
<pdfrwt beam="2">  1       -1 0.19315450E-01 0.70588762E+03</pdfrwt>
<totfact> 0.43697074E+01</totfact>
</mgrwt>
</event>
<event>
 4    2  0.4681349E-007  0.7101644E+03  0.7818608E-02  0.9957391E-01
         -1   -1    0    0    0  501 -0.00000000000E+00  0.00000000000E+00  0.65257500324E+03  0.65257500326E+03  0.50400000000E-02 0.  1.
          1   -1    0    0  501    0  0.00000000000E+00 -0.00000000000E+00 -0.55116957962E+03  0.55116957964E+03  0.50400000000E-02 0. -1.
    8880023    1    1    2    0    0 -0.24798578993E+03 -0.95007171903E+02  0.36594377745E+03  0.79890448067E+03  0.65864270000E+03 0.  1.
    8880022    1    1    2    0    0  0.24798578993E+03  0.95007171903E+02 -0.26453835382E+03  0.40484010224E+03  0.15294330000E+03 0.  0.
<mgrwt>
<rscale>  0 0.57558708E+03</rscale>
<asrwt>0</asrwt>
<pdfrwt beam="1">  1        1 0.84795319E-01 0.71016443E+03</pdfrwt>
<pdfrwt beam="2">  1       -1 0.10039615E+00 0.71016443E+03</pdfrwt>
<totfact> 0.37510966E+01</totfact>
</mgrwt>
</event>
<event>
 4    2  0.4681349E-007  0.7323779E+03  0.7818608E-02  0.9882733E-01
          1   -1    0    0  501    0  0.00000000000E+00  0.00000000000E+00  0.10074504484E+04  0.10074504484E+04  0.50400000000E-02 0. -1.
         -1   -1    0    0    0  501 -0.00000000000E+00 -0.00000000000E+00 -0.38944176981E+03  0.38944176984E+03  0.50400000000E-02 0.  1.
    8880023    1    1    2    0    0  0.65642183230E+02 -0.31346169983E+03  0.59017666748E+02  0.73475194775E+03  0.65864270000E+03 0.  1.
    8880022    1    1    2    0    0 -0.65642183230E+02  0.31346169983E+03  0.55899101183E+03  0.66214027049E+03  0.15294330000E+03 0.  0.
<mgrwt>
<rscale>  0 0.61105453E+03</rscale>
<asrwt>0</asrwt>
<pdfrwt beam="1">  1        1 0.15499238E+00 0.73237787E+03</pdfrwt>
<pdfrwt beam="2">  1       -1 0.59914118E-01 0.73237787E+03</pdfrwt>
<totfact> 0.43302545E+01</totfact>
</mgrwt>
</event>
<event>
 4    2  0.4681349E-007  0.7094749E+03  0.7818608E-02  0.9959956E-01
          1   -1    0    0  501    0  0.00000000000E+00  0.00000000000E+00  0.15182079391E+04  0.15182079391E+04  0.50400000000E-02 0. -1.
         -1   -1    0    0    0  501 -0.00000000000E+00 -0.00000000000E+00 -0.35730432070E+03  0.35730432073E+03  0.50400000000E-02 0.  1.
    8880023    1    1    2    0    0 -0.24671972663E+03  0.93132900671E+02  0.36388949319E+02  0.71040743422E+03  0.65864270000E+03 0.  1.
    8880022    1    1    2    0    0  0.24671972663E+03 -0.93132900671E+02  0.11245146691E+04  0.11651048256E+04  0.15294330000E+03 0.  0.
<mgrwt>
<rscale>  0 0.57441498E+03</rscale>
<asrwt>0</asrwt>
<pdfrwt beam="1">  1        1 0.23357045E+00 0.70947485E+03</pdfrwt>
<pdfrwt beam="2">  1       -1 0.54969895E-01 0.70947485E+03</pdfrwt>
<totfact> 0.22098650E+01</totfact>
</mgrwt>
</event>
<event>
 4    2  0.4681349E-007  0.1011378E+04  0.7818608E-02  0.9366820E-01
          1   -1    0    0  501    0  0.00000000000E+00  0.00000000000E+00  0.24759482423E+04  0.24759482423E+04  0.50400000000E-02 0. -1.
         -1   -1    0    0    0  501 -0.00000000000E+00 -0.00000000000E+00 -0.39483113295E+03  0.39483113298E+03  0.50400000000E-02 0.  1.
    8880023    1    1    2    0    0 -0.28884526964E+03 -0.71108677935E+03  0.55001436059E+03  0.11512610480E+04  0.65864270000E+03 0. -1.
    8880022    1    1    2    0    0  0.28884526964E+03  0.71108677935E+03  0.15311027488E+04  0.17195183273E+04  0.15294330000E+03 0.  0.
<mgrwt>
<rscale>  0 0.94857274E+03</rscale>
<asrwt>0</asrwt>
<pdfrwt beam="1">  1        1 0.38091512E+00 0.10113784E+04</pdfrwt>
<pdfrwt beam="2">  1       -1 0.60743251E-01 0.10113784E+04</pdfrwt>
<totfact> 0.39344216E+00</totfact>
</mgrwt>
</event>
<event>
 4    2  0.4681349E-007  0.6954281E+03  0.7818608E-02  0.1001672E+00
          1   -1    0    0  501    0  0.00000000000E+00  0.00000000000E+00  0.61671396897E+03  0.61671396900E+03  0.50400000000E-02 0. -1.
         -1   -1    0    0    0  501 -0.00000000000E+00 -0.00000000000E+00 -0.74791289595E+03  0.74791289596E+03  0.50400000000E-02 0.  1.
    8880023    1    1    2    0    0 -0.18147539438E+03  0.12991063284E+03 -0.53580203584E+03  0.87789755619E+03  0.65864270000E+03 0.  1.
    8880022    1    1    2    0    0  0.18147539438E+03 -0.12991063284E+03  0.40460310887E+03  0.48672930877E+03  0.15294330000E+03 0.  0.
<mgrwt>
<rscale>  0 0.54923015E+03</rscale>
<asrwt>0</asrwt>
<pdfrwt beam="1">  1        1 0.94879072E-01 0.69542814E+03</pdfrwt>
<pdfrwt beam="2">  1       -1 0.11506352E+00 0.69542814E+03</pdfrwt>
<totfact> 0.23278251E+01</totfact>
</mgrwt>
</event>
<event>
 4    2  0.4681349E-007  0.8482027E+03  0.7818608E-02  0.9614903E-01
          1   -1    0    0  501    0  0.00000000000E+00  0.00000000000E+00  0.10844226336E+04  0.10844226336E+04  0.50400000000E-02 0. -1.
         -1   -1    0    0    0  501 -0.00000000000E+00 -0.00000000000E+00 -0.57268918214E+03  0.57268918216E+03  0.50400000000E-02 0.  1.
    8880023    1    1    2    0    0 -0.49977034292E+03  0.18938646772E+03 -0.71719353358E+02  0.85122940605E+03  0.65864270000E+03 0.  1.
    8880022    1    1    2    0    0  0.49977034292E+03 -0.18938646772E+03  0.58345280479E+03  0.80588240969E+03  0.15294330000E+03 0.  0.
<mgrwt>
<rscale>  0 0.76317598E+03</rscale>
<asrwt>0</asrwt>
<pdfrwt beam="1">  1        1 0.16683425E+00 0.84820271E+03</pdfrwt>
<pdfrwt beam="2">  1       -1 0.88106028E-01 0.84820271E+03</pdfrwt>
<totfact> 0.16800896E+01</totfact>
</mgrwt>
</event>
<event>
 4    2  0.4681349E-007  0.8600378E+03  0.7818608E-02  0.9593496E-01
          1   -1    0    0  501    0  0.00000000000E+00  0.00000000000E+00  0.61323051915E+03  0.61323051917E+03  0.50400000000E-02 0. -1.
         -1   -1    0    0    0  501 -0.00000000000E+00 -0.00000000000E+00 -0.98695460293E+03  0.98695460294E+03  0.50400000000E-02 0.  1.
    8880023    1    1    2    0    0 -0.39151848563E+03  0.39059975056E+03 -0.52391941635E+03  0.10070534498E+04  0.65864270000E+03 0.  0.
    8880022    1    1    2    0    0  0.39151848563E+03 -0.39059975056E+03  0.15019533257E+03  0.59313167228E+03  0.15294330000E+03 0.  0.
<mgrwt>
<rscale>  0 0.77728149E+03</rscale>
<asrwt>0</asrwt>
<pdfrwt beam="1">  1        1 0.94343156E-01 0.86003785E+03</pdfrwt>
<pdfrwt beam="2">  1       -1 0.15183917E+00 0.86003785E+03</pdfrwt>
<totfact> 0.11387004E+01</totfact>
</mgrwt>
</event>
<event>
 4    2  0.4681349E-007  0.8217872E+03  0.7818608E-02  0.9665528E-01
          1   -1    0    0  501    0  0.00000000000E+00  0.00000000000E+00  0.25633901904E+04  0.25633901904E+04  0.50400000000E-02 0. -1.
         -1   -1    0    0    0  501 -0.00000000000E+00 -0.00000000000E+00 -0.30884760965E+03  0.30884760970E+03  0.50400000000E-02 0.  1.
    8880023    1    1    2    0    0 -0.48865277057E+03 -0.52368445262E+02  0.33936247657E+03  0.88910127714E+03  0.65864270000E+03 0.  0.
    8880022    1    1    2    0    0  0.48865277057E+03  0.52368445262E+02  0.19151801042E+04  0.19831365230E+04  0.15294330000E+03 0.  0.
<mgrwt>
<rscale>  0 0.73106834E+03</rscale>
<asrwt>0</asrwt>
<pdfrwt beam="1">  1        1 0.39436773E+00 0.82178719E+03</pdfrwt>
<pdfrwt beam="2">  1       -1 0.47515016E-01 0.82178719E+03</pdfrwt>
<totfact> 0.56608894E+00</totfact>
</mgrwt>
</event>
<event>
 4    2  0.4681349E-007  0.8109434E+03  0.7818608E-02  0.9687615E-01
         -1   -1    0    0    0  501 -0.00000000000E+00  0.00000000000E+00  0.79406713195E+03  0.79406713197E+03  0.50400000000E-02 0.  1.
          1   -1    0    0  501    0  0.00000000000E+00 -0.00000000000E+00 -0.71988362934E+03  0.71988362935E+03  0.50400000000E-02 0. -1.
    8880023    1    1    2    0    0 -0.47286780551E+03 -0.14663867406E+02  0.41518461276E+03  0.91104745180E+03  0.65864270000E+03 0.  1.
    8880022    1    1    2    0    0  0.47286780551E+03  0.14663867406E+02 -0.34100111015E+03  0.60290330952E+03  0.15294330000E+03 0. -1.
<mgrwt>
<rscale>  0 0.71758988E+03</rscale>
<asrwt>0</asrwt>
<pdfrwt beam="1">  1        1 0.11075133E+00 0.81094340E+03</pdfrwt>
<pdfrwt beam="2">  1       -1 0.12216417E+00 0.81094340E+03</pdfrwt>
<totfact> 0.15788255E+01</totfact>
</mgrwt>
</event>
<event>
 4    2  0.4681349E-007  0.6628814E+03  0.7818608E-02  0.1021381E+00
          1   -1    0    0  501    0  0.00000000000E+00  0.00000000000E+00  0.57076784275E+03  0.57076784278E+03  0.50400000000E-02 0. -1.
         -1   -1    0    0    0  501 -0.00000000000E+00 -0.00000000000E+00 -0.50199977832E+03  0.50199977835E+03  0.50400000000E-02 0.  1.
    8880023    1    1    2    0    0  0.47966957422E+02 -0.57452235704E+02 -0.25235657319E+03  0.70929234783E+03  0.65864270000E+03 0.  1.
    8880022    1    1    2    0    0 -0.47966957422E+02  0.57452235704E+02  0.32112463762E+03  0.36347527329E+03  0.15294330000E+03 0.  0.
<mgrwt>
<rscale>  0 0.47191522E+03</rscale>
<asrwt>0</asrwt>
<pdfrwt beam="1">  1        1 0.87810437E-01 0.66288143E+03</pdfrwt>
<pdfrwt beam="2">  1       -1 0.77230735E-01 0.66288143E+03</pdfrwt>
<totfact> 0.63599650E+01</totfact>
</mgrwt>
</event>
<event>
 4    2  0.4681349E-007  0.9316052E+03  0.7818608E-02  0.9477089E-01
         -1   -1    0    0    0  501 -0.00000000000E+00  0.00000000000E+00  0.58937287064E+03  0.58937287067E+03  0.50400000000E-02 0.  1.
          1   -1    0    0  501    0  0.00000000000E+00 -0.00000000000E+00 -0.12426572452E+04  0.12426572452E+04  0.50400000000E-02 0. -1.
    8880023    1    1    2    0    0  0.64087481306E+03  0.15283179838E+03 -0.62027231272E+02  0.93366785759E+03  0.65864270000E+03 0.  0.
    8880022    1    1    2    0    0 -0.64087481306E+03 -0.15283179838E+03 -0.59125714328E+03  0.89836225829E+03  0.15294330000E+03 0.  0.
<mgrwt>
<rscale>  0 0.85994214E+03</rscale>
<asrwt>0</asrwt>
<pdfrwt beam="1">  1        1 0.19117804E+00 0.93160522E+03</pdfrwt>
<pdfrwt beam="2">  1       -1 0.90672750E-01 0.93160522E+03</pdfrwt>
<totfact> 0.11952319E+01</totfact>
</mgrwt>
</event>
<event>
 4    2  0.4681349E-007  0.1091705E+04  0.7818608E-02  0.9270348E-01
          1   -1    0    0  501    0  0.00000000000E+00  0.00000000000E+00  0.24606386121E+04  0.24606386121E+04  0.50400000000E-02 0. -1.
         -1   -1    0    0    0  501 -0.00000000000E+00 -0.00000000000E+00 -0.63504895537E+03  0.63504895539E+03  0.50400000000E-02 0.  1.
    8880023    1    1    2    0    0  0.45616519183E+03  0.74156810324E+03  0.27491516430E+02  0.10920512459E+04  0.65864270000E+03 0.  0.
    8880022    1    1    2    0    0 -0.45616519183E+03 -0.74156810324E+03  0.17980981403E+04  0.20036363216E+04  0.15294330000E+03 0.  0.
<mgrwt>
<rscale>  0 0.10355911E+04</rscale>
<asrwt>0</asrwt>
<pdfrwt beam="1">  1        1 0.37855979E+00 0.10917052E+04</pdfrwt>
<pdfrwt beam="2">  1       -1 0.97699839E-01 0.10917052E+04</pdfrwt>
<totfact> 0.14562266E+00</totfact>
</mgrwt>
</event>
<event>
 4    2  0.4681349E-007  0.8367599E+03  0.7818608E-02  0.9636320E-01
         -1   -1    0    0    0  501 -0.00000000000E+00  0.00000000000E+00  0.10819619817E+04  0.10819619817E+04  0.50400000000E-02 0.  1.
          1   -1    0    0  501    0  0.00000000000E+00 -0.00000000000E+00 -0.60019291177E+03  0.60019291179E+03  0.50400000000E-02 0. -1.
    8880023    1    1    2    0    0  0.40953558856E+03 -0.31406616775E+03  0.71009129619E+03  0.10974501406E+04  0.65864270000E+03 0.  0.
    8880022    1    1    2    0    0 -0.40953558856E+03  0.31406616775E+03 -0.22832222625E+03  0.58470475287E+03  0.15294330000E+03 0.  0.
<mgrwt>
<rscale>  0 0.74938211E+03</rscale>
<asrwt>0</asrwt>
<pdfrwt beam="1">  1        1 0.92337372E-01 0.83675992E+03</pdfrwt>
<pdfrwt beam="2">  1       -1 0.16645569E+00 0.83675992E+03</pdfrwt>
<totfact> 0.91289799E+00</totfact>
</mgrwt>
</event>
<event>
 4    2  0.4681349E-007  0.6704019E+03  0.7818608E-02  0.1015376E+00
          1   -1    0    0  501    0  0.00000000000E+00  0.00000000000E+00  0.21291882118E+04  0.21291882118E+04  0.50400000000E-02 0. -1.
         -1   -1    0    0    0  501 -0.00000000000E+00 -0.00000000000E+00 -0.14575286942E+03  0.14575286951E+03  0.50400000000E-02 0.  1.
    8880023    1    1    2    0    0  0.11276989269E+01  0.12500870891E+03  0.67381816852E+03  0.95051016801E+03  0.65864270000E+03 0.  1.
    8880022    1    1    2    0    0 -0.11276989269E+01 -0.12500870891E+03  0.13096171739E+04  0.13244309133E+04  0.15294330000E+03 0.  0.
<mgrwt>
<rscale>  0 0.49392665E+03</rscale>
<asrwt>0</asrwt>
<pdfrwt beam="1">  1        1 0.32756742E+00 0.67040186E+03</pdfrwt>
<pdfrwt beam="2">  1       -1 0.22423518E-01 0.67040186E+03</pdfrwt>
<totfact> 0.42997888E+01</totfact>
</mgrwt>
</event>
<event>
 4    2  0.4681349E-007  0.6789515E+03  0.7818608E-02  0.1009923E+00
         -1   -1    0    0    0  501 -0.00000000000E+00  0.00000000000E+00  0.29395605342E+03  0.29395605347E+03  0.50400000000E-02 0.  1.
          1   -1    0    0  501    0  0.00000000000E+00 -0.00000000000E+00 -0.15700257129E+04  0.15700257129E+04  0.50400000000E-02 0. -1.
    8880023    1    1    2    0    0 -0.15744405046E+03 -0.48747467959E+02 -0.12400804033E+03  0.69018341402E+03  0.65864270000E+03 0.  1.
    8880022    1    1    2    0    0  0.15744405046E+03  0.48747467959E+02 -0.11520616192E+04  0.11737983524E+04  0.15294330000E+03 0.  0.
<mgrwt>
<rscale>  0 0.51505226E+03</rscale>
<asrwt>0</asrwt>
<pdfrwt beam="1">  1        1 0.24154241E+00 0.67895151E+03</pdfrwt>
<pdfrwt beam="2">  1       -1 0.45224009E-01 0.67895151E+03</pdfrwt>
<totfact> 0.29596553E+01</totfact>
</mgrwt>
</event>
<event>
 4    2  0.4681349E-007  0.8050848E+03  0.7818608E-02  0.9699908E-01
          1   -1    0    0  501    0  0.00000000000E+00  0.00000000000E+00  0.18890236796E+04  0.18890236796E+04  0.50400000000E-02 0. -1.
         -1   -1    0    0    0  501 -0.00000000000E+00 -0.00000000000E+00 -0.32691401777E+03  0.32691401781E+03  0.50400000000E-02 0.  1.
    8880023    1    1    2    0    0 -0.42148179662E+03 -0.19158382019E+03  0.29360668633E+03  0.85695178252E+03  0.65864270000E+03 0.  1.
    8880022    1    1    2    0    0  0.42148179662E+03  0.19158382019E+03  0.12685029755E+04  0.13589859149E+04  0.15294330000E+03 0.  1.
<mgrwt>
<rscale>  0 0.71022287E+03</rscale>
<asrwt>0</asrwt>
<pdfrwt beam="1">  1        1 0.29061903E+00 0.80508476E+03</pdfrwt>
<pdfrwt beam="2">  1       -1 0.50294465E-01 0.80508476E+03</pdfrwt>
<totfact> 0.14541919E+01</totfact>
</mgrwt>
</event>
<event>
 4    2  0.4681349E-007  0.9127199E+03  0.7818608E-02  0.9505913E-01
          1   -1    0    0  501    0  0.00000000000E+00  0.00000000000E+00  0.95079517513E+03  0.95079517514E+03  0.50400000000E-02 0. -1.
         -1   -1    0    0    0  501 -0.00000000000E+00 -0.00000000000E+00 -0.11304094783E+04  0.11304094783E+04  0.50400000000E-02 0.  1.
    8880023    1    1    2    0    0  0.35089041106E+03 -0.52547431177E+03 -0.77673312285E+03  0.11984873313E+04  0.65864270000E+03 0.  0.
    8880022    1    1    2    0    0 -0.35089041106E+03  0.52547431177E+03  0.59711881971E+03  0.88271732212E+03  0.15294330000E+03 0.  0.
<mgrwt>
<rscale>  0 0.83849276E+03</rscale>
<asrwt>0</asrwt>
<pdfrwt beam="1">  1        1 0.14627618E+00 0.91271986E+03</pdfrwt>
<pdfrwt beam="2">  1       -1 0.17390915E+00 0.91271986E+03</pdfrwt>
<totfact> 0.38658905E+00</totfact>
</mgrwt>
</event>
<event>
 4    2  0.4681349E-007  0.6878464E+03  0.7818608E-02  0.1005193E+00
          1   -1    0    0  501    0  0.00000000000E+00  0.00000000000E+00  0.20198403344E+04  0.20198403344E+04  0.50400000000E-02 0. -1.
         -1   -1    0    0    0  501 -0.00000000000E+00 -0.00000000000E+00 -0.15257022117E+03  0.15257022125E+03  0.50400000000E-02 0.  1.
    8880023    1    1    2    0    0  0.19826716341E+03  0.35501924595E+01  0.71075721410E+03  0.98909478596E+03  0.65864270000E+03 0.  1.
    8880022    1    1    2    0    0 -0.19826716341E+03 -0.35501924595E+01  0.11565128991E+04  0.11833157697E+04  0.15294330000E+03 0.  0.
<mgrwt>
<rscale>  0 0.53430505E+03</rscale>
<asrwt>0</asrwt>
<pdfrwt beam="1">  1        1 0.31074468E+00 0.68784641E+03</pdfrwt>
<pdfrwt beam="2">  1       -1 0.23472341E-01 0.68784641E+03</pdfrwt>
<totfact> 0.46981270E+01</totfact>
</mgrwt>
</event>
<event>
 4    2  0.4681349E-007  0.9277147E+03  0.7818608E-02  0.9482930E-01
          1   -1    0    0  501    0  0.00000000000E+00  0.00000000000E+00  0.20577105261E+04  0.20577105261E+04  0.50400000000E-02 0. -1.
         -1   -1    0    0    0  501 -0.00000000000E+00 -0.00000000000E+00 -0.11105853239E+04  0.11105853239E+04  0.50400000000E-02 0.  1.
    8880023    1    1    2    0    0  0.61251709601E+03  0.22730426329E+03 -0.84488293788E+03  0.12547835694E+04  0.65864270000E+03 0.  1.
    8880022    1    1    2    0    0 -0.61251709601E+03 -0.22730426329E+03  0.17920081401E+04  0.19135122806E+04  0.15294330000E+03 0.  0.
<mgrwt>
<rscale>  0 0.85554110E+03</rscale>
<asrwt>0</asrwt>
<pdfrwt beam="1">  1        1 0.31657085E+00 0.92771473E+03</pdfrwt>
<pdfrwt beam="2">  1       -1 0.17085928E+00 0.92771473E+03</pdfrwt>
<totfact> 0.67679839E-01</totfact>
</mgrwt>
</event>
<event>
 4    2  0.4681349E-007  0.7067804E+03  0.7818608E-02  0.9970157E-01
          1   -1    0    0  501    0  0.00000000000E+00  0.00000000000E+00  0.78023552780E+03  0.78023552781E+03  0.50400000000E-02 0. -1.
         -1   -1    0    0    0  501 -0.00000000000E+00 -0.00000000000E+00 -0.49222219090E+03  0.49222219093E+03  0.50400000000E-02 0.  1.
    8880023    1    1    2    0    0  0.24284290572E+03 -0.82192456425E+02 -0.16888474197E+03  0.72667774088E+03  0.65864270000E+03 0.  1.
    8880022    1    1    2    0    0 -0.24284290572E+03  0.82192456425E+02  0.45689807887E+03  0.54577997787E+03  0.15294330000E+03 0.  0.
<mgrwt>
<rscale>  0 0.56978395E+03</rscale>
<asrwt>0</asrwt>
<pdfrwt beam="1">  1        1 0.12003624E+00 0.70678036E+03</pdfrwt>
<pdfrwt beam="2">  1       -1 0.75726491E-01 0.70678036E+03</pdfrwt>
<totfact> 0.41457236E+01</totfact>
</mgrwt>
</event>
<event>
 4    2  0.4681349E-007  0.7406553E+03  0.7818608E-02  0.9858042E-01
         -1   -1    0    0    0  501 -0.00000000000E+00  0.00000000000E+00  0.75285406513E+03  0.75285406515E+03  0.50400000000E-02 0.  1.
          1   -1    0    0  501    0  0.00000000000E+00 -0.00000000000E+00 -0.83305221563E+03  0.83305221565E+03  0.50400000000E-02 0. -1.
    8880023    1    1    2    0    0  0.33801881304E+03  0.22434754894E+02  0.50230571962E+03  0.89491970501E+03  0.65864270000E+03 0.  1.
    8880022    1    1    2    0    0 -0.33801881304E+03 -0.22434754894E+02 -0.58250387011E+03  0.69098657578E+03  0.15294330000E+03 0.  0.
<mgrwt>
<rscale>  0 0.62338539E+03</rscale>
<asrwt>0</asrwt>
<pdfrwt beam="1">  1        1 0.12816188E+00 0.74065528E+03</pdfrwt>
<pdfrwt beam="2">  1       -1 0.11582370E+00 0.74065528E+03</pdfrwt>
<totfact> 0.14396282E+01</totfact>
</mgrwt>
</event>
<event>
 4    2  0.4681349E-007  0.7147606E+03  0.7818608E-02  0.9940730E-01
         -1   -1    0    0    0  501 -0.00000000000E+00  0.00000000000E+00  0.29988180744E+03  0.29988180748E+03  0.50400000000E-02 0.  1.
          1   -1    0    0  501    0  0.00000000000E+00 -0.00000000000E+00 -0.10795568381E+04  0.10795568381E+04  0.50400000000E-02 0. -1.
    8880023    1    1    2    0    0 -0.22504640373E+03 -0.16256264651E+03 -0.24075327067E+03  0.75421803311E+03  0.65864270000E+03 0.  1.
    8880022    1    1    2    0    0  0.22504640373E+03  0.16256264651E+03 -0.53892176002E+03  0.62522061251E+03  0.15294330000E+03 0.  0.
<mgrwt>
<rscale>  0 0.58327296E+03</rscale>
<asrwt>0</asrwt>
<pdfrwt beam="1">  1        1 0.16608567E+00 0.71476059E+03</pdfrwt>
<pdfrwt beam="2">  1       -1 0.46135663E-01 0.71476059E+03</pdfrwt>
<totfact> 0.63036661E+01</totfact>
</mgrwt>
</event>
<event>
 4    2  0.4681349E-007  0.8091001E+03  0.7818608E-02  0.9691454E-01
          1   -1    0    0  501    0  0.00000000000E+00  0.00000000000E+00  0.12153873317E+04  0.12153873317E+04  0.50400000000E-02 0. -1.
         -1   -1    0    0    0  501 -0.00000000000E+00 -0.00000000000E+00 -0.73806572248E+03  0.73806572250E+03  0.50400000000E-02 0.  1.
    8880023    1    1    2    0    0  0.30197723666E+03 -0.36005912926E+03 -0.43297178029E+03  0.91766420700E+03  0.65864270000E+03 0.  1.
    8880022    1    1    2    0    0 -0.30197723666E+03  0.36005912926E+03  0.91029338952E+03  0.10357888472E+04  0.15294330000E+03 0.  0.
<mgrwt>
<rscale>  0 0.71527880E+03</rscale>
<asrwt>0</asrwt>
<pdfrwt beam="1">  1        1 0.18698266E+00 0.80910014E+03</pdfrwt>
<pdfrwt beam="2">  1       -1 0.11354857E+00 0.80910014E+03</pdfrwt>
<totfact> 0.75701292E+00</totfact>
</mgrwt>
</event>
<event>
 4    2  0.4681349E-007  0.7043855E+03  0.7818608E-02  0.9979472E-01
         -1   -1    0    0    0  501 -0.00000000000E+00  0.00000000000E+00  0.42063389598E+03  0.42063389601E+03  0.50400000000E-02 0.  1.
          1   -1    0    0  501    0  0.00000000000E+00 -0.00000000000E+00 -0.11991570042E+04  0.11991570042E+04  0.50400000000E-02 0. -1.
    8880023    1    1    2    0    0  0.21954785256E+03 -0.11894340118E+03  0.83570987798E+02  0.70932581267E+03  0.65864270000E+03 0.  1.
    8880022    1    1    2    0    0 -0.21954785256E+03  0.11894340118E+03 -0.86209409599E+03  0.91046508753E+03  0.15294330000E+03 0.  0.
<mgrwt>
<rscale>  0 0.56559563E+03</rscale>
<asrwt>0</asrwt>
<pdfrwt beam="1">  1        1 0.18448569E+00 0.70438555E+03</pdfrwt>
<pdfrwt beam="2">  1       -1 0.64712907E-01 0.70438555E+03</pdfrwt>
<totfact> 0.26823304E+01</totfact>
</mgrwt>
</event>
<event>
 4    2  0.4681349E-007  0.7439606E+03  0.7818608E-02  0.9848557E-01
         -1   -1    0    0    0  501 -0.00000000000E+00  0.00000000000E+00  0.15085804177E+04  0.15085804177E+04  0.50400000000E-02 0.  1.
          1   -1    0    0  501    0  0.00000000000E+00 -0.00000000000E+00 -0.36770855469E+03  0.36770855472E+03  0.50400000000E-02 0. -1.
    8880023    1    1    2    0    0 -0.26917680013E+03  0.21728107380E+03  0.12739983418E+04  0.14753132535E+04  0.65864270000E+03 0.  0.
    8880022    1    1    2    0    0  0.26917680013E+03 -0.21728107380E+03 -0.13312647884E+03  0.40097571889E+03  0.15294330000E+03 0.  1.
<mgrwt>
<rscale>  0 0.62820561E+03</rscale>
<asrwt>0</asrwt>
<pdfrwt beam="1">  1        1 0.56570547E-01 0.74396063E+03</pdfrwt>
<pdfrwt beam="2">  1       -1 0.23208930E+00 0.74396063E+03</pdfrwt>
<totfact> 0.63633152E+00</totfact>
</mgrwt>
</event>
<event>
 4    2  0.4681349E-007  0.1300143E+04  0.7818608E-02  0.9065436E-01
         -1   -1    0    0    0  501 -0.00000000000E+00  0.00000000000E+00  0.22445878281E+04  0.22445878281E+04  0.50400000000E-02 0.  1.
          1   -1    0    0  501    0  0.00000000000E+00 -0.00000000000E+00 -0.99749933571E+03  0.99749933573E+03  0.50400000000E-02 0. -1.
    8880023    1    1    2    0    0 -0.40068328821E+03  0.10469074825E+04  0.15956405877E+04  0.20582617584E+04  0.65864270000E+03 0.  1.
    8880022    1    1    2    0    0  0.40068328821E+03 -0.10469074825E+04 -0.34855209535E+03  0.11838254055E+04  0.15294330000E+03 0.  0.
<mgrwt>
<rscale>  0 0.12557197E+04</rscale>
<asrwt>0</asrwt>
<pdfrwt beam="1">  1        1 0.15346144E+00 0.13001433E+04</pdfrwt>
<pdfrwt beam="2">  1       -1 0.34532120E+00 0.13001433E+04</pdfrwt>
<totfact> 0.24741253E-01</totfact>
</mgrwt>
</event>
<event>
 4    2  0.4681349E-007  0.8307721E+03  0.7818608E-02  0.9647832E-01
         -1   -1    0    0    0  501 -0.00000000000E+00  0.00000000000E+00  0.63267674781E+03  0.63267674783E+03  0.50400000000E-02 0.  1.
          1   -1    0    0  501    0  0.00000000000E+00 -0.00000000000E+00 -0.10216330236E+04  0.10216330236E+04  0.50400000000E-02 0. -1.
    8880023    1    1    2    0    0  0.46964775959E+03  0.18921708023E+03  0.20832602585E+03  0.85649405185E+03  0.65864270000E+03 0.  1.
    8880022    1    1    2    0    0 -0.46964775959E+03 -0.18921708023E+03 -0.59728230161E+03  0.79781571956E+03  0.15294330000E+03 0.  0.
<mgrwt>
<rscale>  0 0.74209648E+03</rscale>
<asrwt>0</asrwt>
<pdfrwt beam="1">  1        1 0.15717431E+00 0.83077213E+03</pdfrwt>
<pdfrwt beam="2">  1       -1 0.97334884E-01 0.83077213E+03</pdfrwt>
<totfact> 0.15057595E+01</totfact>
</mgrwt>
</event>
<event>
 4    2  0.4681349E-007  0.7345809E+03  0.7818608E-02  0.9876023E-01
         -1   -1    0    0    0  501 -0.00000000000E+00  0.00000000000E+00  0.11485389920E+04  0.11485389920E+04  0.50400000000E-02 0.  1.
          1   -1    0    0  501    0  0.00000000000E+00 -0.00000000000E+00 -0.83117526649E+03  0.83117526651E+03  0.50400000000E-02 0. -1.
    8880023    1    1    2    0    0 -0.26639642349E+03  0.18663295653E+03  0.98066923841E+03  0.12252841615E+04  0.65864270000E+03 0.  1.
    8880022    1    1    2    0    0  0.26639642349E+03 -0.18663295653E+03 -0.66330551289E+03  0.75443009706E+03  0.15294330000E+03 0.  0.
<mgrwt>
<rscale>  0 0.61437507E+03</rscale>
<asrwt>0</asrwt>
<pdfrwt beam="1">  1        1 0.12787312E+00 0.73458092E+03</pdfrwt>
<pdfrwt beam="2">  1       -1 0.17669830E+00 0.73458092E+03</pdfrwt>
<totfact> 0.47456060E+00</totfact>
</mgrwt>
</event>
<event>
 4    2  0.4681349E-007  0.9171129E+03  0.7818608E-02  0.9499100E-01
         -1   -1    0    0    0  501 -0.00000000000E+00  0.00000000000E+00  0.30243767919E+03  0.30243767923E+03  0.50400000000E-02 0.  1.
          1   -1    0    0  501    0  0.00000000000E+00 -0.00000000000E+00 -0.34805159190E+04  0.34805159190E+04  0.50400000000E-02 0. -1.
    8880023    1    1    2    0    0  0.31874953531E+03 -0.55288743701E+03 -0.53958644991E+03  0.10640721439E+04  0.65864270000E+03 0.  1.
    8880022    1    1    2    0    0 -0.31874953531E+03  0.55288743701E+03 -0.26384917899E+04  0.27188814543E+04  0.15294330000E+03 0.  0.
<mgrwt>
<rscale>  0 0.84350197E+03</rscale>
<asrwt>0</asrwt>
<pdfrwt beam="1">  1        1 0.53546396E+00 0.91711286E+03</pdfrwt>
<pdfrwt beam="2">  1       -1 0.46528876E-01 0.91711286E+03</pdfrwt>
<totfact> 0.12545851E+00</totfact>
</mgrwt>
</event>
<event>
 4    2  0.4681349E-007  0.6691417E+03  0.7818608E-02  0.1016286E+00
          1   -1    0    0  501    0  0.00000000000E+00  0.00000000000E+00  0.89163033899E+03  0.89163033900E+03  0.50400000000E-02 0. -1.
         -1   -1    0    0    0  501 -0.00000000000E+00 -0.00000000000E+00 -0.23257464320E+03  0.23257464325E+03  0.50400000000E-02 0.  1.
    8880023    1    1    2    0    0  0.65444453172E+02  0.98272131024E+02  0.33841825052E+03  0.74985165649E+03  0.65864270000E+03 0.  1.
    8880022    1    1    2    0    0 -0.65444453172E+02 -0.98272131024E+02  0.32063744527E+03  0.37435332577E+03  0.15294330000E+03 0.  0.
<mgrwt>
<rscale>  0 0.49051103E+03</rscale>
<asrwt>0</asrwt>
<pdfrwt beam="1">  1        1 0.13717390E+00 0.66914168E+03</pdfrwt>
<pdfrwt beam="2">  1       -1 0.35780714E-01 0.66914168E+03</pdfrwt>
<totfact> 0.14094032E+02</totfact>
</mgrwt>
</event>
<event>
 4    2  0.4681349E-007  0.7959756E+03  0.7818608E-02  0.9719566E-01
         -1   -1    0    0    0  501 -0.00000000000E+00  0.00000000000E+00  0.93328114032E+03  0.93328114033E+03  0.50400000000E-02 0.  1.
          1   -1    0    0  501    0  0.00000000000E+00 -0.00000000000E+00 -0.51238492080E+03  0.51238492082E+03  0.50400000000E-02 0. -1.
    8880023    1    1    2    0    0  0.26232178052E+03 -0.36187606145E+03  0.53578250937E+03  0.95949992392E+03  0.65864270000E+03 0.  0.
    8880022    1    1    2    0    0 -0.26232178052E+03  0.36187606145E+03 -0.11488628986E+03  0.48616613724E+03  0.15294330000E+03 0.  0.
<mgrwt>
<rscale>  0 0.69863694E+03</rscale>
<asrwt>0</asrwt>
<pdfrwt beam="1">  1        1 0.78828449E-01 0.79597563E+03</pdfrwt>
<pdfrwt beam="2">  1       -1 0.14358171E+00 0.79597563E+03</pdfrwt>
<totfact> 0.17169865E+01</totfact>
</mgrwt>
</event>
<event>
 4    2  0.4681349E-007  0.7814221E+03  0.7818608E-02  0.9752507E-01
         -1   -1    0    0    0  501 -0.00000000000E+00  0.00000000000E+00  0.85568794278E+03  0.85568794280E+03  0.50400000000E-02 0.  1.
          1   -1    0    0  501    0  0.00000000000E+00 -0.00000000000E+00 -0.19256025436E+04  0.19256025437E+04  0.50400000000E-02 0. -1.
    8880023    1    1    2    0    0 -0.29995658235E+03  0.29468011249E+03  0.64233734556E+03  0.10115422837E+04  0.65864270000E+03 0.  1.
    8880022    1    1    2    0    0  0.29995658235E+03 -0.29468011249E+03 -0.17122519464E+04  0.17697482027E+04  0.15294330000E+03 0.  0.
<mgrwt>
<rscale>  0 0.67974781E+03</rscale>
<asrwt>0</asrwt>
<pdfrwt beam="1">  1        1 0.29624654E+00 0.78142212E+03</pdfrwt>
<pdfrwt beam="2">  1       -1 0.13164430E+00 0.78142212E+03</pdfrwt>
<totfact> 0.17227420E+00</totfact>
</mgrwt>
</event>
<event>
 4    2  0.4681349E-007  0.6808853E+03  0.7818608E-02  0.1008827E+00
         -1   -1    0    0    0  501 -0.00000000000E+00  0.00000000000E+00  0.14530422108E+03  0.14530422117E+03  0.50400000000E-02 0.  1.
          1   -1    0    0  501    0  0.00000000000E+00 -0.00000000000E+00 -0.17321697336E+04  0.17321697336E+04  0.50400000000E-02 0. -1.
    8880023    1    1    2    0    0  0.13304963519E+03  0.10996512383E+03 -0.76620356061E+03  0.10250232370E+04  0.65864270000E+03 0.  1.
    8880022    1    1    2    0    0 -0.13304963519E+03 -0.10996512383E+03 -0.82066195191E+03  0.85245071776E+03  0.15294330000E+03 0.  1.
<mgrwt>
<rscale>  0 0.51943392E+03</rscale>
<asrwt>0</asrwt>
<pdfrwt beam="1">  1        1 0.26648764E+00 0.68088526E+03</pdfrwt>
<pdfrwt beam="2">  1       -1 0.22354497E-01 0.68088526E+03</pdfrwt>
<totfact> 0.79450247E+01</totfact>
</mgrwt>
</event>
<event>
 4    2  0.4681349E-007  0.7302854E+03  0.7818608E-02  0.9889206E-01
          1   -1    0    0  501    0  0.00000000000E+00  0.00000000000E+00  0.70222956821E+03  0.70222956823E+03  0.50400000000E-02 0. -1.
         -1   -1    0    0    0  501 -0.00000000000E+00 -0.00000000000E+00 -0.16783620522E+04  0.16783620522E+04  0.50400000000E-02 0.  1.
    8880023    1    1    2    0    0  0.29822746381E+03  0.10279544215E+03 -0.15469807305E+04  0.17106917051E+04  0.65864270000E+03 0.  1.
    8880022    1    1    2    0    0 -0.29822746381E+03 -0.10279544215E+03  0.57084824647E+03  0.66989991537E+03  0.15294330000E+03 0.  0.
<mgrwt>
<rscale>  0 0.60787269E+03</rscale>
<asrwt>0</asrwt>
<pdfrwt beam="1">  1        1 0.10803532E+00 0.73028538E+03</pdfrwt>
<pdfrwt beam="2">  1       -1 0.25820954E+00 0.73028538E+03</pdfrwt>
<totfact> 0.17571200E+00</totfact>
</mgrwt>
</event>
<event>
 4    2  0.4681349E-007  0.8564668E+03  0.7818608E-02  0.9599879E-01
         -1   -1    0    0    0  501 -0.00000000000E+00  0.00000000000E+00  0.71213469934E+03  0.71213469936E+03  0.50400000000E-02 0.  1.
          1   -1    0    0  501    0  0.00000000000E+00 -0.00000000000E+00 -0.23914924658E+04  0.23914924658E+04  0.50400000000E-02 0. -1.
    8880023    1    1    2    0    0  0.73776097613E+02  0.54247790123E+03  0.40194638558E+03  0.94609528539E+03  0.65864270000E+03 0.  1.
    8880022    1    1    2    0    0 -0.73776097613E+02 -0.54247790123E+03 -0.20813041520E+04  0.21575318798E+04  0.15294330000E+03 0.  0.
<mgrwt>
<rscale>  0 0.77304157E+03</rscale>
<asrwt>0</asrwt>
<pdfrwt beam="1">  1        1 0.36792191E+00 0.85646681E+03</pdfrwt>
<pdfrwt beam="2">  1       -1 0.10955919E+00 0.85646681E+03</pdfrwt>
<totfact> 0.12924924E+00</totfact>
</mgrwt>
</event>
<event>
 4    2  0.4681349E-007  0.6840224E+03  0.7818608E-02  0.1007134E+00
          1   -1    0    0  501    0  0.00000000000E+00  0.00000000000E+00  0.75210305543E+03  0.75210305545E+03  0.50400000000E-02 0. -1.
         -1   -1    0    0    0  501 -0.00000000000E+00 -0.00000000000E+00 -0.34057279455E+03  0.34057279459E+03  0.50400000000E-02 0.  1.
    8880023    1    1    2    0    0  0.14622186827E+03  0.11267446749E+03  0.87482365412E+02  0.68959389564E+03  0.65864270000E+03 0.  1.
    8880022    1    1    2    0    0 -0.14622186827E+03 -0.11267446749E+03  0.32404789547E+03  0.40308195440E+03  0.15294330000E+03 0.  0.
<mgrwt>
<rscale>  0 0.52629713E+03</rscale>
<asrwt>0</asrwt>
<pdfrwt beam="1">  1        1 0.11570816E+00 0.68402235E+03</pdfrwt>
<pdfrwt beam="2">  1       -1 0.52395815E-01 0.68402235E+03</pdfrwt>
<totfact> 0.91670993E+01</totfact>
</mgrwt>
</event>
<event>
 4    2  0.4681349E-007  0.9591210E+03  0.7818608E-02  0.9437111E-01
          1   -1    0    0  501    0  0.00000000000E+00  0.00000000000E+00  0.21104951914E+04  0.21104951914E+04  0.50400000000E-02 0. -1.
         -1   -1    0    0    0  501 -0.00000000000E+00 -0.00000000000E+00 -0.65682580748E+03  0.65682580750E+03  0.50400000000E-02 0.  1.
    8880023    1    1    2    0    0  0.60434029700E+03  0.34767190332E+03 -0.18783441703E+03  0.97734073967E+03  0.65864270000E+03 0.  1.
    8880022    1    1    2    0    0 -0.60434029700E+03 -0.34767190332E+03  0.16415038010E+04  0.17899802593E+04  0.15294330000E+03 0.  0.
<mgrwt>
<rscale>  0 0.89083549E+03</rscale>
<asrwt>0</asrwt>
<pdfrwt beam="1">  1        1 0.32469156E+00 0.95912103E+03</pdfrwt>
<pdfrwt beam="2">  1       -1 0.10105013E+00 0.95912103E+03</pdfrwt>
<totfact> 0.23763386E+00</totfact>
</mgrwt>
</event>
<event>
 4    2  0.4681349E-007  0.7734573E+03  0.7818608E-02  0.9771437E-01
          1   -1    0    0  501    0  0.00000000000E+00  0.00000000000E+00  0.15466767856E+04  0.15466767856E+04  0.50400000000E-02 0. -1.
         -1   -1    0    0    0  501 -0.00000000000E+00 -0.00000000000E+00 -0.39844113735E+03  0.39844113739E+03  0.50400000000E-02 0.  1.
    8880023    1    1    2    0    0 -0.35565618006E+02 -0.40393195825E+03  0.62375038317E+02  0.77596829301E+03  0.65864270000E+03 0.  1.
    8880022    1    1    2    0    0  0.35565618006E+02  0.40393195825E+03  0.10858606099E+04  0.11691496299E+04  0.15294330000E+03 0.  0.
<mgrwt>
<rscale>  0 0.66918204E+03</rscale>
<asrwt>0</asrwt>
<pdfrwt beam="1">  1        1 0.23795028E+00 0.77345727E+03</pdfrwt>
<pdfrwt beam="2">  1       -1 0.61298636E-01 0.77345727E+03</pdfrwt>
<totfact> 0.16930541E+01</totfact>
</mgrwt>
</event>
<event>
 4    2  0.4681349E-007  0.7544130E+03  0.7818608E-02  0.9819792E-01
         -1   -1    0    0    0  501 -0.00000000000E+00  0.00000000000E+00  0.84303636812E+03  0.84303636813E+03  0.50400000000E-02 0.  1.
          1   -1    0    0  501    0  0.00000000000E+00 -0.00000000000E+00 -0.42448379292E+03  0.42448379295E+03  0.50400000000E-02 0. -1.
    8880023    1    1    2    0    0  0.87538797430E+02 -0.35730344549E+03  0.43114898484E+03  0.86892372888E+03  0.65864270000E+03 0.  0.
    8880022    1    1    2    0    0 -0.87538797430E+02  0.35730344549E+03 -0.12596409644E+02  0.39859643220E+03  0.15294330000E+03 0.  0.
<mgrwt>
<rscale>  0 0.64311108E+03</rscale>
<asrwt>0</asrwt>
<pdfrwt beam="1">  1        1 0.65305200E-01 0.75441302E+03</pdfrwt>
<pdfrwt beam="2">  1       -1 0.12969790E+00 0.75441302E+03</pdfrwt>
<totfact> 0.28923072E+01</totfact>
</mgrwt>
</event>
<event>
 4    2  0.4681349E-007  0.8078767E+03  0.7818608E-02  0.9694017E-01
          1   -1    0    0  501    0  0.00000000000E+00  0.00000000000E+00  0.11787208467E+04  0.11787208467E+04  0.50400000000E-02 0. -1.
         -1   -1    0    0    0  501 -0.00000000000E+00 -0.00000000000E+00 -0.48619589064E+03  0.48619589066E+03  0.50400000000E-02 0.  1.
    8880023    1    1    2    0    0 -0.43708577935E+03  0.16676483633E+03 -0.90340079182E+01  0.80792716795E+03  0.65864270000E+03 0.  0.
    8880022    1    1    2    0    0  0.43708577935E+03 -0.16676483633E+03  0.70155896394E+03  0.85698956939E+03  0.15294330000E+03 0. -1.
<mgrwt>
<rscale>  0 0.71374143E+03</rscale>
<asrwt>0</asrwt>
<pdfrwt beam="1">  1        1 0.18134167E+00 0.80787666E+03</pdfrwt>
<pdfrwt beam="2">  1       -1 0.74799369E-01 0.80787666E+03</pdfrwt>
<totfact> 0.20387647E+01</totfact>
</mgrwt>
</event>
<event>
 4    2  0.4681349E-007  0.8727486E+03  0.7818608E-02  0.9571276E-01
          1   -1    0    0  501    0  0.00000000000E+00  0.00000000000E+00  0.57487296231E+03  0.57487296233E+03  0.50400000000E-02 0. -1.
         -1   -1    0    0    0  501 -0.00000000000E+00 -0.00000000000E+00 -0.12104893490E+04  0.12104893490E+04  0.50400000000E-02 0.  1.
    8880023    1    1    2    0    0  0.52366304814E+03  0.23163962175E+03 -0.78532663252E+03  0.11740647462E+04  0.65864270000E+03 0.  1.
    8880022    1    1    2    0    0 -0.52366304814E+03 -0.23163962175E+03  0.14971024585E+03  0.61129756509E+03  0.15294330000E+03 0.  0.
<mgrwt>
<rscale>  0 0.79226823E+03</rscale>
<asrwt>0</asrwt>
<pdfrwt beam="1">  1        1 0.88441994E-01 0.87274859E+03</pdfrwt>
<pdfrwt beam="2">  1       -1 0.18622913E+00 0.87274859E+03</pdfrwt>
<totfact> 0.69624940E+00</totfact>
</mgrwt>
</event>
<event>
 4    2  0.4681349E-007  0.1122050E+04  0.7818608E-02  0.9236895E-01
          1   -1    0    0  501    0  0.00000000000E+00  0.00000000000E+00  0.28695301818E+04  0.28695301818E+04  0.50400000000E-02 0. -1.
         -1   -1    0    0    0  501 -0.00000000000E+00 -0.00000000000E+00 -0.44350308539E+03  0.44350308542E+03  0.50400000000E-02 0.  1.
    8880023    1    1    2    0    0 -0.20850328544E+03  0.88414482045E+03  0.61099996547E+03  0.12776215588E+04  0.65864270000E+03 0.  0.
    8880022    1    1    2    0    0  0.20850328544E+03 -0.88414482045E+03  0.18150271309E+04  0.20354117084E+04  0.15294330000E+03 0.  0.
<mgrwt>
<rscale>  0 0.10680597E+04</rscale>
<asrwt>0</asrwt>
<pdfrwt beam="1">  1        1 0.44146619E+00 0.11220499E+04</pdfrwt>
<pdfrwt beam="2">  1       -1 0.68231242E-01 0.11220499E+04</pdfrwt>
<totfact> 0.16281078E+00</totfact>
</mgrwt>
</event>
<event>
 4    2  0.4681349E-007  0.7356324E+03  0.7818608E-02  0.9872857E-01
         -1   -1    0    0    0  501 -0.00000000000E+00  0.00000000000E+00  0.12408098930E+04  0.12408098930E+04  0.50400000000E-02 0.  1.
          1   -1    0    0  501    0  0.00000000000E+00 -0.00000000000E+00 -0.44137998814E+03  0.44137998817E+03  0.50400000000E-02 0. -1.
    8880023    1    1    2    0    0 -0.31417340353E+03  0.92950676039E+02 -0.71585868241E+02  0.73910723069E+03  0.65864270000E+03 0. -1.
    8880022    1    1    2    0    0  0.31417340353E+03 -0.92950676039E+02  0.87101577309E+03  0.94308265048E+03  0.15294330000E+03 0.  0.
<mgrwt>
<rscale>  0 0.61594961E+03</rscale>
<asrwt>0</asrwt>
<pdfrwt beam="1">  1        1 0.67904613E-01 0.73563236E+03</pdfrwt>
<pdfrwt beam="2">  1       -1 0.19089383E+00 0.73563236E+03</pdfrwt>
<totfact> 0.94597241E+00</totfact>
</mgrwt>
</event>
<event>
 4    2  0.4681349E-007  0.1084619E+04  0.7818608E-02  0.9278377E-01
          1   -1    0    0  501    0  0.00000000000E+00  0.00000000000E+00  0.22858780442E+04  0.22858780442E+04  0.50400000000E-02 0. -1.
         -1   -1    0    0    0  501 -0.00000000000E+00 -0.00000000000E+00 -0.50093484382E+03  0.50093484385E+03  0.50400000000E-02 0.  1.
    8880023    1    1    2    0    0  0.38333755768E+03 -0.77177810441E+03  0.41528037511E+03  0.11614030833E+04  0.65864270000E+03 0.  0.
    8880022    1    1    2    0    0 -0.38333755768E+03  0.77177810441E+03  0.13696628252E+04  0.16254098048E+04  0.15294330000E+03 0.  0.
<mgrwt>
<rscale>  0 0.10279814E+04</rscale>
<asrwt>0</asrwt>
<pdfrwt beam="1">  1        1 0.35167355E+00 0.10846194E+04</pdfrwt>
<pdfrwt beam="2">  1       -1 0.77066898E-01 0.10846194E+04</pdfrwt>
<totfact> 0.32266912E+00</totfact>
</mgrwt>
</event>
<event>
 4    2  0.4681349E-007  0.1360933E+04  0.7818608E-02  0.9014649E-01
          1   -1    0    0  501    0  0.00000000000E+00  0.00000000000E+00  0.15229027676E+04  0.15229027676E+04  0.50400000000E-02 0. -1.
         -1   -1    0    0    0  501 -0.00000000000E+00 -0.00000000000E+00 -0.22267718823E+04  0.22267718823E+04  0.50400000000E-02 0.  1.
    8880023    1    1    2    0    0  0.46394336213E+03 -0.10968520784E+04  0.98320755862E+03  0.16789387228E+04  0.65864270000E+03 0.  0.
    8880022    1    1    2    0    0 -0.46394336213E+03  0.10968520784E+04 -0.16870766733E+04  0.20707359271E+04  0.15294330000E+03 0.  0.
<mgrwt>
<rscale>  0 0.13189782E+04</rscale>
<asrwt>0</asrwt>
<pdfrwt beam="1">  1        1 0.23429273E+00 0.13609328E+04</pdfrwt>
<pdfrwt beam="2">  1       -1 0.34258029E+00 0.13609328E+04</pdfrwt>
<totfact> 0.10576686E-01</totfact>
</mgrwt>
</event>
<event>
 4    2  0.4681349E-007  0.1027097E+04  0.7818608E-02  0.9346934E-01
         -1   -1    0    0    0  501 -0.00000000000E+00  0.00000000000E+00  0.11004740937E+04  0.11004740937E+04  0.50400000000E-02 0.  1.
          1   -1    0    0  501    0  0.00000000000E+00 -0.00000000000E+00 -0.80895350129E+03  0.80895350131E+03  0.50400000000E-02 0. -1.
    8880023    1    1    2    0    0 -0.70388197587E+03 -0.35449768002E+03 -0.68930572850E+02  0.10294076312E+04  0.65864270000E+03 0.  0.
    8880022    1    1    2    0    0  0.70388197587E+03  0.35449768002E+03  0.36045116525E+03  0.88001996377E+03  0.15294330000E+03 0.  0.
<mgrwt>
<rscale>  0 0.96574479E+03</rscale>
<asrwt>0</asrwt>
<pdfrwt beam="1">  1        1 0.12445438E+00 0.10270972E+04</pdfrwt>
<pdfrwt beam="2">  1       -1 0.16930371E+00 0.10270972E+04</pdfrwt>
<totfact> 0.54059724E+00</totfact>
</mgrwt>
</event>
<event>
 4    2  0.4681349E-007  0.9792048E+03  0.7818608E-02  0.9409284E-01
         -1   -1    0    0    0  501 -0.00000000000E+00  0.00000000000E+00  0.81167820013E+03  0.81167820014E+03  0.50400000000E-02 0.  1.
          1   -1    0    0  501    0  0.00000000000E+00 -0.00000000000E+00 -0.10664227435E+04  0.10664227435E+04  0.50400000000E-02 0. -1.
    8880023    1    1    2    0    0  0.18733833621E+03 -0.69995444071E+03  0.21312486970E+03  0.10021298756E+04  0.65864270000E+03 0.  1.
    8880022    1    1    2    0    0 -0.18733833621E+03  0.69995444071E+03 -0.46786941303E+03  0.87597106798E+03  0.15294330000E+03 0.  0.
<mgrwt>
<rscale>  0 0.91315535E+03</rscale>
<asrwt>0</asrwt>
<pdfrwt beam="1">  1        1 0.16406504E+00 0.97920482E+03</pdfrwt>
<pdfrwt beam="2">  1       -1 0.12487357E+00 0.97920482E+03</pdfrwt>
<totfact> 0.75805390E+00</totfact>
</mgrwt>
</event>
<event>
 4    2  0.4681349E-007  0.1090352E+04  0.7818608E-02  0.9271874E-01
          1   -1    0    0  501    0  0.00000000000E+00  0.00000000000E+00  0.17874448173E+04  0.17874448173E+04  0.50400000000E-02 0. -1.
         -1   -1    0    0    0  501 -0.00000000000E+00 -0.00000000000E+00 -0.91308228565E+03  0.91308228566E+03  0.50400000000E-02 0.  1.
    8880023    1    1    2    0    0  0.17817558248E+03 -0.85047739697E+03  0.13199816607E+04  0.17120806441E+04  0.65864270000E+03 0. -1.
    8880022    1    1    2    0    0 -0.17817558248E+03  0.85047739697E+03 -0.44561912903E+03  0.98844645891E+03  0.15294330000E+03 0.  0.
<mgrwt>
<rscale>  0 0.10341393E+04</rscale>
<asrwt>0</asrwt>
<pdfrwt beam="1">  1        1 0.27499151E+00 0.10903525E+04</pdfrwt>
<pdfrwt beam="2">  1       -1 0.14047420E+00 0.10903525E+04</pdfrwt>
<totfact> 0.17190319E+00</totfact>
</mgrwt>
</event>
<event>
 4    2  0.4681349E-007  0.7381935E+03  0.7818608E-02  0.9865241E-01
          1   -1    0    0  501    0  0.00000000000E+00  0.00000000000E+00  0.19754392471E+04  0.19754392471E+04  0.50400000000E-02 0. -1.
         -1   -1    0    0    0  501 -0.00000000000E+00 -0.00000000000E+00 -0.19790514683E+03  0.19790514690E+03  0.50400000000E-02 0.  1.
    8880023    1    1    2    0    0 -0.32165527184E+03  0.87505958964E+02  0.63614894545E+03  0.97448196177E+03  0.65864270000E+03 0.  1.
    8880022    1    1    2    0    0  0.32165527184E+03 -0.87505958964E+02  0.11413851548E+04  0.11988624322E+04  0.15294330000E+03 0.  0.
<mgrwt>
<rscale>  0 0.61975837E+03</rscale>
<asrwt>0</asrwt>
<pdfrwt beam="1">  1        1 0.30391372E+00 0.73819348E+03</pdfrwt>
<pdfrwt beam="2">  1       -1 0.30446947E-01 0.73819348E+03</pdfrwt>
<totfact> 0.31963006E+01</totfact>
</mgrwt>
</event>
<event>
 4    2  0.4681349E-007  0.7810024E+03  0.7818608E-02  0.9753487E-01
         -1   -1    0    0    0  501 -0.00000000000E+00  0.00000000000E+00  0.79619341047E+03  0.79619341049E+03  0.50400000000E-02 0.  1.
          1   -1    0    0  501    0  0.00000000000E+00 -0.00000000000E+00 -0.58097211531E+03  0.58097211533E+03  0.50400000000E-02 0. -1.
    8880023    1    1    2    0    0 -0.12385343894E+03  0.40101738787E+03 -0.15589912022E+03  0.79641029731E+03  0.65864270000E+03 0.  0.
    8880022    1    1    2    0    0  0.12385343894E+03 -0.40101738787E+03  0.37112041538E+03  0.58075522851E+03  0.15294330000E+03 0.  0.
<mgrwt>
<rscale>  0 0.67919542E+03</rscale>
<asrwt>0</asrwt>
<pdfrwt beam="1">  1        1 0.89380325E-01 0.78100245E+03</pdfrwt>
<pdfrwt beam="2">  1       -1 0.12249129E+00 0.78100245E+03</pdfrwt>
<totfact> 0.21591176E+01</totfact>
</mgrwt>
</event>
<event>
 4    2  0.4681349E-007  0.8142973E+03  0.7818608E-02  0.9680694E-01
          1   -1    0    0  501    0  0.00000000000E+00  0.00000000000E+00  0.15547426788E+04  0.15547426789E+04  0.50400000000E-02 0. -1.
         -1   -1    0    0    0  501 -0.00000000000E+00 -0.00000000000E+00 -0.69206781259E+03  0.69206781261E+03  0.50400000000E-02 0.  1.
    8880023    1    1    2    0    0  0.39769798121E+03  0.26665731482E+03 -0.38571086106E+03  0.90102879111E+03  0.65864270000E+03 0.  1.
    8880022    1    1    2    0    0 -0.39769798121E+03 -0.26665731482E+03  0.12483857273E+04  0.13457817004E+04  0.15294330000E+03 0.  0.
<mgrwt>
<rscale>  0 0.72177960E+03</rscale>
<asrwt>0</asrwt>
<pdfrwt beam="1">  1        1 0.23919118E+00 0.81429725E+03</pdfrwt>
<pdfrwt beam="2">  1       -1 0.10647197E+00 0.81429725E+03</pdfrwt>
<totfact> 0.50985520E+00</totfact>
</mgrwt>
</event>
<event>
 4    2  0.4681349E-007  0.9356987E+03  0.7818608E-02  0.9470996E-01
          1   -1    0    0  501    0  0.00000000000E+00  0.00000000000E+00  0.25562525928E+04  0.25562525928E+04  0.50400000000E-02 0. -1.
         -1   -1    0    0    0  501 -0.00000000000E+00 -0.00000000000E+00 -0.72682197682E+03  0.72682197684E+03  0.50400000000E-02 0.  1.
    8880023    1    1    2    0    0 -0.66018929089E+03  0.76628779807E+02 -0.35031781800E+03  0.99912694368E+03  0.65864270000E+03 0.  0.
    8880022    1    1    2    0    0  0.66018929089E+03 -0.76628779807E+02  0.21797484339E+04  0.22839476259E+04  0.15294330000E+03 0.  0.
<mgrwt>
<rscale>  0 0.86456349E+03</rscale>
<asrwt>0</asrwt>
<pdfrwt beam="1">  1        1 0.39326963E+00 0.93569871E+03</pdfrwt>
<pdfrwt beam="2">  1       -1 0.11181877E+00 0.93569871E+03</pdfrwt>
<totfact> 0.93654687E-01</totfact>
</mgrwt>
</event>
<event>
 4    2  0.4681349E-007  0.6675293E+03  0.7818608E-02  0.1017500E+00
          1   -1    0    0  501    0  0.00000000000E+00  0.00000000000E+00  0.95113946223E+03  0.95113946225E+03  0.50400000000E-02 0. -1.
         -1   -1    0    0    0  501 -0.00000000000E+00 -0.00000000000E+00 -0.20786174796E+03  0.20786174802E+03  0.50400000000E-02 0.  1.
    8880023    1    1    2    0    0  0.48608317224E+01  0.10845037956E+03  0.43052474319E+03  0.79432164346E+03  0.65864270000E+03 0.  1.
    8880022    1    1    2    0    0 -0.48608317224E+01 -0.10845037956E+03  0.31275297108E+03  0.36467956680E+03  0.15294330000E+03 0.  0.
<mgrwt>
<rscale>  0 0.48599827E+03</rscale>
<asrwt>0</asrwt>
<pdfrwt beam="1">  1        1 0.14632915E+00 0.66752926E+03</pdfrwt>
<pdfrwt beam="2">  1       -1 0.31978730E-01 0.66752926E+03</pdfrwt>
<totfact> 0.15403960E+02</totfact>
</mgrwt>
</event>
<event>
 4    2  0.4681349E-007  0.8401015E+03  0.7818608E-02  0.9629989E-01
         -1   -1    0    0    0  501 -0.00000000000E+00  0.00000000000E+00  0.22573327509E+03  0.22573327515E+03  0.50400000000E-02 0.  1.
          1   -1    0    0  501    0  0.00000000000E+00 -0.00000000000E+00 -0.26664697046E+04  0.26664697046E+04  0.50400000000E-02 0. -1.
    8880023    1    1    2    0    0  0.29630201248E+03  0.42914506044E+03 -0.78583729178E+03  0.11503524768E+04  0.65864270000E+03 0.  0.
    8880022    1    1    2    0    0 -0.29630201248E+03 -0.42914506044E+03 -0.16548991377E+04  0.17418505029E+04  0.15294330000E+03 0.  0.
<mgrwt>
<rscale>  0 0.75342725E+03</rscale>
<asrwt>0</asrwt>
<pdfrwt beam="1">  1        1 0.41022609E+00 0.84010152E+03</pdfrwt>
<pdfrwt beam="2">  1       -1 0.34728198E-01 0.84010152E+03</pdfrwt>
<totfact> 0.84999505E+00</totfact>
</mgrwt>
</event>
<event>
 4    2  0.4681349E-007  0.8418606E+03  0.7818608E-02  0.9626682E-01
         -1   -1    0    0    0  501 -0.00000000000E+00  0.00000000000E+00  0.54026335821E+03  0.54026335823E+03  0.50400000000E-02 0.  1.
          1   -1    0    0  501    0  0.00000000000E+00 -0.00000000000E+00 -0.17777916272E+04  0.17777916272E+04  0.50400000000E-02 0. -1.
    8880023    1    1    2    0    0 -0.51102197956E+03  0.11736972747E+03  0.12410958110E+03  0.85095975869E+03  0.65864270000E+03 0.  1.
    8880022    1    1    2    0    0  0.51102197956E+03 -0.11736972747E+03 -0.13616378501E+04  0.14670952267E+04  0.15294330000E+03 0.  0.
<mgrwt>
<rscale>  0 0.75555097E+03</rscale>
<asrwt>0</asrwt>
<pdfrwt beam="1">  1        1 0.27350640E+00 0.84186063E+03</pdfrwt>
<pdfrwt beam="2">  1       -1 0.83117440E-01 0.84186063E+03</pdfrwt>
<totfact> 0.62445701E+00</totfact>
</mgrwt>
</event>
<event>
 4    2  0.4681349E-007  0.6781910E+03  0.7818608E-02  0.1010366E+00
          1   -1    0    0  501    0  0.00000000000E+00  0.00000000000E+00  0.20954458181E+03  0.20954458187E+03  0.50400000000E-02 0. -1.
         -1   -1    0    0    0  501 -0.00000000000E+00 -0.00000000000E+00 -0.24203479791E+04  0.24203479791E+04  0.50400000000E-02 0.  1.
    8880023    1    1    2    0    0  0.11901034468E+03 -0.10940429421E+03 -0.22941216291E+04  0.23922660841E+04  0.65864270000E+03 0.  1.
    8880022    1    1    2    0    0 -0.11901034468E+03  0.10940429421E+03  0.83318231829E+02  0.23762647686E+03  0.15294330000E+03 0.  0.
<mgrwt>
<rscale>  0 0.51329427E+03</rscale>
<asrwt>0</asrwt>
<pdfrwt beam="1">  1        1 0.32237630E-01 0.67819095E+03</pdfrwt>
<pdfrwt beam="2">  1       -1 0.37236121E+00 0.67819095E+03</pdfrwt>
<totfact> 0.16564326E+00</totfact>
</mgrwt>
</event>
<event>
 4    2  0.4681349E-007  0.7247107E+03  0.7818608E-02  0.9906957E-01
          1   -1    0    0  501    0  0.00000000000E+00  0.00000000000E+00  0.21743503192E+04  0.21743503192E+04  0.50400000000E-02 0. -1.
         -1   -1    0    0    0  501 -0.00000000000E+00 -0.00000000000E+00 -0.30045873937E+03  0.30045873941E+03  0.50400000000E-02 0.  1.
    8880023    1    1    2    0    0 -0.28512256349E+03  0.10050133883E+03  0.17913906890E+03  0.74652287814E+03  0.65864270000E+03 0.  0.
    8880022    1    1    2    0    0  0.28512256349E+03 -0.10050133883E+03  0.16947525109E+04  0.17282861805E+04  0.15294330000E+03 0.  0.
<mgrwt>
<rscale>  0 0.59925286E+03</rscale>
<asrwt>0</asrwt>
<pdfrwt beam="1">  1        1 0.33451542E+00 0.72471070E+03</pdfrwt>
<pdfrwt beam="2">  1       -1 0.46224423E-01 0.72471070E+03</pdfrwt>
<totfact> 0.11111913E+01</totfact>
</mgrwt>
</event>
<event>
 4    2  0.4681349E-007  0.9217455E+03  0.7818608E-02  0.9491988E-01
         -1   -1    0    0    0  501 -0.00000000000E+00  0.00000000000E+00  0.23976923696E+03  0.23976923701E+03  0.50400000000E-02 0.  1.
          1   -1    0    0  501    0  0.00000000000E+00 -0.00000000000E+00 -0.49188501800E+04  0.49188501800E+04  0.50400000000E-02 0. -1.
    8880023    1    1    2    0    0 -0.25418901180E+03  0.59261490833E+03 -0.79146188351E+03  0.12149183522E+04  0.65864270000E+03 0.  1.
    8880022    1    1    2    0    0  0.25418901180E+03 -0.59261490833E+03 -0.38876190595E+04  0.39437010648E+04  0.15294330000E+03 0.  0.
<mgrwt>
<rscale>  0 0.84877107E+03</rscale>
<asrwt>0</asrwt>
<pdfrwt beam="1">  1        1 0.75674611E+00 0.92174546E+03</pdfrwt>
<pdfrwt beam="2">  1       -1 0.36887579E-01 0.92174546E+03</pdfrwt>
<totfact> 0.85814772E-02</totfact>
</mgrwt>
</event>
<event>
 4    2  0.4681349E-007  0.7200878E+03  0.7818608E-02  0.9922289E-01
         -1   -1    0    0    0  501 -0.00000000000E+00  0.00000000000E+00  0.16434050744E+03  0.16434050752E+03  0.50400000000E-02 0.  1.
          1   -1    0    0  501    0  0.00000000000E+00 -0.00000000000E+00 -0.26481137258E+04  0.26481137258E+04  0.50400000000E-02 0. -1.
    8880023    1    1    2    0    0 -0.21644861080E+02  0.29025471025E+03 -0.71999972300E+03  0.10182956860E+04  0.65864270000E+03 0.  1.
    8880022    1    1    2    0    0  0.21644861080E+02 -0.29025471025E+03 -0.17637734953E+04  0.17941585473E+04  0.15294330000E+03 0.  0.
<mgrwt>
<rscale>  0 0.59193131E+03</rscale>
<asrwt>0</asrwt>
<pdfrwt beam="1">  1        1 0.40740208E+00 0.72008784E+03</pdfrwt>
<pdfrwt beam="2">  1       -1 0.25283157E-01 0.72008784E+03</pdfrwt>
<totfact> 0.15503285E+01</totfact>
</mgrwt>
</event>
<event>
 4    2  0.4681349E-007  0.6669925E+03  0.7818608E-02  0.1017917E+00
          1   -1    0    0  501    0  0.00000000000E+00  0.00000000000E+00  0.23604941102E+03  0.23604941108E+03  0.50400000000E-02 0. -1.
         -1   -1    0    0    0  501 -0.00000000000E+00 -0.00000000000E+00 -0.11705468134E+04  0.11705468134E+04  0.50400000000E-02 0.  1.
    8880023    1    1    2    0    0 -0.13350473847E+02  0.10435792760E+03 -0.10065351384E+04  0.12074733965E+04  0.65864270000E+03 0.  1.
    8880022    1    1    2    0    0  0.13350473847E+02 -0.10435792760E+03  0.72037735994E+02  0.19912282799E+03  0.15294330000E+03 0.  0.
<mgrwt>
<rscale>  0 0.48445770E+03</rscale>
<asrwt>0</asrwt>
<pdfrwt beam="1">  1        1 0.36315294E-01 0.66699252E+03</pdfrwt>
<pdfrwt beam="2">  1       -1 0.18008412E+00 0.66699252E+03</pdfrwt>
<totfact> 0.25719769E+01</totfact>
</mgrwt>
</event>
<event>
 4    2  0.4681349E-007  0.1207220E+04  0.7818608E-02  0.9150136E-01
          1   -1    0    0  501    0  0.00000000000E+00  0.00000000000E+00  0.32368835282E+04  0.32368835282E+04  0.50400000000E-02 0. -1.
         -1   -1    0    0    0  501 -0.00000000000E+00 -0.00000000000E+00 -0.46299425038E+03  0.46299425041E+03  0.50400000000E-02 0.  1.
    8880023    1    1    2    0    0  0.97521827240E+03 -0.26929330602E+03  0.22427629284E+04  0.25470306875E+04  0.65864270000E+03 0. -1.
    8880022    1    1    2    0    0 -0.97521827240E+03  0.26929330602E+03  0.53112634936E+03  0.11528470911E+04  0.15294330000E+03 0.  0.
<mgrwt>
<rscale>  0 0.11583268E+04</rscale>
<asrwt>0</asrwt>
<pdfrwt beam="1">  1        1 0.49798210E+00 0.12072199E+04</pdfrwt>
<pdfrwt beam="2">  1       -1 0.71229883E-01 0.12072199E+04</pdfrwt>
<totfact> 0.79474755E-01</totfact>
</mgrwt>
</event>
<event>
 4    2  0.4681349E-007  0.7023123E+03  0.7818608E-02  0.9987741E-01
         -1   -1    0    0    0  501 -0.00000000000E+00  0.00000000000E+00  0.47584941848E+03  0.47584941851E+03  0.50400000000E-02 0.  1.
          1   -1    0    0  501    0  0.00000000000E+00 -0.00000000000E+00 -0.60057352020E+03  0.60057352022E+03  0.50400000000E-02 0. -1.
    8880023    1    1    2    0    0  0.23512300811E+03  0.64416849277E+02 -0.27199010935E+03  0.75314088009E+03  0.65864270000E+03 0. -1.
    8880022    1    1    2    0    0 -0.23512300811E+03 -0.64416849277E+02  0.14726600764E+03  0.32328205863E+03  0.15294330000E+03 0.  0.
<mgrwt>
<rscale>  0 0.56191062E+03</rscale>
<asrwt>0</asrwt>
<pdfrwt beam="1">  1        1 0.92395926E-01 0.70231230E+03</pdfrwt>
<pdfrwt beam="2">  1       -1 0.73207603E-01 0.70231230E+03</pdfrwt>
<totfact> 0.65890094E+01</totfact>
</mgrwt>
</event>
<event>
 4    2  0.4681349E-007  0.8959565E+03  0.7818608E-02  0.9532554E-01
          1   -1    0    0  501    0  0.00000000000E+00  0.00000000000E+00  0.53847704651E+03  0.53847704653E+03  0.50400000000E-02 0. -1.
         -1   -1    0    0    0  501 -0.00000000000E+00 -0.00000000000E+00 -0.31716024168E+04  0.31716024168E+04  0.50400000000E-02 0.  1.
    8880023    1    1    2    0    0  0.58451703578E+03  0.16512954310E+03 -0.28955311082E+04  0.30309797980E+04  0.65864270000E+03 0.  1.
    8880022    1    1    2    0    0 -0.58451703578E+03 -0.16512954310E+03  0.26240573792E+03  0.67909966532E+03  0.15294330000E+03 0.  0.
<mgrwt>
<rscale>  0 0.81925709E+03</rscale>
<asrwt>0</asrwt>
<pdfrwt beam="1">  1        1 0.82842624E-01 0.89595655E+03</pdfrwt>
<pdfrwt beam="2">  1       -1 0.48793882E+00 0.89595655E+03</pdfrwt>
<totfact> 0.74360206E-02</totfact>
</mgrwt>
</event>
<event>
 4    2  0.4681349E-007  0.6833435E+03  0.7818608E-02  0.1007492E+00
          1   -1    0    0  501    0  0.00000000000E+00  0.00000000000E+00  0.10926027559E+04  0.10926027559E+04  0.50400000000E-02 0. -1.
         -1   -1    0    0    0  501 -0.00000000000E+00 -0.00000000000E+00 -0.20490370158E+03  0.20490370164E+03  0.50400000000E-02 0.  1.
    8880023    1    1    2    0    0 -0.74778956063E+02 -0.16600063107E+03  0.51608779648E+03  0.85633224961E+03  0.65864270000E+03 0.  1.
    8880022    1    1    2    0    0  0.74778956063E+02  0.16600063107E+03  0.37161125784E+03  0.44117420795E+03  0.15294330000E+03 0. -1.
<mgrwt>
<rscale>  0 0.52483590E+03</rscale>
<asrwt>0</asrwt>
<pdfrwt beam="1">  1        1 0.16809273E+00 0.68334348E+03</pdfrwt>
<pdfrwt beam="2">  1       -1 0.31523647E-01 0.68334348E+03</pdfrwt>
<totfact> 0.12289601E+02</totfact>
</mgrwt>
</event>
<event>
 4    2  0.4681349E-007  0.6962959E+03  0.7818608E-02  0.1001293E+00
          1   -1    0    0  501    0  0.00000000000E+00  0.00000000000E+00  0.29624570873E+04  0.29624570873E+04  0.50400000000E-02 0. -1.
         -1   -1    0    0    0  501 -0.00000000000E+00 -0.00000000000E+00 -0.21047165862E+03  0.21047165868E+03  0.50400000000E-02 0.  1.
    8880023    1    1    2    0    0 -0.11516326600E+03  0.19430711561E+03  0.39564452985E+03  0.80085119297E+03  0.65864270000E+03 0.  1.
    8880022    1    1    2    0    0  0.11516326600E+03 -0.19430711561E+03  0.23563408988E+04  0.23720775530E+04  0.15294330000E+03 0.  0.
<mgrwt>
<rscale>  0 0.55086976E+03</rscale>
<asrwt>0</asrwt>
<pdfrwt beam="1">  1        1 0.45576261E+00 0.69629594E+03</pdfrwt>
<pdfrwt beam="2">  1       -1 0.32380256E-01 0.69629594E+03</pdfrwt>
<totfact> 0.61081622E+00</totfact>
</mgrwt>
</event>
<event>
 4    2  0.4681349E-007  0.6865927E+03  0.7818608E-02  0.1005816E+00
          1   -1    0    0  501    0  0.00000000000E+00  0.00000000000E+00  0.22603836604E+04  0.22603836604E+04  0.50400000000E-02 0. -1.
         -1   -1    0    0    0  501 -0.00000000000E+00 -0.00000000000E+00 -0.37393865395E+03  0.37393865399E+03  0.50400000000E-02 0.  1.
    8880023    1    1    2    0    0 -0.19172217551E+03 -0.29016375210E+02 -0.44135572554E+02  0.68800980926E+03  0.65864270000E+03 0.  1.
    8880022    1    1    2    0    0  0.19172217551E+03  0.29016375210E+02  0.19305805790E+04  0.19463125052E+04  0.15294330000E+03 0.  0.
<mgrwt>
<rscale>  0 0.53171952E+03</rscale>
<asrwt>0</asrwt>
<pdfrwt beam="1">  1        1 0.34775134E+00 0.68659271E+03</pdfrwt>
<pdfrwt beam="2">  1       -1 0.57529023E-01 0.68659271E+03</pdfrwt>
<totfact> 0.64571584E+00</totfact>
</mgrwt>
</event>
<event>
 4    2  0.4681349E-007  0.7238436E+03  0.7818608E-02  0.9909789E-01
          1   -1    0    0  501    0  0.00000000000E+00  0.00000000000E+00  0.16538505879E+04  0.16538505879E+04  0.50400000000E-02 0. -1.
         -1   -1    0    0    0  501 -0.00000000000E+00 -0.00000000000E+00 -0.17484818306E+03  0.17484818313E+03  0.50400000000E-02 0.  1.
    8880023    1    1    2    0    0  0.29852086898E+03  0.32009988657E+02  0.86127962950E+03  0.11250565119E+04  0.65864270000E+03 0.  1.
    8880022    1    1    2    0    0 -0.29852086898E+03 -0.32009988657E+02  0.61772277531E+03  0.70364225907E+03  0.15294330000E+03 0. -1.
<mgrwt>
<rscale>  0 0.59789216E+03</rscale>
<asrwt>0</asrwt>
<pdfrwt beam="1">  1        1 0.25443856E+00 0.72384360E+03</pdfrwt>
<pdfrwt beam="2">  1       -1 0.26899720E-01 0.72384360E+03</pdfrwt>
<totfact> 0.65169137E+01</totfact>
</mgrwt>
</event>
<event>
 4    2  0.4681349E-007  0.7793309E+03  0.7818608E-02  0.9757411E-01
         -1   -1    0    0    0  501 -0.00000000000E+00  0.00000000000E+00  0.23261446615E+03  0.23261446621E+03  0.50400000000E-02 0.  1.
          1   -1    0    0  501    0  0.00000000000E+00 -0.00000000000E+00 -0.17601507347E+04  0.17601507347E+04  0.50400000000E-02 0. -1.
    8880023    1    1    2    0    0 -0.39640894962E+03  0.12808743673E+03 -0.67228838957E+03  0.10292367715E+04  0.65864270000E+03 0.  0.
    8880022    1    1    2    0    0  0.39640894962E+03 -0.12808743673E+03 -0.85524787897E+03  0.96352842942E+03  0.15294330000E+03 0.  1.
<mgrwt>
<rscale>  0 0.67699060E+03</rscale>
<asrwt>0</asrwt>
<pdfrwt beam="1">  1        1 0.27079241E+00 0.77933090E+03</pdfrwt>
<pdfrwt beam="2">  1       -1 0.35786842E-01 0.77933090E+03</pdfrwt>
<totfact> 0.33307688E+01</totfact>
</mgrwt>
</event>
<event>
 4    2  0.4681349E-007  0.8069377E+03  0.7818608E-02  0.9695991E-01
         -1   -1    0    0    0  501 -0.00000000000E+00  0.00000000000E+00  0.10260511949E+04  0.10260511949E+04  0.50400000000E-02 0.  1.
          1   -1    0    0  501    0  0.00000000000E+00 -0.00000000000E+00 -0.19097424284E+04  0.19097424284E+04  0.50400000000E-02 0. -1.
    8880023    1    1    2    0    0  0.78712036296E+02 -0.45950256943E+03  0.82740357601E+03  0.11557443834E+04  0.65864270000E+03 0.  1.
    8880022    1    1    2    0    0 -0.78712036296E+02  0.45950256943E+03 -0.17110948095E+04  0.17800492398E+04  0.15294330000E+03 0.  0.
<mgrwt>
<rscale>  0 0.71255967E+03</rscale>
<asrwt>0</asrwt>
<pdfrwt beam="1">  1        1 0.29380653E+00 0.80693767E+03</pdfrwt>
<pdfrwt beam="2">  1       -1 0.15785403E+00 0.80693767E+03</pdfrwt>
<totfact> 0.10876219E+00</totfact>
</mgrwt>
</event>
<event>
 4    2  0.4681349E-007  0.6870762E+03  0.7818608E-02  0.1005574E+00
          1   -1    0    0  501    0  0.00000000000E+00  0.00000000000E+00  0.10037327406E+04  0.10037327406E+04  0.50400000000E-02 0. -1.
         -1   -1    0    0    0  501 -0.00000000000E+00 -0.00000000000E+00 -0.65783118490E+03  0.65783118492E+03  0.50400000000E-02 0.  1.
    8880023    1    1    2    0    0 -0.93528501706E+02 -0.17180194196E+03 -0.45432302410E+03  0.82370085855E+03  0.65864270000E+03 0.  1.
    8880022    1    1    2    0    0  0.93528501706E+02  0.17180194196E+03  0.80022457978E+03  0.83786306697E+03  0.15294330000E+03 0.  0.
<mgrwt>
<rscale>  0 0.53272102E+03</rscale>
<asrwt>0</asrwt>
<pdfrwt beam="1">  1        1 0.15442042E+00 0.68707619E+03</pdfrwt>
<pdfrwt beam="2">  1       -1 0.10120480E+00 0.68707619E+03</pdfrwt>
<totfact> 0.14487984E+01</totfact>
</mgrwt>
</event>
<event>
 4    2  0.4681349E-007  0.9177435E+03  0.7818608E-02  0.9498128E-01
          1   -1    0    0  501    0  0.00000000000E+00  0.00000000000E+00  0.91431543995E+03  0.91431543996E+03  0.50400000000E-02 0. -1.
         -1   -1    0    0    0  501 -0.00000000000E+00 -0.00000000000E+00 -0.90756363328E+03  0.90756363330E+03  0.50400000000E-02 0.  1.
    8880023    1    1    2    0    0 -0.26088807363E+02 -0.63856265424E+03 -0.44946763011E+03  0.10218973755E+04  0.65864270000E+03 0.  0.
    8880022    1    1    2    0    0  0.26088807363E+02  0.63856265424E+03  0.45621943678E+03  0.79998169777E+03  0.15294330000E+03 0.  0.
<mgrwt>
<rscale>  0 0.84422003E+03</rscale>
<asrwt>0</asrwt>
<pdfrwt beam="1">  1        1 0.14066391E+00 0.91774348E+03</pdfrwt>
<pdfrwt beam="2">  1       -1 0.13962517E+00 0.91774348E+03</pdfrwt>
<totfact> 0.75620796E+00</totfact>
</mgrwt>
</event>
<event>
 4    2  0.4681349E-007  0.6681343E+03  0.7818608E-02  0.1017037E+00
         -1   -1    0    0    0  501 -0.00000000000E+00  0.00000000000E+00  0.40980167276E+03  0.40980167279E+03  0.50400000000E-02 0.  1.
          1   -1    0    0  501    0  0.00000000000E+00 -0.00000000000E+00 -0.63279484398E+03  0.63279484400E+03  0.50400000000E-02 0. -1.
    8880023    1    1    2    0    0  0.94220099076E+02  0.60957122862E+02  0.92457809463E+02  0.67450118658E+03  0.65864270000E+03 0.  1.
    8880022    1    1    2    0    0 -0.94220099076E+02 -0.60957122862E+02 -0.31545098068E+03  0.36809533022E+03  0.15294330000E+03 0.  0.
<mgrwt>
<rscale>  0 0.48771125E+03</rscale>
<asrwt>0</asrwt>
<pdfrwt beam="1">  1        1 0.97353054E-01 0.66813427E+03</pdfrwt>
<pdfrwt beam="2">  1       -1 0.63046411E-01 0.66813427E+03</pdfrwt>
<totfact> 0.82959347E+01</totfact>
</mgrwt>
</event>
<event>
 4    2  0.4681349E-007  0.1611598E+04  0.7818608E-02  0.8834604E-01
          1   -1    0    0  501    0  0.00000000000E+00  0.00000000000E+00  0.22303129935E+04  0.22303129935E+04  0.50400000000E-02 0. -1.
         -1   -1    0    0    0  501 -0.00000000000E+00 -0.00000000000E+00 -0.16088135078E+04  0.16088135078E+04  0.50400000000E-02 0.  1.
    8880023    1    1    2    0    0 -0.10109542647E+04 -0.10683677164E+04  0.14292851733E+04  0.21540901596E+04  0.65864270000E+03 0.  0.
    8880022    1    1    2    0    0  0.10109542647E+04  0.10683677164E+04 -0.80778568751E+03  0.16850363417E+04  0.15294330000E+03 0.  0.
<mgrwt>
<rscale>  0 0.15773186E+04</rscale>
<asrwt>0</asrwt>
<pdfrwt beam="1">  1        1 0.34312508E+00 0.16115981E+04</pdfrwt>
<pdfrwt beam="2">  1       -1 0.24750977E+00 0.16115981E+04</pdfrwt>
<totfact> 0.13992550E-01</totfact>
</mgrwt>
</event>
<event>
 4    2  0.4681349E-007  0.6704626E+03  0.7818608E-02  0.1015333E+00
          1   -1    0    0  501    0  0.00000000000E+00  0.00000000000E+00  0.19596209468E+04  0.19596209468E+04  0.50400000000E-02 0. -1.
         -1   -1    0    0    0  501 -0.00000000000E+00 -0.00000000000E+00 -0.46461890566E+03  0.46461890569E+03  0.50400000000E-02 0.  1.
    8880023    1    1    2    0    0 -0.64962422437E+02  0.10719044755E+03 -0.21403775315E+03  0.70379846150E+03  0.65864270000E+03 0.  1.
    8880022    1    1    2    0    0  0.64962422437E+02 -0.10719044755E+03  0.17090397943E+04  0.17204413910E+04  0.15294330000E+03 0.  0.
<mgrwt>
<rscale>  0 0.49408900E+03</rscale>
<asrwt>0</asrwt>
<pdfrwt beam="1">  1        1 0.30148015E+00 0.67046261E+03</pdfrwt>
<pdfrwt beam="2">  1       -1 0.71479832E-01 0.67046261E+03</pdfrwt>
<totfact> 0.66652833E+00</totfact>
</mgrwt>
</event>
<event>
 4    2  0.4681349E-007  0.7388351E+03  0.7818608E-02  0.9863353E-01
         -1   -1    0    0    0  501 -0.00000000000E+00  0.00000000000E+00  0.34163286313E+03  0.34163286317E+03  0.50400000000E-02 0.  1.
          1   -1    0    0  501    0  0.00000000000E+00 -0.00000000000E+00 -0.14833404869E+04  0.14833404869E+04  0.50400000000E-02 0. -1.
    8880023    1    1    2    0    0 -0.23941035518E+03  0.23398670989E+03 -0.13233421722E+03  0.75059286560E+03  0.65864270000E+03 0.  1.
    8880022    1    1    2    0    0  0.23941035518E+03 -0.23398670989E+03 -0.10093734065E+04  0.10743804845E+04  0.15294330000E+03 0.  0.
<mgrwt>
<rscale>  0 0.62070683E+03</rscale>
<asrwt>0</asrwt>
<pdfrwt beam="1">  1        1 0.22820623E+00 0.73883510E+03</pdfrwt>
<pdfrwt beam="2">  1       -1 0.52558903E-01 0.73883510E+03</pdfrwt>
<totfact> 0.25348294E+01</totfact>
</mgrwt>
</event>
<event>
 4    2  0.4681349E-007  0.8052550E+03  0.7818608E-02  0.9699547E-01
         -1   -1    0    0    0  501 -0.00000000000E+00  0.00000000000E+00  0.38054887984E+03  0.38054887987E+03  0.50400000000E-02 0.  1.
          1   -1    0    0  501    0  0.00000000000E+00 -0.00000000000E+00 -0.15667306357E+04  0.15667306357E+04  0.50400000000E-02 0. -1.
    8880023    1    1    2    0    0  0.68670997010E+02  0.45815908012E+03 -0.17426576232E+03  0.82389575233E+03  0.65864270000E+03 0.  1.
    8880022    1    1    2    0    0 -0.68670997010E+02 -0.45815908012E+03 -0.10119159936E+04  0.11233837633E+04  0.15294330000E+03 0.  0.
<mgrwt>
<rscale>  0 0.71043787E+03</rscale>
<asrwt>0</asrwt>
<pdfrwt beam="1">  1        1 0.24103548E+00 0.80525502E+03</pdfrwt>
<pdfrwt beam="2">  1       -1 0.58545982E-01 0.80525502E+03</pdfrwt>
<totfact> 0.17888467E+01</totfact>
</mgrwt>
</event>
<event>
 4    2  0.4681349E-007  0.6711420E+03  0.7818608E-02  0.1014857E+00
          1   -1    0    0  501    0  0.00000000000E+00  0.00000000000E+00  0.74504757622E+03  0.74504757623E+03  0.50400000000E-02 0. -1.
         -1   -1    0    0    0  501 -0.00000000000E+00 -0.00000000000E+00 -0.53640813918E+03  0.53640813920E+03  0.50400000000E-02 0.  1.
    8880023    1    1    2    0    0  0.12886530954E+03  0.38876427025E+01 -0.29981760764E+03  0.73506610987E+03  0.65864270000E+03 0.  1.
    8880022    1    1    2    0    0 -0.12886530954E+03 -0.38876427025E+01  0.50845704468E+03  0.54638960556E+03  0.15294330000E+03 0.  0.
<mgrwt>
<rscale>  0 0.49589074E+03</rscale>
<asrwt>0</asrwt>
<pdfrwt beam="1">  1        1 0.11462270E+00 0.67114200E+03</pdfrwt>
<pdfrwt beam="2">  1       -1 0.82524329E-01 0.67114200E+03</pdfrwt>
<totfact> 0.37294616E+01</totfact>
</mgrwt>
</event>
<event>
 4    2  0.4681349E-007  0.6595142E+03  0.7818608E-02  0.1024660E+00
          1   -1    0    0  501    0  0.00000000000E+00  0.00000000000E+00  0.11131685327E+04  0.11131685328E+04  0.50400000000E-02 0. -1.
         -1   -1    0    0    0  501 -0.00000000000E+00 -0.00000000000E+00 -0.19813590052E+03  0.19813590059E+03  0.50400000000E-02 0.  1.
    8880023    1    1    2    0    0  0.29461865643E+02 -0.16757350316E+02  0.39627744767E+03  0.76941200414E+03  0.65864270000E+03 0.  0.
    8880022    1    1    2    0    0 -0.29461865643E+02  0.16757350316E+02  0.51875518455E+03  0.54189242920E+03  0.15294330000E+03 0.  0.
<mgrwt>
<rscale>  0 0.46041925E+03</rscale>
<asrwt>0</asrwt>
<pdfrwt beam="1">  1        1 0.17125670E+00 0.65951423E+03</pdfrwt>
<pdfrwt beam="2">  1       -1 0.30482446E-01 0.65951423E+03</pdfrwt>
<totfact> 0.12607972E+02</totfact>
</mgrwt>
</event>
<event>
 4    2  0.4681349E-007  0.1360422E+04  0.7818608E-02  0.9015062E-01
         -1   -1    0    0    0  501 -0.00000000000E+00  0.00000000000E+00  0.70932126633E+03  0.70932126634E+03  0.50400000000E-02 0.  1.
          1   -1    0    0  501    0  0.00000000000E+00 -0.00000000000E+00 -0.28710912581E+04  0.28710912581E+04  0.50400000000E-02 0. -1.
    8880023    1    1    2    0    0  0.96751440498E+03 -0.69343634696E+03 -0.34577081122E+03  0.14036757999E+04  0.65864270000E+03 0.  0.
    8880022    1    1    2    0    0 -0.96751440498E+03  0.69343634696E+03 -0.18159991806E+04  0.21767367245E+04  0.15294330000E+03 0.  0.
<mgrwt>
<rscale>  0 0.13184480E+04</rscale>
<asrwt>0</asrwt>
<pdfrwt beam="1">  1        1 0.44170634E+00 0.13604221E+04</pdfrwt>
<pdfrwt beam="2">  1       -1 0.10912635E+00 0.13604221E+04</pdfrwt>
<totfact> 0.56072078E-01</totfact>
</mgrwt>
</event>
<event>
 4    2  0.4681349E-007  0.7874535E+03  0.7818608E-02  0.9738611E-01
         -1   -1    0    0    0  501 -0.00000000000E+00  0.00000000000E+00  0.49496841704E+03  0.49496841706E+03  0.50400000000E-02 0.  1.
          1   -1    0    0  501    0  0.00000000000E+00 -0.00000000000E+00 -0.10224836268E+04  0.10224836268E+04  0.50400000000E-02 0. -1.
    8880023    1    1    2    0    0 -0.43127640628E+03  0.16536340423E+02  0.39734099586E+02  0.78845532156E+03  0.65864270000E+03 0.  1.
    8880022    1    1    2    0    0  0.43127640628E+03 -0.16536340423E+02 -0.56724930933E+03  0.72899672229E+03  0.15294330000E+03 0.  0.
<mgrwt>
<rscale>  0 0.68763707E+03</rscale>
<asrwt>0</asrwt>
<pdfrwt beam="1">  1        1 0.15730517E+00 0.78745349E+03</pdfrwt>
<pdfrwt beam="2">  1       -1 0.76148987E-01 0.78745349E+03</pdfrwt>
<totfact> 0.25764138E+01</totfact>
</mgrwt>
</event>
<event>
 4    2  0.4681349E-007  0.8437484E+03  0.7818608E-02  0.9623152E-01
          1   -1    0    0  501    0  0.00000000000E+00  0.00000000000E+00  0.11769924898E+04  0.11769924898E+04  0.50400000000E-02 0. -1.
         -1   -1    0    0    0  501 -0.00000000000E+00 -0.00000000000E+00 -0.76899350821E+03  0.76899350823E+03  0.50400000000E-02 0.  1.
    8880023    1    1    2    0    0 -0.24427793981E+03  0.46736439951E+03 -0.42776525627E+03  0.94598864398E+03  0.65864270000E+03 0.  0.
    8880022    1    1    2    0    0  0.24427793981E+03 -0.46736439951E+03  0.83576423784E+03  0.99999735403E+03  0.15294330000E+03 0.  0.
<mgrwt>
<rscale>  0 0.75782575E+03</rscale>
<asrwt>0</asrwt>
<pdfrwt beam="1">  1        1 0.18107577E+00 0.84374842E+03</pdfrwt>
<pdfrwt beam="2">  1       -1 0.11830669E+00 0.84374842E+03</pdfrwt>
<totfact> 0.72800776E+00</totfact>
</mgrwt>
</event>
<event>
 4    2  0.4681349E-007  0.1380001E+04  0.7818608E-02  0.8999381E-01
         -1   -1    0    0    0  501 -0.00000000000E+00  0.00000000000E+00  0.49989719384E+03  0.49989719387E+03  0.50400000000E-02 0.  1.
          1   -1    0    0  501    0  0.00000000000E+00 -0.00000000000E+00 -0.39257744961E+04  0.39257744961E+04  0.50400000000E-02 0. -1.
    8880023    1    1    2    0    0 -0.12126493933E+04  0.85396733831E+01 -0.26212329591E+04  0.29623071936E+04  0.65864270000E+03 0. -1.
    8880022    1    1    2    0    0  0.12126493933E+04 -0.85396733831E+01 -0.80464434317E+03  0.14633644964E+04  0.15294330000E+03 0.  1.
<mgrwt>
<rscale>  0 0.13387598E+04</rscale>
<asrwt>0</asrwt>
<pdfrwt beam="1">  1        1 0.60396529E+00 0.13800006E+04</pdfrwt>
<pdfrwt beam="2">  1       -1 0.76907263E-01 0.13800006E+04</pdfrwt>
<totfact> 0.18669568E-01</totfact>
</mgrwt>
</event>
<event>
 4    2  0.4681349E-007  0.7698131E+03  0.7818608E-02  0.9780334E-01
          1   -1    0    0  501    0  0.00000000000E+00  0.00000000000E+00  0.70444124675E+03  0.70444124676E+03  0.50400000000E-02 0. -1.
         -1   -1    0    0    0  501 -0.00000000000E+00 -0.00000000000E+00 -0.50894539375E+03  0.50894539377E+03  0.50400000000E-02 0.  1.
    8880023    1    1    2    0    0 -0.37163325370E+03 -0.14384251047E+03  0.14800061994E+03  0.78391092149E+03  0.65864270000E+03 0. -1.
    8880022    1    1    2    0    0  0.37163325370E+03  0.14384251047E+03  0.47495233058E+02  0.42947571904E+03  0.15294330000E+03 0.  1.
<mgrwt>
<rscale>  0 0.66428676E+03</rscale>
<asrwt>0</asrwt>
<pdfrwt beam="1">  1        1 0.10837558E+00 0.76981306E+03</pdfrwt>
<pdfrwt beam="2">  1       -1 0.78299292E-01 0.76981306E+03</pdfrwt>
<totfact> 0.44985513E+01</totfact>
</mgrwt>
</event>
<event>
 4    2  0.4681349E-007  0.7171402E+03  0.7818608E-02  0.9932384E-01
         -1   -1    0    0    0  501 -0.00000000000E+00  0.00000000000E+00  0.29400666725E+03  0.29400666729E+03  0.50400000000E-02 0.  1.
          1   -1    0    0  501    0  0.00000000000E+00 -0.00000000000E+00 -0.22013978130E+04  0.22013978130E+04  0.50400000000E-02 0. -1.
    8880023    1    1    2    0    0 -0.27892204566E+03  0.51791434570E+02 -0.18159824679E+03  0.73977563474E+03  0.65864270000E+03 0.  0.
    8880022    1    1    2    0    0  0.27892204566E+03 -0.51791434570E+02 -0.17257928990E+04  0.17556288456E+04  0.15294330000E+03 0.  0.
<mgrwt>
<rscale>  0 0.58717169E+03</rscale>
<asrwt>0</asrwt>
<pdfrwt beam="1">  1        1 0.33867658E+00 0.71714020E+03</pdfrwt>
<pdfrwt beam="2">  1       -1 0.45231796E-01 0.71714020E+03</pdfrwt>
<totfact> 0.11110606E+01</totfact>
</mgrwt>
</event>
<event>
 4    2  0.4681349E-007  0.8926977E+03  0.7818608E-02  0.9537857E-01
         -1   -1    0    0    0  501 -0.00000000000E+00  0.00000000000E+00  0.95106933791E+03  0.95106933793E+03  0.50400000000E-02 0.  1.
          1   -1    0    0  501    0  0.00000000000E+00 -0.00000000000E+00 -0.94851105784E+03  0.94851105785E+03  0.50400000000E-02 0. -1.
    8880023    1    1    2    0    0 -0.13401178806E+03 -0.58748604137E+03  0.56893732506E+03  0.10585834375E+04  0.65864270000E+03 0.  0.
    8880022    1    1    2    0    0  0.13401178806E+03  0.58748604137E+03 -0.56637904498E+03  0.84099695823E+03  0.15294330000E+03 0.  0.
<mgrwt>
<rscale>  0 0.81549386E+03</rscale>
<asrwt>0</asrwt>
<pdfrwt beam="1">  1        1 0.14592478E+00 0.89269772E+03</pdfrwt>
<pdfrwt beam="2">  1       -1 0.14631836E+00 0.89269772E+03</pdfrwt>
<totfact> 0.62917892E+00</totfact>
</mgrwt>
</event>
<event>
 4    2  0.4681349E-007  0.6638720E+03  0.7818608E-02  0.1020499E+00
         -1   -1    0    0    0  501 -0.00000000000E+00  0.00000000000E+00  0.60091805231E+03  0.60091805233E+03  0.50400000000E-02 0.  1.
          1   -1    0    0  501    0  0.00000000000E+00 -0.00000000000E+00 -0.77272011107E+03  0.77272011108E+03  0.50400000000E-02 0. -1.
    8880023    1    1    2    0    0  0.64538001469E+02  0.52447230402E+02  0.40058136404E+03  0.77536539844E+03  0.65864270000E+03 0.  1.
    8880022    1    1    2    0    0 -0.64538001469E+02 -0.52447230402E+02 -0.57238342280E+03  0.59827276498E+03  0.15294330000E+03 0.  0.
<mgrwt>
<rscale>  0 0.47506942E+03</rscale>
<asrwt>0</asrwt>
<pdfrwt beam="1">  1        1 0.11888002E+00 0.66387203E+03</pdfrwt>
<pdfrwt beam="2">  1       -1 0.92448930E-01 0.66387203E+03</pdfrwt>
<totfact> 0.27550759E+01</totfact>
</mgrwt>
</event>
<event>
 4    2  0.4681349E-007  0.7295014E+03  0.7818608E-02  0.9891657E-01
          1   -1    0    0  501    0  0.00000000000E+00  0.00000000000E+00  0.18901052772E+04  0.18901052772E+04  0.50400000000E-02 0. -1.
         -1   -1    0    0    0  501 -0.00000000000E+00 -0.00000000000E+00 -0.21429576138E+03  0.21429576143E+03  0.50400000000E-02 0.  1.
    8880023    1    1    2    0    0 -0.32794307152E+02  0.31190792056E+03  0.51681203114E+03  0.89401728131E+03  0.65864270000E+03 0.  1.
    8880022    1    1    2    0    0  0.32794307152E+02 -0.31190792056E+03  0.11589974847E+04  0.12103837573E+04  0.15294330000E+03 0.  0.
<mgrwt>
<rscale>  0 0.60667323E+03</rscale>
<asrwt>0</asrwt>
<pdfrwt beam="1">  1        1 0.29078543E+00 0.72950135E+03</pdfrwt>
<pdfrwt beam="2">  1       -1 0.32968578E-01 0.72950135E+03</pdfrwt>
<totfact> 0.31730076E+01</totfact>
</mgrwt>
</event>
<event>
 4    2  0.4681349E-007  0.9747224E+03  0.7818608E-02  0.9415402E-01
         -1   -1    0    0    0  501 -0.00000000000E+00  0.00000000000E+00  0.17580386529E+04  0.17580386529E+04  0.50400000000E-02 0.  1.
          1   -1    0    0  501    0  0.00000000000E+00 -0.00000000000E+00 -0.24256225415E+04  0.24256225415E+04  0.50400000000E-02 0. -1.
    8880023    1    1    2    0    0  0.20284850491E+03 -0.68929383992E+03  0.15592164461E+04  0.18388147394E+04  0.65864270000E+03 0.  0.
    8880022    1    1    2    0    0 -0.20284850491E+03  0.68929383992E+03 -0.22268003347E+04  0.23448464550E+04  0.15294330000E+03 0.  0.
<mgrwt>
<rscale>  0 0.90818903E+03</rscale>
<asrwt>0</asrwt>
<pdfrwt beam="1">  1        1 0.37317270E+00 0.97472238E+03</pdfrwt>
<pdfrwt beam="2">  1       -1 0.27046748E+00 0.97472238E+03</pdfrwt>
<totfact> 0.80676328E-02</totfact>
</mgrwt>
</event>
<event>
 4    2  0.4681349E-007  0.1052008E+04  0.7818608E-02  0.9316472E-01
          1   -1    0    0  501    0  0.00000000000E+00  0.00000000000E+00  0.73243983470E+03  0.73243983471E+03  0.50400000000E-02 0. -1.
         -1   -1    0    0    0  501 -0.00000000000E+00 -0.00000000000E+00 -0.16930900917E+04  0.16930900917E+04  0.50400000000E-02 0.  1.
    8880023    1    1    2    0    0 -0.49166986751E+03 -0.65663563979E+03 -0.11616554230E+04  0.15672150938E+04  0.65864270000E+03 0.  0.
    8880022    1    1    2    0    0  0.49166986751E+03  0.65663563979E+03  0.20100516606E+03  0.85831483260E+03  0.15294330000E+03 0.  0.
<mgrwt>
<rscale>  0 0.99280461E+03</rscale>
<asrwt>0</asrwt>
<pdfrwt beam="1">  1        1 0.11268305E+00 0.10520075E+04</pdfrwt>
<pdfrwt beam="2">  1       -1 0.26047540E+00 0.10520075E+04</pdfrwt>
<totfact> 0.15174778E+00</totfact>
</mgrwt>
</event>
<event>
 4    2  0.4681349E-007  0.7519348E+03  0.7818608E-02  0.9826454E-01
          1   -1    0    0  501    0  0.00000000000E+00  0.00000000000E+00  0.91174899444E+03  0.91174899445E+03  0.50400000000E-02 0. -1.
         -1   -1    0    0    0  501 -0.00000000000E+00 -0.00000000000E+00 -0.10081661478E+04  0.10081661478E+04  0.50400000000E-02 0.  1.
    8880023    1    1    2    0    0 -0.82187864818E+02  0.35332823753E+03 -0.80982614778E+03  0.11050901703E+04  0.65864270000E+03 0.  0.
    8880022    1    1    2    0    0  0.82187864818E+02 -0.35332823753E+03  0.71340899444E+03  0.81482497196E+03  0.15294330000E+03 0.  0.
<mgrwt>
<rscale>  0 0.63962017E+03</rscale>
<asrwt>0</asrwt>
<pdfrwt beam="1">  1        1 0.14026908E+00 0.75193477E+03</pdfrwt>
<pdfrwt beam="2">  1       -1 0.15510248E+00 0.75193477E+03</pdfrwt>
<totfact> 0.58664405E+00</totfact>
</mgrwt>
</event>
<event>
 4    2  0.4681349E-007  0.6968242E+03  0.7818608E-02  0.1001064E+00
          1   -1    0    0  501    0  0.00000000000E+00  0.00000000000E+00  0.25594667417E+04  0.25594667417E+04  0.50400000000E-02 0. -1.
         -1   -1    0    0    0  501 -0.00000000000E+00 -0.00000000000E+00 -0.37584358658E+03  0.37584358661E+03  0.50400000000E-02 0.  1.
    8880023    1    1    2    0    0 -0.95723879228E+02  0.20637522966E+03 -0.37024291077E+02  0.69780713730E+03  0.65864270000E+03 0.  1.
    8880022    1    1    2    0    0  0.95723879228E+02 -0.20637522966E+03  0.22206474462E+04  0.22375031910E+04  0.15294330000E+03 0.  0.
<mgrwt>
<rscale>  0 0.55186172E+03</rscale>
<asrwt>0</asrwt>
<pdfrwt beam="1">  1        1 0.39376410E+00 0.69682423E+03</pdfrwt>
<pdfrwt beam="2">  1       -1 0.57822092E-01 0.69682423E+03</pdfrwt>
<totfact> 0.40015652E+00</totfact>
</mgrwt>
</event>
<event>
 4    2  0.4681349E-007  0.7212924E+03  0.7818608E-02  0.9918237E-01
          1   -1    0    0  501    0  0.00000000000E+00  0.00000000000E+00  0.97134462614E+03  0.97134462615E+03  0.50400000000E-02 0. -1.
         -1   -1    0    0    0  501 -0.00000000000E+00 -0.00000000000E+00 -0.83774483774E+03  0.83774483775E+03  0.50400000000E-02 0.  1.
    8880023    1    1    2    0    0  0.26314403274E+03  0.13117850059E+03 -0.64201394633E+03  0.96563175928E+03  0.65864270000E+03 0.  0.
    8880022    1    1    2    0    0 -0.26314403274E+03 -0.13117850059E+03  0.77561373472E+03  0.84345770463E+03  0.15294330000E+03 0.  0.
<mgrwt>
<rscale>  0 0.59385538E+03</rscale>
<asrwt>0</asrwt>
<pdfrwt beam="1">  1        1 0.14943763E+00 0.72129244E+03</pdfrwt>
<pdfrwt beam="2">  1       -1 0.12888382E+00 0.72129244E+03</pdfrwt>
<totfact> 0.85703370E+00</totfact>
</mgrwt>
</event>
<event>
 4    2  0.4681349E-007  0.1010274E+04  0.7818608E-02  0.9368238E-01
          1   -1    0    0  501    0  0.00000000000E+00  0.00000000000E+00  0.70507642296E+03  0.70507642298E+03  0.50400000000E-02 0. -1.
         -1   -1    0    0    0  501 -0.00000000000E+00 -0.00000000000E+00 -0.15913971091E+04  0.15913971091E+04  0.50400000000E-02 0.  1.
    8880023    1    1    2    0    0 -0.16257509029E+02  0.76588415202E+03 -0.10930310285E+04  0.14884118639E+04  0.65864270000E+03 0.  0.
    8880022    1    1    2    0    0  0.16257509029E+02 -0.76588415202E+03  0.20671034243E+03  0.80806166819E+03  0.15294330000E+03 0.  0.
<mgrwt>
<rscale>  0 0.94736295E+03</rscale>
<asrwt>0</asrwt>
<pdfrwt beam="1">  1        1 0.10847330E+00 0.10102737E+04</pdfrwt>
<pdfrwt beam="2">  1       -1 0.24483032E+00 0.10102737E+04</pdfrwt>
<totfact> 0.20434800E+00</totfact>
</mgrwt>
</event>
<event>
 4    2  0.4681349E-007  0.7294237E+03  0.7818608E-02  0.9891901E-01
          1   -1    0    0  501    0  0.00000000000E+00  0.00000000000E+00  0.88625246233E+03  0.88625246234E+03  0.50400000000E-02 0. -1.
         -1   -1    0    0    0  501 -0.00000000000E+00 -0.00000000000E+00 -0.63328329890E+03  0.63328329892E+03  0.50400000000E-02 0.  1.
    8880023    1    1    2    0    0 -0.25463478765E+03  0.18278374853E+03 -0.36065977817E+03  0.81371644672E+03  0.65864270000E+03 0.  1.
    8880022    1    1    2    0    0  0.25463478765E+03 -0.18278374853E+03  0.61362894160E+03  0.70581931455E+03  0.15294330000E+03 0.  0.
<mgrwt>
<rscale>  0 0.60655426E+03</rscale>
<asrwt>0</asrwt>
<pdfrwt beam="1">  1        1 0.13634653E+00 0.72942373E+03</pdfrwt>
<pdfrwt beam="2">  1       -1 0.97428200E-01 0.72942373E+03</pdfrwt>
<totfact> 0.19473784E+01</totfact>
</mgrwt>
</event>
<event>
 4    2  0.4917542E-007  0.1198939E+04  0.7818608E-02  0.9158154E-01
         -1   -1    0    0    0  501 -0.00000000000E+00  0.00000000000E+00  0.99017653404E+03  0.99017653406E+03  0.50400000000E-02 0.  1.
          1   -1    0    0  501    0  0.00000000000E+00 -0.00000000000E+00 -0.34884852313E+04  0.34884852313E+04  0.50400000000E-02 0. -1.
    8880023    1    1    2    0    0  0.99575509585E+03 -0.11007721385E+03  0.51099787596E+03  0.13032936121E+04  0.65864270000E+03 0.  0.
    8880022    1    1    2    0    0 -0.99575509585E+03  0.11007721385E+03 -0.30093065733E+04  0.31753681533E+04  0.15294330000E+03 0.  0.
<mgrwt>
<rscale>  0 0.11495984E+04</rscale>
<asrwt>0</asrwt>
<pdfrwt beam="1">  1        1 0.53669003E+00 0.11989393E+04</pdfrwt>
<pdfrwt beam="2">  1       -1 0.15233485E+00 0.11989393E+04</pdfrwt>
<totfact> 0.85444005E-02</totfact>
</mgrwt>
</event>
<event>
 4    2  0.4681349E-007  0.9288661E+03  0.7818608E-02  0.9481196E-01
         -1   -1    0    0    0  501 -0.00000000000E+00  0.00000000000E+00  0.34761244168E+03  0.34761244172E+03  0.50400000000E-02 0.  1.
          1   -1    0    0  501    0  0.00000000000E+00 -0.00000000000E+00 -0.31540831894E+04  0.31540831894E+04  0.50400000000E-02 0. -1.
    8880023    1    1    2    0    0 -0.65439435665E+03 -0.27386315699E+02 -0.41484482207E+03  0.10172946559E+04  0.65864270000E+03 0.  1.
    8880022    1    1    2    0    0  0.65439435665E+03  0.27386315699E+02 -0.23916259257E+04  0.24844009752E+04  0.15294330000E+03 0.  0.
<mgrwt>
<rscale>  0 0.85684445E+03</rscale>
<asrwt>0</asrwt>
<pdfrwt beam="1">  1        1 0.48524355E+00 0.92886608E+03</pdfrwt>
<pdfrwt beam="2">  1       -1 0.53478839E-01 0.92886608E+03</pdfrwt>
<totfact> 0.16931997E+00</totfact>
</mgrwt>
</event>
<event>
 4    2  0.4681349E-007  0.9466821E+03  0.7818608E-02  0.9454904E-01
          1   -1    0    0  501    0  0.00000000000E+00  0.00000000000E+00  0.26441944012E+04  0.26441944012E+04  0.50400000000E-02 0. -1.
         -1   -1    0    0    0  501 -0.00000000000E+00 -0.00000000000E+00 -0.39668971674E+03  0.39668971677E+03  0.50400000000E-02 0.  1.
    8880023    1    1    2    0    0 -0.67919487271E+03 -0.33033322464E+02  0.33314248393E+03  0.10035890575E+04  0.65864270000E+03 0.  0.
    8880022    1    1    2    0    0  0.67919487271E+03  0.33033322464E+02  0.19143622005E+04  0.20372950604E+04  0.15294330000E+03 0.  0.
<mgrwt>
<rscale>  0 0.87691812E+03</rscale>
<asrwt>0</asrwt>
<pdfrwt beam="1">  1        1 0.40679914E+00 0.94668214E+03</pdfrwt>
<pdfrwt beam="2">  1       -1 0.61029188E-01 0.94668214E+03</pdfrwt>
<totfact> 0.30113224E+00</totfact>
</mgrwt>
</event>
<event>
 4    2  0.4681349E-007  0.9036916E+03  0.7818608E-02  0.9520131E-01
          1   -1    0    0  501    0  0.00000000000E+00  0.00000000000E+00  0.35178617813E+04  0.35178617813E+04  0.50400000000E-02 0. -1.
         -1   -1    0    0    0  501 -0.00000000000E+00 -0.00000000000E+00 -0.52493519976E+03  0.52493519978E+03  0.50400000000E-02 0.  1.
    8880023    1    1    2    0    0 -0.60869325094E+03 -0.11108935369E+03 -0.77411449302E+02  0.90700113395E+03  0.65864270000E+03 0.  0.
    8880022    1    1    2    0    0  0.60869325094E+03  0.11108935369E+03  0.30703380309E+04  0.31357958472E+04  0.15294330000E+03 0.  0.
<mgrwt>
<rscale>  0 0.82815765E+03</rscale>
<asrwt>0</asrwt>
<pdfrwt beam="1">  1        1 0.54120948E+00 0.90369161E+03</pdfrwt>
<pdfrwt beam="2">  1       -1 0.80759265E-01 0.90369161E+03</pdfrwt>
<totfact> 0.39197527E-01</totfact>
</mgrwt>
</event>
<event>
 4    2  0.4681349E-007  0.6984059E+03  0.7818608E-02  0.1000388E+00
          1   -1    0    0  501    0  0.00000000000E+00  0.00000000000E+00  0.15940959187E+04  0.15940959187E+04  0.50400000000E-02 0. -1.
         -1   -1    0    0    0  501 -0.00000000000E+00 -0.00000000000E+00 -0.19554000487E+03  0.19554000493E+03  0.50400000000E-02 0.  1.
    8880023    1    1    2    0    0 -0.21380502879E+03  0.90818198788E+02  0.52742470815E+03  0.87518430322E+03  0.65864270000E+03 0.  1.
    8880022    1    1    2    0    0  0.21380502879E+03 -0.90818198788E+02  0.87113120571E+03  0.91445162045E+03  0.15294330000E+03 0.  0.
<mgrwt>
<rscale>  0 0.55480451E+03</rscale>
<asrwt>0</asrwt>
<pdfrwt beam="1">  1        1 0.24524553E+00 0.69840586E+03</pdfrwt>
<pdfrwt beam="2">  1       -1 0.30083077E-01 0.69840586E+03</pdfrwt>
<totfact> 0.59101854E+01</totfact>
</mgrwt>
</event>
<event>
 4    2  0.4681349E-007  0.9344453E+03  0.7818608E-02  0.9472856E-01
          1   -1    0    0  501    0  0.00000000000E+00  0.00000000000E+00  0.63895495948E+03  0.63895495950E+03  0.50400000000E-02 0. -1.
         -1   -1    0    0    0  501 -0.00000000000E+00 -0.00000000000E+00 -0.16333542994E+04  0.16333542994E+04  0.50400000000E-02 0.  1.
    8880023    1    1    2    0    0 -0.26145569316E+03  0.60911301376E+03 -0.12368210274E+04  0.15501336081E+04  0.65864270000E+03 0.  0.
    8880022    1    1    2    0    0  0.26145569316E+03 -0.60911301376E+03  0.24242168746E+03  0.72217565078E+03  0.15294330000E+03 0.  0.
<mgrwt>
<rscale>  0 0.86314941E+03</rscale>
<asrwt>0</asrwt>
<pdfrwt beam="1">  1        1 0.98300764E-01 0.93444526E+03</pdfrwt>
<pdfrwt beam="2">  1       -1 0.25128527E+00 0.93444526E+03</pdfrwt>
<totfact> 0.21723169E+00</totfact>
</mgrwt>
</event>
<event>
 4    2  0.4681349E-007  0.7750078E+03  0.7818608E-02  0.9767697E-01
          1   -1    0    0  501    0  0.00000000000E+00  0.00000000000E+00  0.56266324125E+03  0.56266324127E+03  0.50400000000E-02 0. -1.
         -1   -1    0    0    0  501 -0.00000000000E+00 -0.00000000000E+00 -0.21518554580E+04  0.21518554581E+04  0.50400000000E-02 0.  1.
    8880023    1    1    2    0    0 -0.81911202227E+02  0.40014677854E+03 -0.19816424797E+04  0.21278026255E+04  0.65864270000E+03 0.  1.
    8880022    1    1    2    0    0  0.81911202227E+02 -0.40014677854E+03  0.39245026290E+03  0.58671607383E+03  0.15294330000E+03 0.  0.
<mgrwt>
<rscale>  0 0.67125288E+03</rscale>
<asrwt>0</asrwt>
<pdfrwt beam="1">  1        1 0.86563577E-01 0.77500780E+03</pdfrwt>
<pdfrwt beam="2">  1       -1 0.33105468E+00 0.77500780E+03</pdfrwt>
<totfact> 0.82206486E-01</totfact>
</mgrwt>
</event>
<event>
 4    2  0.4681349E-007  0.6848402E+03  0.7818608E-02  0.1006708E+00
         -1   -1    0    0    0  501 -0.00000000000E+00  0.00000000000E+00  0.72168186003E+03  0.72168186005E+03  0.50400000000E-02 0.  1.
          1   -1    0    0  501    0  0.00000000000E+00 -0.00000000000E+00 -0.60075143492E+03  0.60075143494E+03  0.50400000000E-02 0. -1.
    8880023    1    1    2    0    0 -0.15580248888E+03 -0.10450570052E+03  0.51712481835E+03  0.85815158393E+03  0.65864270000E+03 0.  1.
    8880022    1    1    2    0    0  0.15580248888E+03  0.10450570052E+03 -0.39619439324E+03  0.46428171106E+03  0.15294330000E+03 0.  0.
<mgrwt>
<rscale>  0 0.52804089E+03</rscale>
<asrwt>0</asrwt>
<pdfrwt beam="1">  1        1 0.92423298E-01 0.68484017E+03</pdfrwt>
<pdfrwt beam="2">  1       -1 0.11102798E+00 0.68484017E+03</pdfrwt>
<totfact> 0.26345145E+01</totfact>
</mgrwt>
</event>
<event>
 4    2  0.4681349E-007  0.6672962E+03  0.7818608E-02  0.1017680E+00
          1   -1    0    0  501    0  0.00000000000E+00  0.00000000000E+00  0.83469326449E+03  0.83469326450E+03  0.50400000000E-02 0. -1.
         -1   -1    0    0    0  501 -0.00000000000E+00 -0.00000000000E+00 -0.23992896930E+03  0.23992896935E+03  0.50400000000E-02 0.  1.
    8880023    1    1    2    0    0  0.83325545753E+02 -0.67312002893E+02  0.31411305971E+03  0.73753052333E+03  0.65864270000E+03 0.  0.
    8880022    1    1    2    0    0 -0.83325545753E+02  0.67312002893E+02  0.28065123548E+03  0.33709171052E+03  0.15294330000E+03 0.  0.
<mgrwt>
<rscale>  0 0.48533187E+03</rscale>
<asrwt>0</asrwt>
<pdfrwt beam="1">  1        1 0.12841435E+00 0.66729623E+03</pdfrwt>
<pdfrwt beam="2">  1       -1 0.36912150E-01 0.66729623E+03</pdfrwt>
<totfact> 0.14863198E+02</totfact>
</mgrwt>
</event>
<event>
 4    2  0.4681349E-007  0.7075042E+03  0.7818608E-02  0.9967388E-01
         -1   -1    0    0    0  501 -0.00000000000E+00  0.00000000000E+00  0.73814188289E+03  0.73814188290E+03  0.50400000000E-02 0.  1.
          1   -1    0    0  501    0  0.00000000000E+00 -0.00000000000E+00 -0.34564183279E+03  0.34564183282E+03  0.50400000000E-02 0. -1.
    8880023    1    1    2    0    0 -0.25201793270E+03  0.56912153469E+02  0.24051981900E+03  0.74726971116E+03  0.65864270000E+03 0.  0.
    8880022    1    1    2    0    0  0.25201793270E+03 -0.56912153469E+02  0.15198023110E+03  0.33651400457E+03  0.15294330000E+03 0.  1.
<mgrwt>
<rscale>  0 0.57103627E+03</rscale>
<asrwt>0</asrwt>
<pdfrwt beam="1">  1        1 0.53175667E-01 0.70750423E+03</pdfrwt>
<pdfrwt beam="2">  1       -1 0.11356029E+00 0.70750423E+03</pdfrwt>
<totfact> 0.52729141E+01</totfact>
</mgrwt>
</event>
<event>
 4    2  0.4681349E-007  0.8178200E+03  0.7818608E-02  0.9673513E-01
          1   -1    0    0  501    0  0.00000000000E+00  0.00000000000E+00  0.15935547963E+04  0.15935547964E+04  0.50400000000E-02 0. -1.
         -1   -1    0    0    0  501 -0.00000000000E+00 -0.00000000000E+00 -0.50853151145E+03  0.50853151148E+03  0.50400000000E-02 0.  1.
    8880023    1    1    2    0    0 -0.29126079565E+03 -0.38753894822E+03 -0.89083648287E+02  0.82265751691E+03  0.65864270000E+03 0.  1.
    8880022    1    1    2    0    0  0.29126079565E+03  0.38753894822E+03  0.11741069332E+04  0.12794287909E+04  0.15294330000E+03 0.  0.
<mgrwt>
<rscale>  0 0.72615970E+03</rscale>
<asrwt>0</asrwt>
<pdfrwt beam="1">  1        1 0.24516228E+00 0.81781996E+03</pdfrwt>
<pdfrwt beam="2">  1       -1 0.78235617E-01 0.81781996E+03</pdfrwt>
<totfact> 0.94956650E+00</totfact>
</mgrwt>
</event>
<event>
 4    2  0.4681349E-007  0.8645469E+03  0.7818608E-02  0.9585526E-01
          1   -1    0    0  501    0  0.00000000000E+00  0.00000000000E+00  0.12735880555E+04  0.12735880555E+04  0.50400000000E-02 0. -1.
         -1   -1    0    0    0  501 -0.00000000000E+00 -0.00000000000E+00 -0.86392093892E+03  0.86392093893E+03  0.50400000000E-02 0.  1.
    8880023    1    1    2    0    0 -0.31073744008E+03  0.46591131087E+03 -0.54369800924E+03  0.10212976245E+04  0.65864270000E+03 0.  0.
    8880022    1    1    2    0    0  0.31073744008E+03 -0.46591131087E+03  0.95336512577E+03  0.11162113699E+04  0.15294330000E+03 0.  0.
<mgrwt>
<rscale>  0 0.78261617E+03</rscale>
<asrwt>0</asrwt>
<pdfrwt beam="1">  1        1 0.19593662E+00 0.86454688E+03</pdfrwt>
<pdfrwt beam="2">  1       -1 0.13291092E+00 0.86454688E+03</pdfrwt>
<totfact> 0.46272901E+00</totfact>
</mgrwt>
</event>
<event>
 4    2  0.4681349E-007  0.6793860E+03  0.7818608E-02  0.1009673E+00
         -1   -1    0    0    0  501 -0.00000000000E+00  0.00000000000E+00  0.92677085791E+03  0.92677085793E+03  0.50400000000E-02 0.  1.
          1   -1    0    0  501    0  0.00000000000E+00 -0.00000000000E+00 -0.26697564812E+03  0.26697564816E+03  0.50400000000E-02 0. -1.
    8880023    1    1    2    0    0  0.13258249974E+03  0.10088129010E+03  0.68671523563E+03  0.96599336180E+03  0.65864270000E+03 0.  1.
    8880022    1    1    2    0    0 -0.13258249974E+03 -0.10088129010E+03 -0.26920025831E+02  0.22775314429E+03  0.15294330000E+03 0.  0.
<mgrwt>
<rscale>  0 0.51604761E+03</rscale>
<asrwt>0</asrwt>
<pdfrwt beam="1">  1        1 0.41073177E-01 0.67938602E+03</pdfrwt>
<pdfrwt beam="2">  1       -1 0.14258013E+00 0.67938602E+03</pdfrwt>
<totfact> 0.41883958E+01</totfact>
</mgrwt>
</event>
<event>
 4    2  0.4681349E-007  0.9115808E+03  0.7818608E-02  0.9507691E-01
         -1   -1    0    0    0  501 -0.00000000000E+00  0.00000000000E+00  0.52457156799E+03  0.52457156802E+03  0.50400000000E-02 0.  1.
          1   -1    0    0  501    0  0.00000000000E+00 -0.00000000000E+00 -0.32374630481E+04  0.32374630481E+04  0.50400000000E-02 0. -1.
    8880023    1    1    2    0    0 -0.62842741821E+03 -0.47416382844E+02  0.60735771905E+02  0.91360186820E+03  0.65864270000E+03 0.  1.
    8880022    1    1    2    0    0  0.62842741821E+03  0.47416382844E+02 -0.27736272520E+04  0.28484327480E+04  0.15294330000E+03 0.  0.
<mgrwt>
<rscale>  0 0.83719186E+03</rscale>
<asrwt>0</asrwt>
<pdfrwt beam="1">  1        1 0.49807123E+00 0.91158079E+03</pdfrwt>
<pdfrwt beam="2">  1       -1 0.80703320E-01 0.91158079E+03</pdfrwt>
<totfact> 0.64050740E-01</totfact>
</mgrwt>
</event>
<event>
 4    2  0.4681349E-007  0.7837160E+03  0.7818608E-02  0.9747179E-01
         -1   -1    0    0    0  501 -0.00000000000E+00  0.00000000000E+00  0.74278235800E+03  0.74278235802E+03  0.50400000000E-02 0.  1.
          1   -1    0    0  501    0  0.00000000000E+00 -0.00000000000E+00 -0.12666755741E+04  0.12666755741E+04  0.50400000000E-02 0. -1.
    8880023    1    1    2    0    0  0.14030858020E+02 -0.42450404171E+03  0.47280643552E+03  0.91529048839E+03  0.65864270000E+03 0.  1.
    8880022    1    1    2    0    0 -0.14030858020E+02  0.42450404171E+03 -0.99669965158E+03  0.10941674437E+04  0.15294330000E+03 0.  0.
<mgrwt>
<rscale>  0 0.68275907E+03</rscale>
<asrwt>0</asrwt>
<pdfrwt beam="1">  1        1 0.19487317E+00 0.78371599E+03</pdfrwt>
<pdfrwt beam="2">  1       -1 0.11427421E+00 0.78371599E+03</pdfrwt>
<totfact> 0.68747187E+00</totfact>
</mgrwt>
</event>
<event>
 4    2  0.4681349E-007  0.9620708E+03  0.7818608E-02  0.9432955E-01
          1   -1    0    0  501    0  0.00000000000E+00  0.00000000000E+00  0.26808756724E+04  0.26808756725E+04  0.50400000000E-02 0. -1.
         -1   -1    0    0    0  501 -0.00000000000E+00 -0.00000000000E+00 -0.62331146404E+03  0.62331146406E+03  0.50400000000E-02 0.  1.
    8880023    1    1    2    0    0  0.19228938842E+03  0.67438481606E+03 -0.15827357296E+03  0.97500298420E+03  0.65864270000E+03 0.  0.
    8880022    1    1    2    0    0 -0.19228938842E+03 -0.67438481606E+03  0.22158377814E+04  0.23291841523E+04  0.15294330000E+03 0.  0.
<mgrwt>
<rscale>  0 0.89412500E+03</rscale>
<asrwt>0</asrwt>
<pdfrwt beam="1">  1        1 0.41244242E+00 0.96207084E+03</pdfrwt>
<pdfrwt beam="2">  1       -1 0.95894070E-01 0.96207084E+03</pdfrwt>
<totfact> 0.10913344E+00</totfact>
</mgrwt>
</event>
<event>
 4    2  0.4681349E-007  0.7814967E+03  0.7818608E-02  0.9752333E-01
          1   -1    0    0  501    0  0.00000000000E+00  0.00000000000E+00  0.18305971749E+04  0.18305971749E+04  0.50400000000E-02 0. -1.
         -1   -1    0    0    0  501 -0.00000000000E+00 -0.00000000000E+00 -0.26700043809E+03  0.26700043814E+03  0.50400000000E-02 0.  1.
    8880023    1    1    2    0    0 -0.15846756036E+03  0.38963430158E+03  0.46031249045E+03  0.90698657751E+03  0.65864270000E+03 0. -1.
    8880022    1    1    2    0    0  0.15846756036E+03 -0.38963430158E+03  0.11032842464E+04  0.11906110355E+04  0.15294330000E+03 0.  0.
<mgrwt>
<rscale>  0 0.67984591E+03</rscale>
<asrwt>0</asrwt>
<pdfrwt beam="1">  1        1 0.28163033E+00 0.78149668E+03</pdfrwt>
<pdfrwt beam="2">  1       -1 0.41076991E-01 0.78149668E+03</pdfrwt>
<totfact> 0.23276284E+01</totfact>
</mgrwt>
</event>
<event>
 4    2  0.4681349E-007  0.8725524E+03  0.7818608E-02  0.9571614E-01
          1   -1    0    0  501    0  0.00000000000E+00  0.00000000000E+00  0.44431807236E+03  0.44431807239E+03  0.50400000000E-02 0. -1.
         -1   -1    0    0    0  501 -0.00000000000E+00 -0.00000000000E+00 -0.16269804432E+04  0.16269804432E+04  0.50400000000E-02 0.  1.
    8880023    1    1    2    0    0  0.56797120252E+03 -0.70329630214E+02 -0.11939417378E+04  0.14787983714E+04  0.65864270000E+03 0.  0.
    8880022    1    1    2    0    0 -0.56797120252E+03  0.70329630214E+02  0.11279366910E+02  0.59250014423E+03  0.15294330000E+03 0.  0.
<mgrwt>
<rscale>  0 0.79203813E+03</rscale>
<asrwt>0</asrwt>
<pdfrwt beam="1">  1        1 0.68356627E-01 0.87255243E+03</pdfrwt>
<pdfrwt beam="2">  1       -1 0.25030468E+00 0.87255243E+03</pdfrwt>
<totfact> 0.37023359E+00</totfact>
</mgrwt>
</event>
<event>
 4    2  0.4681349E-007  0.8725994E+03  0.7818608E-02  0.9571533E-01
         -1   -1    0    0    0  501 -0.00000000000E+00  0.00000000000E+00  0.94361640650E+03  0.94361640652E+03  0.50400000000E-02 0.  1.
          1   -1    0    0  501    0  0.00000000000E+00 -0.00000000000E+00 -0.11814861424E+04  0.11814861424E+04  0.50400000000E-02 0. -1.
    8880023    1    1    2    0    0 -0.56421902341E+03  0.96313836298E+02  0.62860473963E+03  0.10754411125E+04  0.65864270000E+03 0.  0.
    8880022    1    1    2    0    0  0.56421902341E+03 -0.96313836298E+02 -0.86647447554E+03  0.10496614365E+04  0.15294330000E+03 0. -1.
<mgrwt>
<rscale>  0 0.79209319E+03</rscale>
<asrwt>0</asrwt>
<pdfrwt beam="1">  1        1 0.18176710E+00 0.87259937E+03</pdfrwt>
<pdfrwt beam="2">  1       -1 0.14517175E+00 0.87259937E+03</pdfrwt>
<totfact> 0.42827956E+00</totfact>
</mgrwt>
</event>
<event>
 4    2  0.4681349E-007  0.6822212E+03  0.7818608E-02  0.1008094E+00
          1   -1    0    0  501    0  0.00000000000E+00  0.00000000000E+00  0.14649577126E+04  0.14649577127E+04  0.50400000000E-02 0. -1.
         -1   -1    0    0    0  501 -0.00000000000E+00 -0.00000000000E+00 -0.23978210432E+03  0.23978210437E+03  0.50400000000E-02 0.  1.
    8880023    1    1    2    0    0  0.15955957356E+03  0.78462037745E+02  0.29120662891E+03  0.74177291395E+03  0.65864270000E+03 0.  1.
    8880022    1    1    2    0    0 -0.15955957356E+03 -0.78462037745E+02  0.93396897943E+03  0.96296690308E+03  0.15294330000E+03 0.  0.
<mgrwt>
<rscale>  0 0.52239180E+03</rscale>
<asrwt>0</asrwt>
<pdfrwt beam="1">  1        1 0.22537811E+00 0.68222119E+03</pdfrwt>
<pdfrwt beam="2">  1       -1 0.36889554E-01 0.68222119E+03</pdfrwt>
<totfact> 0.50574284E+01</totfact>
</mgrwt>
</event>
<event>
 4    2  0.4681349E-007  0.8366937E+03  0.7818608E-02  0.9636446E-01
         -1   -1    0    0    0  501 -0.00000000000E+00  0.00000000000E+00  0.45518034657E+03  0.45518034660E+03  0.50400000000E-02 0.  1.
          1   -1    0    0  501    0  0.00000000000E+00 -0.00000000000E+00 -0.17324451716E+04  0.17324451716E+04  0.50400000000E-02 0. -1.
    8880023    1    1    2    0    0 -0.17732689543E+03 -0.48456298628E+03 -0.39159286500E+02  0.83760955791E+03  0.65864270000E+03 0.  1.
    8880022    1    1    2    0    0  0.17732689543E+03  0.48456298628E+03 -0.12381055386E+04  0.13500159603E+04  0.15294330000E+03 0.  0.
<mgrwt>
<rscale>  0 0.74930179E+03</rscale>
<asrwt>0</asrwt>
<pdfrwt beam="1">  1        1 0.26653002E+00 0.83669368E+03</pdfrwt>
<pdfrwt beam="2">  1       -1 0.70027747E-01 0.83669368E+03</pdfrwt>
<totfact> 0.96070302E+00</totfact>
</mgrwt>
</event>
<event>
 4    2  0.4681349E-007  0.7325266E+03  0.7818608E-02  0.9882277E-01
         -1   -1    0    0    0  501 -0.00000000000E+00  0.00000000000E+00  0.35694759567E+03  0.35694759571E+03  0.50400000000E-02 0.  1.
          1   -1    0    0  501    0  0.00000000000E+00 -0.00000000000E+00 -0.14524922686E+04  0.14524922686E+04  0.50400000000E-02 0. -1.
    8880023    1    1    2    0    0  0.27641013257E+03 -0.16242653755E+03 -0.12283694324E+04  0.14302050937E+04  0.65864270000E+03 0.  0.
    8880022    1    1    2    0    0 -0.27641013257E+03  0.16242653755E+03  0.13282475944E+03  0.37923477059E+03  0.15294330000E+03 0.  0.
<mgrwt>
<rscale>  0 0.61127957E+03</rscale>
<asrwt>0</asrwt>
<pdfrwt beam="1">  1        1 0.22346035E+00 0.73252655E+03</pdfrwt>
<pdfrwt beam="2">  1       -1 0.54915016E-01 0.73252655E+03</pdfrwt>
<totfact> 0.24485241E+01</totfact>
</mgrwt>
</event>
<event>
 4    2  0.4681349E-007  0.6726268E+03  0.7818608E-02  0.1013846E+00
         -1   -1    0    0    0  501 -0.00000000000E+00  0.00000000000E+00  0.99948978772E+02  0.99948978899E+02  0.50400000000E-02 0.  1.
          1   -1    0    0  501    0  0.00000000000E+00 -0.00000000000E+00 -0.19465548090E+04  0.19465548090E+04  0.50400000000E-02 0. -1.
    8880023    1    1    2    0    0  0.57974890827E+02 -0.12351329874E+03 -0.13218940344E+04  0.14831826143E+04  0.65864270000E+03 0. -1.
    8880022    1    1    2    0    0 -0.57974890827E+02  0.12351329874E+03 -0.52471179579E+03  0.56332117357E+03  0.15294330000E+03 0. -1.
<mgrwt>
<rscale>  0 0.49974389E+03</rscale>
<asrwt>0</asrwt>
<pdfrwt beam="1">  1        1 0.29946994E+00 0.67262681E+03</pdfrwt>
<pdfrwt beam="2">  1       -1 0.15376767E-01 0.67262681E+03</pdfrwt>
<totfact> 0.10614579E+02</totfact>
</mgrwt>
</event>
<event>
 4    2  0.4681349E-007  0.7499366E+03  0.7818608E-02  0.9831894E-01
          1   -1    0    0  501    0  0.00000000000E+00  0.00000000000E+00  0.17840278747E+04  0.17840278747E+04  0.50400000000E-02 0. -1.
         -1   -1    0    0    0  501 -0.00000000000E+00 -0.00000000000E+00 -0.19389134842E+03  0.19389134848E+03  0.50400000000E-02 0.  1.
    8880023    1    1    2    0    0  0.31248592780E+03  0.17591826378E+03  0.12635794519E+04  0.14693665057E+04  0.65864270000E+03 0.  0.
    8880022    1    1    2    0    0 -0.31248592780E+03 -0.17591826378E+03  0.32655707437E+03  0.50855271746E+03  0.15294330000E+03 0.  0.
<mgrwt>
<rscale>  0 0.63678670E+03</rscale>
<asrwt>0</asrwt>
<pdfrwt beam="1">  1        1 0.27446582E+00 0.74993660E+03</pdfrwt>
<pdfrwt beam="2">  1       -1 0.29829439E-01 0.74993660E+03</pdfrwt>
<totfact> 0.44419225E+01</totfact>
</mgrwt>
</event>
<event>
 4    2  0.4681349E-007  0.7080880E+03  0.7818608E-02  0.9965171E-01
          1   -1    0    0  501    0  0.00000000000E+00  0.00000000000E+00  0.16259256549E+04  0.16259256549E+04  0.50400000000E-02 0. -1.
         -1   -1    0    0    0  501 -0.00000000000E+00 -0.00000000000E+00 -0.44000340486E+03  0.44000340489E+03  0.50400000000E-02 0.  1.
    8880023    1    1    2    0    0  0.18738758067E+03  0.18017839918E+03 -0.12649702439E+03  0.71929831389E+03  0.65864270000E+03 0.  1.
    8880022    1    1    2    0    0 -0.18738758067E+03 -0.18017839918E+03  0.13124192744E+04  0.13466307459E+04  0.15294330000E+03 0.  0.
<mgrwt>
<rscale>  0 0.57204171E+03</rscale>
<asrwt>0</asrwt>
<pdfrwt beam="1">  1        1 0.25014241E+00 0.70808797E+03</pdfrwt>
<pdfrwt beam="2">  1       -1 0.67692831E-01 0.70808797E+03</pdfrwt>
<totfact> 0.12376693E+01</totfact>
</mgrwt>
</event>
<event>
 4    2  0.4681349E-007  0.8062186E+03  0.7818608E-02  0.9697508E-01
          1   -1    0    0  501    0  0.00000000000E+00  0.00000000000E+00  0.15806585616E+04  0.15806585616E+04  0.50400000000E-02 0. -1.
         -1   -1    0    0    0  501 -0.00000000000E+00 -0.00000000000E+00 -0.14155108180E+04  0.14155108180E+04  0.50400000000E-02 0.  1.
    8880023    1    1    2    0    0 -0.43558442869E+03 -0.16261742811E+03 -0.12563392456E+04  0.14927748419E+04  0.65864270000E+03 0.  1.
    8880022    1    1    2    0    0  0.43558442869E+03  0.16261742811E+03  0.14214869892E+04  0.15033945376E+04  0.15294330000E+03 0. -1.
<mgrwt>
<rscale>  0 0.71165357E+03</rscale>
<asrwt>0</asrwt>
<pdfrwt beam="1">  1        1 0.24317824E+00 0.80621860E+03</pdfrwt>
<pdfrwt beam="2">  1       -1 0.21777090E+00 0.80621860E+03</pdfrwt>
<totfact> 0.68490708E-01</totfact>
</mgrwt>
</event>
<event>
 4    2  0.4681349E-007  0.7464602E+03  0.7818608E-02  0.9841513E-01
          1   -1    0    0  501    0  0.00000000000E+00  0.00000000000E+00  0.36315725917E+04  0.36315725917E+04  0.50400000000E-02 0. -1.
         -1   -1    0    0    0  501 -0.00000000000E+00 -0.00000000000E+00 -0.25942309709E+03  0.25942309714E+03  0.50400000000E-02 0.  1.
    8880023    1    1    2    0    0  0.25123283124E+03  0.24550902340E+03  0.31544650251E+03  0.81037603510E+03  0.65864270000E+03 0.  1.
    8880022    1    1    2    0    0 -0.25123283124E+03 -0.24550902340E+03  0.30567029921E+04  0.30806196537E+04  0.15294330000E+03 0.  0.
<mgrwt>
<rscale>  0 0.63181500E+03</rscale>
<asrwt>0</asrwt>
<pdfrwt beam="1">  1        1 0.55870345E+00 0.74646019E+03</pdfrwt>
<pdfrwt beam="2">  1       -1 0.39911248E-01 0.74646019E+03</pdfrwt>
<totfact> 0.13120283E+00</totfact>
</mgrwt>
</event>
<event>
 4    2  0.4681349E-007  0.1070559E+04  0.7818608E-02  0.9294566E-01
         -1   -1    0    0    0  501 -0.00000000000E+00  0.00000000000E+00  0.15619926497E+04  0.15619926497E+04  0.50400000000E-02 0.  1.
          1   -1    0    0  501    0  0.00000000000E+00 -0.00000000000E+00 -0.12809490945E+04  0.12809490946E+04  0.50400000000E-02 0. -1.
    8880023    1    1    2    0    0 -0.75278544299E+03 -0.38157486873E+03  0.11848976348E+04  0.15968963382E+04  0.65864270000E+03 0.  0.
    8880022    1    1    2    0    0  0.75278544299E+03  0.38157486873E+03 -0.90385407968E+03  0.12460454061E+04  0.15294330000E+03 0.  0.
<mgrwt>
<rscale>  0 0.10128467E+04</rscale>
<asrwt>0</asrwt>
<pdfrwt beam="1">  1        1 0.19706909E+00 0.10705585E+04</pdfrwt>
<pdfrwt beam="2">  1       -1 0.24030656E+00 0.10705585E+04</pdfrwt>
<totfact> 0.75179610E-01</totfact>
</mgrwt>
</event>
<event>
 4    2  0.4681349E-007  0.8595021E+03  0.7818608E-02  0.9594450E-01
          1   -1    0    0  501    0  0.00000000000E+00  0.00000000000E+00  0.31551983698E+04  0.31551983698E+04  0.50400000000E-02 0. -1.
         -1   -1    0    0    0  501 -0.00000000000E+00 -0.00000000000E+00 -0.24196289201E+03  0.24196289207E+03  0.50400000000E-02 0.  1.
    8880023    1    1    2    0    0  0.50461574472E+01 -0.55218488838E+03  0.69271168360E+03  0.11038991338E+04  0.65864270000E+03 0.  0.
    8880022    1    1    2    0    0 -0.50461574472E+01  0.55218488838E+03  0.22205237942E+04  0.22932621281E+04  0.15294330000E+03 0.  0.
<mgrwt>
<rscale>  0 0.77664623E+03</rscale>
<asrwt>0</asrwt>
<pdfrwt beam="1">  1        1 0.48541512E+00 0.85950208E+03</pdfrwt>
<pdfrwt beam="2">  1       -1 0.37225062E-01 0.85950208E+03</pdfrwt>
<totfact> 0.33564665E+00</totfact>
</mgrwt>
</event>
<event>
 4    2  0.4681349E-007  0.6824356E+03  0.7818608E-02  0.1007978E+00
          1   -1    0    0  501    0  0.00000000000E+00  0.00000000000E+00  0.13090169615E+04  0.13090169615E+04  0.50400000000E-02 0. -1.
         -1   -1    0    0    0  501 -0.00000000000E+00 -0.00000000000E+00 -0.32055018225E+03  0.32055018229E+03  0.50400000000E-02 0.  1.
    8880023    1    1    2    0    0 -0.13350528091E+03 -0.11867807152E+03  0.75265170069E+02  0.68657351885E+03  0.65864270000E+03 0.  1.
    8880022    1    1    2    0    0  0.13350528091E+03  0.11867807152E+03  0.91320160913E+03  0.94299362491E+03  0.15294330000E+03 0.  0.
<mgrwt>
<rscale>  0 0.52286154E+03</rscale>
<asrwt>0</asrwt>
<pdfrwt beam="1">  1        1 0.20138723E+00 0.68243560E+03</pdfrwt>
<pdfrwt beam="2">  1       -1 0.49315412E-01 0.68243560E+03</pdfrwt>
<totfact> 0.38068883E+01</totfact>
</mgrwt>
</event>
<event>
 4    2  0.4681349E-007  0.7962925E+03  0.7818608E-02  0.9718871E-01
         -1   -1    0    0    0  501 -0.00000000000E+00  0.00000000000E+00  0.11645141491E+04  0.11645141491E+04  0.50400000000E-02 0.  1.
          1   -1    0    0  501    0  0.00000000000E+00 -0.00000000000E+00 -0.62259436871E+03  0.62259436873E+03  0.50400000000E-02 0. -1.
    8880023    1    1    2    0    0 -0.43693911572E+03  0.96724916756E+02  0.89422311795E+03  0.11973790926E+04  0.65864270000E+03 0.  1.
    8880022    1    1    2    0    0  0.43693911572E+03 -0.96724916756E+02 -0.35230333756E+03  0.58972942528E+03  0.15294330000E+03 0.  0.
<mgrwt>
<rscale>  0 0.69904280E+03</rscale>
<asrwt>0</asrwt>
<pdfrwt beam="1">  1        1 0.95783749E-01 0.79629248E+03</pdfrwt>
<pdfrwt beam="2">  1       -1 0.17915602E+00 0.79629248E+03</pdfrwt>
<totfact> 0.70329153E+00</totfact>
</mgrwt>
</event>
<event>
 4    2  0.4681349E-007  0.1015069E+04  0.7818608E-02  0.9362102E-01
          1   -1    0    0  501    0  0.00000000000E+00  0.00000000000E+00  0.14479877519E+04  0.14479877519E+04  0.50400000000E-02 0. -1.
         -1   -1    0    0    0  501 -0.00000000000E+00 -0.00000000000E+00 -0.12014690718E+04  0.12014690718E+04  0.50400000000E-02 0.  1.
    8880023    1    1    2    0    0 -0.76677965350E+03  0.92761107145E+02 -0.83313438160E+03  0.13131941075E+04  0.65864270000E+03 0.  0.
    8880022    1    1    2    0    0  0.76677965350E+03 -0.92761107145E+02  0.10796530617E+04  0.13362627162E+04  0.15294330000E+03 0.  0.
<mgrwt>
<rscale>  0 0.95261222E+03</rscale>
<asrwt>0</asrwt>
<pdfrwt beam="1">  1        1 0.22276735E+00 0.10150694E+04</pdfrwt>
<pdfrwt beam="2">  1       -1 0.18484140E+00 0.10150694E+04</pdfrwt>
<totfact> 0.13716726E+00</totfact>
</mgrwt>
</event>
<event>
 4    2  0.4681349E-007  0.6911979E+03  0.7818608E-02  0.1003588E+00
          1   -1    0    0  501    0  0.00000000000E+00  0.00000000000E+00  0.12134724888E+04  0.12134724888E+04  0.50400000000E-02 0. -1.
         -1   -1    0    0    0  501 -0.00000000000E+00 -0.00000000000E+00 -0.69861254325E+03  0.69861254327E+03  0.50400000000E-02 0.  1.
    8880023    1    1    2    0    0 -0.16634838209E+03 -0.12756366981E+03 -0.50737496856E+03  0.85742862039E+03  0.65864270000E+03 0.  1.
    8880022    1    1    2    0    0  0.16634838209E+03  0.12756366981E+03  0.10222349141E+04  0.10546564117E+04  0.15294330000E+03 0.  0.
<mgrwt>
<rscale>  0 0.54104407E+03</rscale>
<asrwt>0</asrwt>
<pdfrwt beam="1">  1        1 0.18668807E+00 0.69119786E+03</pdfrwt>
<pdfrwt beam="2">  1       -1 0.10747885E+00 0.69119786E+03</pdfrwt>
<totfact> 0.87980758E+00</totfact>
</mgrwt>
</event>
<event>
 4    2  0.4681349E-007  0.7447835E+03  0.7818608E-02  0.9846226E-01
          1   -1    0    0  501    0  0.00000000000E+00  0.00000000000E+00  0.20201240859E+04  0.20201240859E+04  0.50400000000E-02 0. -1.
         -1   -1    0    0    0  501 -0.00000000000E+00 -0.00000000000E+00 -0.38263288908E+03  0.38263288912E+03  0.50400000000E-02 0.  1.
    8880023    1    1    2    0    0 -0.54774272776E+00  0.34769516359E+03  0.24013901181E+02  0.74517051774E+03  0.65864270000E+03 0.  0.
    8880022    1    1    2    0    0  0.54774272776E+00 -0.34769516359E+03  0.16134772956E+04  0.16575864573E+04  0.15294330000E+03 0. -1.
<mgrwt>
<rscale>  0 0.62939712E+03</rscale>
<asrwt>0</asrwt>
<pdfrwt beam="1">  1        1 0.31078833E+00 0.74478348E+03</pdfrwt>
<pdfrwt beam="2">  1       -1 0.58866597E-01 0.74478348E+03</pdfrwt>
<totfact> 0.88500466E+00</totfact>
</mgrwt>
</event>
<event>
 4    2  0.4681349E-007  0.9821548E+03  0.7818608E-02  0.9405286E-01
          1   -1    0    0  501    0  0.00000000000E+00  0.00000000000E+00  0.35432719384E+04  0.35432719384E+04  0.50400000000E-02 0. -1.
         -1   -1    0    0    0  501 -0.00000000000E+00 -0.00000000000E+00 -0.54645794960E+03  0.54645794962E+03  0.50400000000E-02 0.  1.
    8880023    1    1    2    0    0 -0.72684860659E+03  0.50089927865E+02 -0.20061866655E+02  0.98235970120E+03  0.65864270000E+03 0.  0.
    8880022    1    1    2    0    0  0.72684860659E+03 -0.50089927865E+02  0.30168758554E+04  0.31073701868E+04  0.15294330000E+03 0.  0.
<mgrwt>
<rscale>  0 0.91641928E+03</rscale>
<asrwt>0</asrwt>
<pdfrwt beam="1">  1        1 0.54511874E+00 0.98215483E+03</pdfrwt>
<pdfrwt beam="2">  1       -1 0.84070457E-01 0.98215483E+03</pdfrwt>
<totfact> 0.33820479E-01</totfact>
</mgrwt>
</event>
<event>
 4    2  0.4681349E-007  0.7386936E+03  0.7818608E-02  0.9863769E-01
          1   -1    0    0  501    0  0.00000000000E+00  0.00000000000E+00  0.29996367273E+04  0.29996367273E+04  0.50400000000E-02 0. -1.
         -1   -1    0    0    0  501 -0.00000000000E+00 -0.00000000000E+00 -0.18799100388E+03  0.18799100395E+03  0.50400000000E-02 0.  1.
    8880023    1    1    2    0    0  0.21721618761E+03 -0.25431323999E+03  0.61726891571E+03  0.96264698449E+03  0.65864270000E+03 0.  1.
    8880022    1    1    2    0    0 -0.21721618761E+03  0.25431323999E+03  0.21943768077E+04  0.22249807468E+04  0.15294330000E+03 0. -1.
<mgrwt>
<rscale>  0 0.62049792E+03</rscale>
<asrwt>0</asrwt>
<pdfrwt beam="1">  1        1 0.46148254E+00 0.73869365E+03</pdfrwt>
<pdfrwt beam="2">  1       -1 0.28921695E-01 0.73869365E+03</pdfrwt>
<totfact> 0.69436793E+00</totfact>
</mgrwt>
</event>
<event>
 4    2  0.4681349E-007  0.8833061E+03  0.7818608E-02  0.9553380E-01
          1   -1    0    0  501    0  0.00000000000E+00  0.00000000000E+00  0.17028322388E+04  0.17028322388E+04  0.50400000000E-02 0. -1.
         -1   -1    0    0    0  501 -0.00000000000E+00 -0.00000000000E+00 -0.44493947051E+03  0.44493947054E+03  0.50400000000E-02 0.  1.
    8880023    1    1    2    0    0  0.45248427194E+03 -0.37640061654E+03  0.16718222222E+03  0.89898806564E+03  0.65864270000E+03 0.  1.
    8880022    1    1    2    0    0 -0.45248427194E+03  0.37640061654E+03  0.10907105461E+04  0.12487836437E+04  0.15294330000E+03 0.  0.
<mgrwt>
<rscale>  0 0.80460163E+03</rscale>
<asrwt>0</asrwt>
<pdfrwt beam="1">  1        1 0.26197419E+00 0.88330609E+03</pdfrwt>
<pdfrwt beam="2">  1       -1 0.68452227E-01 0.88330609E+03</pdfrwt>
<totfact> 0.10473929E+01</totfact>
</mgrwt>
</event>
<event>
 4    2  0.4681349E-007  0.6613229E+03  0.7818608E-02  0.1022840E+00
         -1   -1    0    0    0  501 -0.00000000000E+00  0.00000000000E+00  0.43308759161E+03  0.43308759164E+03  0.50400000000E-02 0.  1.
          1   -1    0    0  501    0  0.00000000000E+00 -0.00000000000E+00 -0.56792688387E+03  0.56792688389E+03  0.50400000000E-02 0. -1.
    8880023    1    1    2    0    0 -0.58678772121E+02  0.97247760936E+01  0.14460579108E+03  0.67694815950E+03  0.65864270000E+03 0.  1.
    8880022    1    1    2    0    0  0.58678772121E+02 -0.97247760936E+01 -0.27944508334E+03  0.32406631603E+03  0.15294330000E+03 0.  0.
<mgrwt>
<rscale>  0 0.46675454E+03</rscale>
<asrwt>0</asrwt>
<pdfrwt beam="1">  1        1 0.87373367E-01 0.66132290E+03</pdfrwt>
<pdfrwt beam="2">  1       -1 0.66628860E-01 0.66132290E+03</pdfrwt>
<totfact> 0.86771343E+01</totfact>
</mgrwt>
</event>
<event>
 4    2  0.4681349E-007  0.7124531E+03  0.7818608E-02  0.9949002E-01
          1   -1    0    0  501    0  0.00000000000E+00  0.00000000000E+00  0.11448955213E+04  0.11448955213E+04  0.50400000000E-02 0. -1.
         -1   -1    0    0    0  501 -0.00000000000E+00 -0.00000000000E+00 -0.37741060916E+03  0.37741060919E+03  0.50400000000E-02 0.  1.
    8880023    1    1    2    0    0 -0.25867241540E+03 -0.82872247871E+02  0.20343163544E+02  0.71274348718E+03  0.65864270000E+03 0.  0.
    8880022    1    1    2    0    0  0.25867241540E+03  0.82872247871E+02  0.74714174860E+03  0.80956264333E+03  0.15294330000E+03 0.  0.
<mgrwt>
<rscale>  0 0.57944101E+03</rscale>
<asrwt>0</asrwt>
<pdfrwt beam="1">  1        1 0.17613777E+00 0.71245311E+03</pdfrwt>
<pdfrwt beam="2">  1       -1 0.58063171E-01 0.71245311E+03</pdfrwt>
<totfact> 0.36375271E+01</totfact>
</mgrwt>
</event>
<event>
 4    2  0.4681349E-007  0.8954446E+03  0.7818608E-02  0.9533384E-01
         -1   -1    0    0    0  501 -0.00000000000E+00  0.00000000000E+00  0.14399008141E+04  0.14399008141E+04  0.50400000000E-02 0.  1.
          1   -1    0    0  501    0  0.00000000000E+00 -0.00000000000E+00 -0.90473046121E+03  0.90473046122E+03  0.50400000000E-02 0. -1.
    8880023    1    1    2    0    0  0.51412473159E+03  0.32200392390E+03  0.11566733419E+04  0.14627761937E+04  0.65864270000E+03 0.  1.
    8880022    1    1    2    0    0 -0.51412473159E+03 -0.32200392390E+03 -0.62150298903E+03  0.88185508165E+03  0.15294330000E+03 0.  0.
<mgrwt>
<rscale>  0 0.81866640E+03</rscale>
<asrwt>0</asrwt>
<pdfrwt beam="1">  1        1 0.13918930E+00 0.89544457E+03</pdfrwt>
<pdfrwt beam="2">  1       -1 0.22152320E+00 0.89544457E+03</pdfrwt>
<totfact> 0.19777508E+00</totfact>
</mgrwt>
</event>
<event>
 4    2  0.4681349E-007  0.7736638E+03  0.7818608E-02  0.9770937E-01
          1   -1    0    0  501    0  0.00000000000E+00  0.00000000000E+00  0.12712575605E+04  0.12712575605E+04  0.50400000000E-02 0. -1.
         -1   -1    0    0    0  501 -0.00000000000E+00 -0.00000000000E+00 -0.74349708647E+03  0.74349708649E+03  0.50400000000E-02 0.  1.
    8880023    1    1    2    0    0 -0.40550236759E+03  0.17702122213E+02 -0.48493330020E+03  0.91308052611E+03  0.65864270000E+03 0.  0.
    8880022    1    1    2    0    0  0.40550236759E+03 -0.17702122213E+02  0.10126937742E+04  0.11016741209E+04  0.15294330000E+03 0.  0.
<mgrwt>
<rscale>  0 0.66945834E+03</rscale>
<asrwt>0</asrwt>
<pdfrwt beam="1">  1        1 0.19557808E+00 0.77366384E+03</pdfrwt>
<pdfrwt beam="2">  1       -1 0.11438417E+00 0.77366384E+03</pdfrwt>
<totfact> 0.68176633E+00</totfact>
</mgrwt>
</event>
<event>
 4    2  0.4681349E-007  0.1385628E+04  0.7818608E-02  0.8994931E-01
          1   -1    0    0  501    0  0.00000000000E+00  0.00000000000E+00  0.16123478948E+04  0.16123478948E+04  0.50400000000E-02 0. -1.
         -1   -1    0    0    0  501 -0.00000000000E+00 -0.00000000000E+00 -0.18075730679E+04  0.18075730679E+04  0.50400000000E-02 0.  1.
    8880023    1    1    2    0    0 -0.10975072729E+04 -0.53069087107E+03 -0.11997878761E+04  0.18328819298E+04  0.65864270000E+03 0.  0.
    8880022    1    1    2    0    0  0.10975072729E+04  0.53069087107E+03  0.10045627030E+04  0.15870390329E+04  0.15294330000E+03 0.  0.
<mgrwt>
<rscale>  0 0.13445929E+04</rscale>
<asrwt>0</asrwt>
<pdfrwt beam="1">  1        1 0.24805352E+00 0.13856281E+04</pdfrwt>
<pdfrwt beam="2">  1       -1 0.27808816E+00 0.13856281E+04</pdfrwt>
<totfact> 0.24008586E-01</totfact>
</mgrwt>
</event>
<event>
 4    2  0.4681349E-007  0.6851314E+03  0.7818608E-02  0.1006558E+00
         -1   -1    0    0    0  501 -0.00000000000E+00  0.00000000000E+00  0.10906708530E+04  0.10906708530E+04  0.50400000000E-02 0.  1.
          1   -1    0    0  501    0  0.00000000000E+00 -0.00000000000E+00 -0.63950307888E+03  0.63950307890E+03  0.50400000000E-02 0. -1.
    8880023    1    1    2    0    0  0.18526130937E+03 -0.35680772998E+02  0.95238176395E+03  0.11732161356E+04  0.65864270000E+03 0.  1.
    8880022    1    1    2    0    0 -0.18526130937E+03  0.35680772998E+02 -0.50121398979E+03  0.55695779633E+03  0.15294330000E+03 0.  0.
<mgrwt>
<rscale>  0 0.52865765E+03</rscale>
<asrwt>0</asrwt>
<pdfrwt beam="1">  1        1 0.98385090E-01 0.68513143E+03</pdfrwt>
<pdfrwt beam="2">  1       -1 0.16779551E+00 0.68513143E+03</pdfrwt>
<totfact> 0.83001892E+00</totfact>
</mgrwt>
</event>
<event>
 4    2  0.4681349E-007  0.6645950E+03  0.7818608E-02  0.1019876E+00
          1   -1    0    0  501    0  0.00000000000E+00  0.00000000000E+00  0.81023529024E+03  0.81023529025E+03  0.50400000000E-02 0. -1.
         -1   -1    0    0    0  501 -0.00000000000E+00 -0.00000000000E+00 -0.96464452314E+03  0.96464452316E+03  0.50400000000E-02 0.  1.
    8880023    1    1    2    0    0 -0.28855440960E+02  0.83926513447E+02 -0.83756729512E+03  0.10692078733E+04  0.65864270000E+03 0.  1.
    8880022    1    1    2    0    0  0.28855440960E+02 -0.83926513447E+02  0.68315806221E+03  0.70567194015E+03  0.15294330000E+03 0.  0.
<mgrwt>
<rscale>  0 0.47731515E+03</rscale>
<asrwt>0</asrwt>
<pdfrwt beam="1">  1        1 0.12465158E+00 0.66459499E+03</pdfrwt>
<pdfrwt beam="2">  1       -1 0.14840685E+00 0.66459499E+03</pdfrwt>
<totfact> 0.81329771E+00</totfact>
</mgrwt>
</event>
<event>
 4    2  0.4681349E-007  0.6831399E+03  0.7818608E-02  0.1007601E+00
         -1   -1    0    0    0  501 -0.00000000000E+00  0.00000000000E+00  0.25634481895E+03  0.25634481900E+03  0.50400000000E-02 0.  1.
          1   -1    0    0  501    0  0.00000000000E+00 -0.00000000000E+00 -0.18685884998E+04  0.18685884998E+04  0.50400000000E-02 0. -1.
    8880023    1    1    2    0    0 -0.10275166579E+02  0.18100903639E+03 -0.22750519623E+03  0.72002685428E+03  0.65864270000E+03 0.  1.
    8880022    1    1    2    0    0  0.10275166579E+02 -0.18100903639E+03 -0.13847384846E+04  0.14049064645E+04  0.15294330000E+03 0.  0.
<mgrwt>
<rscale>  0 0.52439511E+03</rscale>
<asrwt>0</asrwt>
<pdfrwt beam="1">  1        1 0.28747514E+00 0.68313985E+03</pdfrwt>
<pdfrwt beam="2">  1       -1 0.39437666E-01 0.68313985E+03</pdfrwt>
<totfact> 0.23965007E+01</totfact>
</mgrwt>
</event>
<event>
 4    2  0.4681349E-007  0.7767810E+03  0.7818608E-02  0.9763453E-01
          1   -1    0    0  501    0  0.00000000000E+00  0.00000000000E+00  0.32813844109E+03  0.32813844113E+03  0.50400000000E-02 0. -1.
         -1   -1    0    0    0  501 -0.00000000000E+00 -0.00000000000E+00 -0.15930773023E+04  0.15930773023E+04  0.50400000000E-02 0.  1.
    8880023    1    1    2    0    0 -0.16947643565E+03  0.37530825329E+03 -0.12620241932E+04  0.14819223386E+04  0.65864270000E+03 0.  0.
    8880022    1    1    2    0    0  0.16947643565E+03 -0.37530825329E+03 -0.29146680326E+01  0.43929340484E+03  0.15294330000E+03 0.  0.
<mgrwt>
<rscale>  0 0.67361265E+03</rscale>
<asrwt>0</asrwt>
<pdfrwt beam="1">  1        1 0.50482838E-01 0.77678102E+03</pdfrwt>
<pdfrwt beam="2">  1       -1 0.24508881E+00 0.77678102E+03</pdfrwt>
<totfact> 0.60526747E+00</totfact>
</mgrwt>
</event>
<event>
 4    2  0.4681349E-007  0.7362853E+03  0.7818608E-02  0.9870903E-01
          1   -1    0    0  501    0  0.00000000000E+00  0.00000000000E+00  0.21273526161E+04  0.21273526161E+04  0.50400000000E-02 0. -1.
         -1   -1    0    0    0  501 -0.00000000000E+00 -0.00000000000E+00 -0.25252266219E+03  0.25252266224E+03  0.50400000000E-02 0.  1.
    8880023    1    1    2    0    0  0.32909656590E+03  0.11581308243E+01  0.18777696462E+04  0.20169618096E+04  0.65864270000E+03 0. -1.
    8880022    1    1    2    0    0 -0.32909656590E+03 -0.11581308243E+01 -0.29396923395E+01  0.36291346870E+03  0.15294330000E+03 0.  0.
<mgrwt>
<rscale>  0 0.61692422E+03</rscale>
<asrwt>0</asrwt>
<pdfrwt beam="1">  1        1 0.32728503E+00 0.73628534E+03</pdfrwt>
<pdfrwt beam="2">  1       -1 0.38849639E-01 0.73628534E+03</pdfrwt>
<totfact> 0.16411522E+01</totfact>
</mgrwt>
</event>
<event>
 4    2  0.4681349E-007  0.9257496E+03  0.7818608E-02  0.9485899E-01
          1   -1    0    0  501    0  0.00000000000E+00  0.00000000000E+00  0.54117172648E+03  0.54117172650E+03  0.50400000000E-02 0. -1.
         -1   -1    0    0    0  501 -0.00000000000E+00 -0.00000000000E+00 -0.18647980390E+04  0.18647980390E+04  0.50400000000E-02 0.  1.
    8880023    1    1    2    0    0  0.53840381024E+03 -0.36513486484E+03 -0.14553497033E+04  0.17248348030E+04  0.65864270000E+03 0.  0.
    8880022    1    1    2    0    0 -0.53840381024E+03  0.36513486484E+03  0.13172339083E+03  0.68113496248E+03  0.15294330000E+03 0.  0.
<mgrwt>
<rscale>  0 0.85331472E+03</rscale>
<asrwt>0</asrwt>
<pdfrwt beam="1">  1        1 0.83257190E-01 0.92574961E+03</pdfrwt>
<pdfrwt beam="2">  1       -1 0.28689200E+00 0.92574961E+03</pdfrwt>
<totfact> 0.16301103E+00</totfact>
</mgrwt>
</event>
<event>
 4    2  0.4681349E-007  0.8226067E+03  0.7818608E-02  0.9663892E-01
         -1   -1    0    0    0  501 -0.00000000000E+00  0.00000000000E+00  0.10567038026E+04  0.10567038026E+04  0.50400000000E-02 0.  1.
          1   -1    0    0  501    0  0.00000000000E+00 -0.00000000000E+00 -0.15159488056E+04  0.15159488056E+04  0.50400000000E-02 0. -1.
    8880023    1    1    2    0    0  0.39659198818E+03  0.29255135612E+03  0.83938234879E+03  0.11752635597E+04  0.65864270000E+03 0.  1.
    8880022    1    1    2    0    0 -0.39659198818E+03 -0.29255135612E+03 -0.12986273518E+04  0.13973890485E+04  0.15294330000E+03 0.  0.
<mgrwt>
<rscale>  0 0.73207917E+03</rscale>
<asrwt>0</asrwt>
<pdfrwt beam="1">  1        1 0.23322289E+00 0.82260665E+03</pdfrwt>
<pdfrwt beam="2">  1       -1 0.16256982E+00 0.82260665E+03</pdfrwt>
<totfact> 0.18431158E+00</totfact>
</mgrwt>
</event>
<event>
 4    2  0.4681349E-007  0.9772192E+03  0.7818608E-02  0.9411988E-01
          1   -1    0    0  501    0  0.00000000000E+00  0.00000000000E+00  0.15315930640E+04  0.15315930640E+04  0.50400000000E-02 0. -1.
         -1   -1    0    0    0  501 -0.00000000000E+00 -0.00000000000E+00 -0.61285210558E+03  0.61285210560E+03  0.50400000000E-02 0.  1.
    8880023    1    1    2    0    0 -0.39720059416E+03  0.60280918594E+03  0.14514270064E+02  0.97732701638E+03  0.65864270000E+03 0. -1.
    8880022    1    1    2    0    0  0.39720059416E+03 -0.60280918594E+03  0.90422668832E+03  0.11671181532E+04  0.15294330000E+03 0.  0.
<mgrwt>
<rscale>  0 0.91095645E+03</rscale>
<asrwt>0</asrwt>
<pdfrwt beam="1">  1        1 0.23562970E+00 0.97721923E+03</pdfrwt>
<pdfrwt beam="2">  1       -1 0.94284939E-01 0.97721923E+03</pdfrwt>
<totfact> 0.68332541E+00</totfact>
</mgrwt>
</event>
<event>
 4    2  0.4681349E-007  0.6604367E+03  0.7818608E-02  0.1023713E+00
          1   -1    0    0  501    0  0.00000000000E+00  0.00000000000E+00  0.16184551585E+04  0.16184551585E+04  0.50400000000E-02 0. -1.
         -1   -1    0    0    0  501 -0.00000000000E+00 -0.00000000000E+00 -0.25208333473E+03  0.25208333478E+03  0.50400000000E-02 0.  1.
    8880023    1    1    2    0    0 -0.20114670753E+02  0.44292783930E+02  0.19556571821E+03  0.68878342539E+03  0.65864270000E+03 0.  1.
    8880022    1    1    2    0    0  0.20114670753E+02 -0.44292783930E+02  0.11708061055E+04  0.11817550679E+04  0.15294330000E+03 0.  0.
<mgrwt>
<rscale>  0 0.46370058E+03</rscale>
<asrwt>0</asrwt>
<pdfrwt beam="1">  1        1 0.24899310E+00 0.66043672E+03</pdfrwt>
<pdfrwt beam="2">  1       -1 0.38782051E-01 0.66043672E+03</pdfrwt>
<totfact> 0.36452721E+01</totfact>
</mgrwt>
</event>
<event>
 4    2  0.4681349E-007  0.7593463E+03  0.7818608E-02  0.9806803E-01
         -1   -1    0    0    0  501 -0.00000000000E+00  0.00000000000E+00  0.10077547147E+03  0.10077547160E+03  0.50400000000E-02 0.  1.
          1   -1    0    0  501    0  0.00000000000E+00 -0.00000000000E+00 -0.34411247123E+04  0.34411247123E+04  0.50400000000E-02 0. -1.
    8880023    1    1    2    0    0 -0.36563286219E+03  0.95441900840E+02 -0.23922212367E+04  0.25098464491E+04  0.65864270000E+03 0. -1.
    8880022    1    1    2    0    0  0.36563286219E+03 -0.95441900840E+02 -0.94812800419E+03  0.10320537349E+04  0.15294330000E+03 0.  1.
<mgrwt>
<rscale>  0 0.64998737E+03</rscale>
<asrwt>0</asrwt>
<pdfrwt beam="1">  1        1 0.52940371E+00 0.75934627E+03</pdfrwt>
<pdfrwt beam="2">  1       -1 0.15503921E-01 0.75934627E+03</pdfrwt>
<totfact> 0.92878382E+00</totfact>
</mgrwt>
</event>
<event>
 4    2  0.4681349E-007  0.7730819E+03  0.7818608E-02  0.9772346E-01
         -1   -1    0    0    0  501 -0.00000000000E+00  0.00000000000E+00  0.39547802270E+03  0.39547802273E+03  0.50400000000E-02 0.  1.
          1   -1    0    0  501    0  0.00000000000E+00 -0.00000000000E+00 -0.91911016738E+03  0.91911016739E+03  0.50400000000E-02 0. -1.
    8880023    1    1    2    0    0 -0.40466485985E+03  0.95774829108E+01 -0.33338281976E+03  0.84190242175E+03  0.65864270000E+03 0.  0.
    8880022    1    1    2    0    0  0.40466485985E+03 -0.95774829108E+01 -0.19024932492E+03  0.47268576837E+03  0.15294330000E+03 0.  1.
<mgrwt>
<rscale>  0 0.66867962E+03</rscale>
<asrwt>0</asrwt>
<pdfrwt beam="1">  1        1 0.14140156E+00 0.77308187E+03</pdfrwt>
<pdfrwt beam="2">  1       -1 0.60842773E-01 0.77308187E+03</pdfrwt>
<totfact> 0.49120528E+01</totfact>
</mgrwt>
</event>
<event>
 4    2  0.4681349E-007  0.7721917E+03  0.7818608E-02  0.9774509E-01
         -1   -1    0    0    0  501 -0.00000000000E+00  0.00000000000E+00  0.36359124960E+03  0.36359124964E+03  0.50400000000E-02 0.  1.
          1   -1    0    0  501    0  0.00000000000E+00 -0.00000000000E+00 -0.10870383640E+04  0.10870383640E+04  0.50400000000E-02 0. -1.
    8880023    1    1    2    0    0  0.23265333670E+03  0.32915388607E+03 -0.65811420920E+03  0.10145907423E+04  0.65864270000E+03 0.  0.
    8880022    1    1    2    0    0 -0.23265333670E+03 -0.32915388607E+03 -0.65332905203E+02  0.43603887133E+03  0.15294330000E+03 0.  0.
<mgrwt>
<rscale>  0 0.66748658E+03</rscale>
<asrwt>0</asrwt>
<pdfrwt beam="1">  1        1 0.16723667E+00 0.77219173E+03</pdfrwt>
<pdfrwt beam="2">  1       -1 0.55937116E-01 0.77219173E+03</pdfrwt>
<totfact> 0.42903750E+01</totfact>
</mgrwt>
</event>
<event>
 4    2  0.4681349E-007  0.6847522E+03  0.7818608E-02  0.1006754E+00
          1   -1    0    0  501    0  0.00000000000E+00  0.00000000000E+00  0.51537656234E+03  0.51537656237E+03  0.50400000000E-02 0. -1.
         -1   -1    0    0    0  501 -0.00000000000E+00 -0.00000000000E+00 -0.58731604244E+03  0.58731604246E+03  0.50400000000E-02 0.  1.
    8880023    1    1    2    0    0 -0.10621747859E+03  0.15425060610E+03 -0.32039169378E+03  0.75600029494E+03  0.65864270000E+03 0.  0.
    8880022    1    1    2    0    0  0.10621747859E+03 -0.15425060610E+03  0.24845221368E+03  0.34669230989E+03  0.15294330000E+03 0.  0.
<mgrwt>
<rscale>  0 0.52785421E+03</rscale>
<asrwt>0</asrwt>
<pdfrwt beam="1">  1        1 0.79288702E-01 0.68475222E+03</pdfrwt>
<pdfrwt beam="2">  1       -1 0.90356314E-01 0.68475222E+03</pdfrwt>
<totfact> 0.52264589E+01</totfact>
</mgrwt>
</event>
<event>
 4    2  0.4681349E-007  0.9189591E+03  0.7818608E-02  0.9496257E-01
          1   -1    0    0  501    0  0.00000000000E+00  0.00000000000E+00  0.36452861189E+03  0.36452861192E+03  0.50400000000E-02 0. -1.
         -1   -1    0    0    0  501 -0.00000000000E+00 -0.00000000000E+00 -0.17650133596E+04  0.17650133596E+04  0.50400000000E-02 0.  1.
    8880023    1    1    2    0    0  0.13664896403E+03  0.62610115715E+03 -0.10018992253E+04  0.13595175108E+04  0.65864270000E+03 0.  0.
    8880022    1    1    2    0    0 -0.13664896403E+03 -0.62610115715E+03 -0.39858552240E+03  0.77002446067E+03  0.15294330000E+03 0.  0.
<mgrwt>
<rscale>  0 0.84560348E+03</rscale>
<asrwt>0</asrwt>
<pdfrwt beam="1">  1        1 0.56081326E-01 0.91895909E+03</pdfrwt>
<pdfrwt beam="2">  1       -1 0.27154051E+00 0.91895909E+03</pdfrwt>
<totfact> 0.34980265E+00</totfact>
</mgrwt>
</event>
<event>
 4    2  0.4681349E-007  0.8015746E+03  0.7818608E-02  0.9707402E-01
          1   -1    0    0  501    0  0.00000000000E+00  0.00000000000E+00  0.57579062000E+03  0.57579062002E+03  0.50400000000E-02 0. -1.
         -1   -1    0    0    0  501 -0.00000000000E+00 -0.00000000000E+00 -0.90747903094E+03  0.90747903096E+03  0.50400000000E-02 0.  1.
    8880023    1    1    2    0    0 -0.37982142997E+03  0.25386466544E+03 -0.53142539502E+03  0.96173527738E+03  0.65864270000E+03 0.  1.
    8880022    1    1    2    0    0  0.37982142997E+03 -0.25386466544E+03  0.19973698407E+03  0.52153437360E+03  0.15294330000E+03 0.  0.
<mgrwt>
<rscale>  0 0.70577797E+03</rscale>
<asrwt>0</asrwt>
<pdfrwt beam="1">  1        1 0.88583173E-01 0.80157457E+03</pdfrwt>
<pdfrwt beam="2">  1       -1 0.13961216E+00 0.80157457E+03</pdfrwt>
<totfact> 0.15677710E+01</totfact>
</mgrwt>
</event>
<event>
 4    2  0.4681349E-007  0.7009237E+03  0.7818608E-02  0.9993391E-01
          1   -1    0    0  501    0  0.00000000000E+00  0.00000000000E+00  0.19416322065E+04  0.19416322065E+04  0.50400000000E-02 0. -1.
         -1   -1    0    0    0  501 -0.00000000000E+00 -0.00000000000E+00 -0.23635621793E+03  0.23635621799E+03  0.50400000000E-02 0.  1.
    8880023    1    1    2    0    0  0.23970939018E+03 -0.48225191020E+01  0.33200109610E+03  0.77557641952E+03  0.65864270000E+03 0.  1.
    8880022    1    1    2    0    0 -0.23970939018E+03  0.48225191020E+01  0.13732748924E+04  0.14024120049E+04  0.15294330000E+03 0.  0.
<mgrwt>
<rscale>  0 0.55940995E+03</rscale>
<asrwt>0</asrwt>
<pdfrwt beam="1">  1        1 0.29871264E+00 0.70092372E+03</pdfrwt>
<pdfrwt beam="2">  1       -1 0.36362496E-01 0.70092372E+03</pdfrwt>
<totfact> 0.24726788E+01</totfact>
</mgrwt>
</event>
<event>
 4    2  0.4681349E-007  0.8589510E+03  0.7818608E-02  0.9595432E-01
         -1   -1    0    0    0  501 -0.00000000000E+00  0.00000000000E+00  0.20080298753E+03  0.20080298759E+03  0.50400000000E-02 0.  1.
          1   -1    0    0  501    0  0.00000000000E+00 -0.00000000000E+00 -0.34336626155E+04  0.34336626155E+04  0.50400000000E-02 0. -1.
    8880023    1    1    2    0    0 -0.21930832676E+03 -0.50585618963E+03 -0.94888930043E+03  0.12799170823E+04  0.65864270000E+03 0.  0.
    8880022    1    1    2    0    0  0.21930832676E+03  0.50585618963E+03 -0.22839703276E+04  0.23545485208E+04  0.15294330000E+03 0.  0.
<mgrwt>
<rscale>  0 0.77599251E+03</rscale>
<asrwt>0</asrwt>
<pdfrwt beam="1">  1        1 0.52825574E+00 0.85895101E+03</pdfrwt>
<pdfrwt beam="2">  1       -1 0.30892770E-01 0.85895101E+03</pdfrwt>
<totfact> 0.28914864E+00</totfact>
</mgrwt>
</event>
<event>
 4    2  0.4681349E-007  0.6898928E+03  0.7818608E-02  0.1004204E+00
         -1   -1    0    0    0  501 -0.00000000000E+00  0.00000000000E+00  0.10061214476E+04  0.10061214476E+04  0.50400000000E-02 0.  1.
          1   -1    0    0  501    0  0.00000000000E+00 -0.00000000000E+00 -0.33256282444E+03  0.33256282447E+03  0.50400000000E-02 0. -1.
    8880023    1    1    2    0    0 -0.17834443976E+03  0.10166210402E+03  0.79730647307E+03  0.10543480170E+04  0.65864270000E+03 0.  0.
    8880022    1    1    2    0    0  0.17834443976E+03 -0.10166210402E+03 -0.12374784994E+03  0.28433625510E+03  0.15294330000E+03 0.  0.
<mgrwt>
<rscale>  0 0.53844855E+03</rscale>
<asrwt>0</asrwt>
<pdfrwt beam="1">  1        1 0.51163512E-01 0.68989284E+03</pdfrwt>
<pdfrwt beam="2">  1       -1 0.15478791E+00 0.68989284E+03</pdfrwt>
<totfact> 0.25284228E+01</totfact>
</mgrwt>
</event>
<event>
 4    2  0.4681349E-007  0.6670137E+03  0.7818608E-02  0.1017901E+00
          1   -1    0    0  501    0  0.00000000000E+00  0.00000000000E+00  0.55674597298E+03  0.55674597300E+03  0.50400000000E-02 0. -1.
         -1   -1    0    0    0  501 -0.00000000000E+00 -0.00000000000E+00 -0.40841330148E+03  0.40841330151E+03  0.50400000000E-02 0.  1.
    8880023    1    1    2    0    0 -0.63188040087E+02  0.84286920511E+02 -0.78930883094E+02  0.67166755463E+03  0.65864270000E+03 0.  1.
    8880022    1    1    2    0    0  0.63188040087E+02 -0.84286920511E+02  0.22726355459E+03  0.29349171988E+03  0.15294330000E+03 0.  0.
<mgrwt>
<rscale>  0 0.48451876E+03</rscale>
<asrwt>0</asrwt>
<pdfrwt beam="1">  1        1 0.85653226E-01 0.66701366E+03</pdfrwt>
<pdfrwt beam="2">  1       -1 0.62832816E-01 0.66701366E+03</pdfrwt>
<totfact> 0.10031060E+02</totfact>
</mgrwt>
</event>
<event>
 4    2  0.4681349E-007  0.1138512E+04  0.7818608E-02  0.9219342E-01
         -1   -1    0    0    0  501 -0.00000000000E+00  0.00000000000E+00  0.59539944718E+03  0.59539944720E+03  0.50400000000E-02 0.  1.
          1   -1    0    0  501    0  0.00000000000E+00 -0.00000000000E+00 -0.20874791501E+04  0.20874791501E+04  0.50400000000E-02 0. -1.
    8880023    1    1    2    0    0  0.70372630276E+03 -0.60594440028E+03 -0.12894602826E+04  0.17201503865E+04  0.65864270000E+03 0.  0.
    8880022    1    1    2    0    0 -0.70372630276E+03  0.60594440028E+03 -0.20261942032E+03  0.96272821083E+03  0.15294330000E+03 0.  0.
<mgrwt>
<rscale>  0 0.10855994E+04</rscale>
<asrwt>0</asrwt>
<pdfrwt beam="1">  1        1 0.32115063E+00 0.11385120E+04</pdfrwt>
<pdfrwt beam="2">  1       -1 0.91599916E-01 0.11385120E+04</pdfrwt>
<totfact> 0.30027771E+00</totfact>
</mgrwt>
</event>
<event>
 4    2  0.4681349E-007  0.7548967E+03  0.7818608E-02  0.9818503E-01
          1   -1    0    0  501    0  0.00000000000E+00  0.00000000000E+00  0.58941859282E+03  0.58941859284E+03  0.50400000000E-02 0. -1.
         -1   -1    0    0    0  501 -0.00000000000E+00 -0.00000000000E+00 -0.18532600310E+04  0.18532600310E+04  0.50400000000E-02 0.  1.
    8880023    1    1    2    0    0 -0.48154637894E+02 -0.36570478445E+03 -0.16947034384E+04  0.18552328180E+04  0.65864270000E+03 0.  1.
    8880022    1    1    2    0    0  0.48154637894E+02  0.36570478445E+03  0.43086200025E+03  0.58744580584E+03  0.15294330000E+03 0.  0.
<mgrwt>
<rscale>  0 0.64378951E+03</rscale>
<asrwt>0</asrwt>
<pdfrwt beam="1">  1        1 0.90679784E-01 0.75489672E+03</pdfrwt>
<pdfrwt beam="2">  1       -1 0.28511692E+00 0.75489672E+03</pdfrwt>
<totfact> 0.15226044E+00</totfact>
</mgrwt>
</event>
<event>
 4    2  0.4681349E-007  0.7830617E+03  0.7818608E-02  0.9748694E-01
          1   -1    0    0  501    0  0.00000000000E+00  0.00000000000E+00  0.10706580214E+04  0.10706580214E+04  0.50400000000E-02 0. -1.
         -1   -1    0    0    0  501 -0.00000000000E+00 -0.00000000000E+00 -0.15544999863E+04  0.15544999863E+04  0.50400000000E-02 0.  1.
    8880023    1    1    2    0    0 -0.42350702365E+03 -0.41458977351E+01 -0.14001150382E+04  0.16042156071E+04  0.65864270000E+03 0.  0.
    8880022    1    1    2    0    0  0.42350702365E+03  0.41458977351E+01  0.91627307330E+03  0.10209424006E+04  0.15294330000E+03 0.  0.
<mgrwt>
<rscale>  0 0.68190150E+03</rscale>
<asrwt>0</asrwt>
<pdfrwt beam="1">  1        1 0.16471662E+00 0.78306168E+03</pdfrwt>
<pdfrwt beam="2">  1       -1 0.23915384E+00 0.78306168E+03</pdfrwt>
<totfact> 0.11440916E+00</totfact>
</mgrwt>
</event>
<event>
 4    2  0.4681349E-007  0.9097294E+03  0.7818608E-02  0.9510590E-01
         -1   -1    0    0    0  501 -0.00000000000E+00  0.00000000000E+00  0.14415090826E+04  0.14415090826E+04  0.50400000000E-02 0.  1.
          1   -1    0    0  501    0  0.00000000000E+00 -0.00000000000E+00 -0.11894367684E+04  0.11894367684E+04  0.50400000000E-02 0. -1.
    8880023    1    1    2    0    0 -0.62059623400E+03 -0.93046922673E+02 -0.91927544253E+03  0.12933193577E+04  0.65864270000E+03 0. -1.
    8880022    1    1    2    0    0  0.62059623400E+03  0.93046922673E+02  0.11713477568E+04  0.13376264934E+04  0.15294330000E+03 0.  0.
<mgrwt>
<rscale>  0 0.83507560E+03</rscale>
<asrwt>0</asrwt>
<pdfrwt beam="1">  1        1 0.18299027E+00 0.90972942E+03</pdfrwt>
<pdfrwt beam="2">  1       -1 0.22177063E+00 0.90972942E+03</pdfrwt>
<totfact> 0.11886787E+00</totfact>
</mgrwt>
</event>
<event>
 4    2  0.4681349E-007  0.7464691E+03  0.7818608E-02  0.9841488E-01
         -1   -1    0    0    0  501 -0.00000000000E+00  0.00000000000E+00  0.50369971755E+03  0.50369971758E+03  0.50400000000E-02 0.  1.
          1   -1    0    0  501    0  0.00000000000E+00 -0.00000000000E+00 -0.75686125673E+03  0.75686125675E+03  0.50400000000E-02 0. -1.
    8880023    1    1    2    0    0 -0.31930907925E+03  0.14645011401E+03  0.82719023230E+02  0.75103832595E+03  0.65864270000E+03 0.  1.
    8880022    1    1    2    0    0  0.31930907925E+03 -0.14645011401E+03 -0.33588056241E+03  0.50952264837E+03  0.15294330000E+03 0.  0.
<mgrwt>
<rscale>  0 0.63182781E+03</rscale>
<asrwt>0</asrwt>
<pdfrwt beam="1">  1        1 0.11644019E+00 0.74646911E+03</pdfrwt>
<pdfrwt beam="2">  1       -1 0.77492264E-01 0.74646911E+03</pdfrwt>
<totfact> 0.41266821E+01</totfact>
</mgrwt>
</event>
<event>
 4    2  0.4681349E-007  0.6925347E+03  0.7818608E-02  0.1002970E+00
          1   -1    0    0  501    0  0.00000000000E+00  0.00000000000E+00  0.22386881019E+04  0.22386881019E+04  0.50400000000E-02 0. -1.
         -1   -1    0    0    0  501 -0.00000000000E+00 -0.00000000000E+00 -0.67494105572E+03  0.67494105574E+03  0.50400000000E-02 0.  1.
    8880023    1    1    2    0    0 -0.21028505532E+03 -0.39677266631E+02 -0.48665401130E+03  0.84642567480E+03  0.65864270000E+03 0.  1.
    8880022    1    1    2    0    0  0.21028505532E+03  0.39677266631E+02  0.20504010575E+04  0.20672034829E+04  0.15294330000E+03 0.  0.
<mgrwt>
<rscale>  0 0.54366732E+03</rscale>
<asrwt>0</asrwt>
<pdfrwt beam="1">  1        1 0.34441355E+00 0.69253469E+03</pdfrwt>
<pdfrwt beam="2">  1       -1 0.10383709E+00 0.69253469E+03</pdfrwt>
<totfact> 0.19202361E+00</totfact>
</mgrwt>
</event>
<event>
 4    2  0.4681349E-007  0.6948712E+03  0.7818608E-02  0.1001918E+00
         -1   -1    0    0    0  501 -0.00000000000E+00  0.00000000000E+00  0.46011637567E+03  0.46011637570E+03  0.50400000000E-02 0.  1.
          1   -1    0    0  501    0  0.00000000000E+00 -0.00000000000E+00 -0.14331879796E+04  0.14331879796E+04  0.50400000000E-02 0. -1.
    8880023    1    1    2    0    0 -0.81045116389E+02 -0.20607641636E+03  0.17297983459E+03  0.71607822877E+03  0.65864270000E+03 0.  1.
    8880022    1    1    2    0    0  0.81045116389E+02  0.20607641636E+03 -0.11460514385E+04  0.11772261265E+04  0.15294330000E+03 0.  0.
<mgrwt>
<rscale>  0 0.54817111E+03</rscale>
<asrwt>0</asrwt>
<pdfrwt beam="1">  1        1 0.22049046E+00 0.69487122E+03</pdfrwt>
<pdfrwt beam="2">  1       -1 0.70787136E-01 0.69487122E+03</pdfrwt>
<totfact> 0.15321176E+01</totfact>
</mgrwt>
</event>
<event>
 4    2  0.4681349E-007  0.6633992E+03  0.7818608E-02  0.1020916E+00
          1   -1    0    0  501    0  0.00000000000E+00  0.00000000000E+00  0.13981489077E+04  0.13981489077E+04  0.50400000000E-02 0. -1.
         -1   -1    0    0    0  501 -0.00000000000E+00 -0.00000000000E+00 -0.18140843583E+03  0.18140843590E+03  0.50400000000E-02 0.  1.
    8880023    1    1    2    0    0 -0.60190219840E+02 -0.51627544435E+02  0.46953748983E+03  0.81275083914E+03  0.65864270000E+03 0.  1.
    8880022    1    1    2    0    0  0.60190219840E+02  0.51627544435E+02  0.74720298208E+03  0.76680650450E+03  0.15294330000E+03 0.  0.
<mgrwt>
<rscale>  0 0.47357529E+03</rscale>
<asrwt>0</asrwt>
<pdfrwt beam="1">  1        1 0.21509983E+00 0.66339918E+03</pdfrwt>
<pdfrwt beam="2">  1       -1 0.27908990E-01 0.66339918E+03</pdfrwt>
<totfact> 0.91978641E+01</totfact>
</mgrwt>
</event>
<event>
 4    2  0.4681349E-007  0.7528241E+03  0.7818608E-02  0.9824052E-01
         -1   -1    0    0    0  501 -0.00000000000E+00  0.00000000000E+00  0.45062224290E+03  0.45062224293E+03  0.50400000000E-02 0.  1.
          1   -1    0    0  501    0  0.00000000000E+00 -0.00000000000E+00 -0.93255878924E+03  0.93255878925E+03  0.50400000000E-02 0. -1.
    8880023    1    1    2    0    0  0.34996413895E+03  0.10226907789E+03  0.89376852996E+01  0.75287711569E+03  0.65864270000E+03 0.  1.
    8880022    1    1    2    0    0 -0.34996413895E+03 -0.10226907789E+03 -0.49087423164E+03  0.63030391649E+03  0.15294330000E+03 0.  0.
<mgrwt>
<rscale>  0 0.64087577E+03</rscale>
<asrwt>0</asrwt>
<pdfrwt beam="1">  1        1 0.14347058E+00 0.75282406E+03</pdfrwt>
<pdfrwt beam="2">  1       -1 0.69326499E-01 0.75282406E+03</pdfrwt>
<totfact> 0.36932674E+01</totfact>
</mgrwt>
</event>
<event>
 4    2  0.4681349E-007  0.7319124E+03  0.7818608E-02  0.9884164E-01
          1   -1    0    0  501    0  0.00000000000E+00  0.00000000000E+00  0.14802510426E+04  0.14802510426E+04  0.50400000000E-02 0. -1.
         -1   -1    0    0    0  501 -0.00000000000E+00 -0.00000000000E+00 -0.25152547372E+03  0.25152547377E+03  0.50400000000E-02 0.  1.
    8880023    1    1    2    0    0  0.31540912462E+03  0.49017121805E+02  0.40792405733E+03  0.83791278599E+03  0.65864270000E+03 0.  0.
    8880022    1    1    2    0    0 -0.31540912462E+03 -0.49017121805E+02  0.82080151151E+03  0.89386373035E+03  0.15294330000E+03 0.  0.
<mgrwt>
<rscale>  0 0.61034918E+03</rscale>
<asrwt>0</asrwt>
<pdfrwt beam="1">  1        1 0.22773093E+00 0.73191243E+03</pdfrwt>
<pdfrwt beam="2">  1       -1 0.38696227E-01 0.73191243E+03</pdfrwt>
<totfact> 0.45034091E+01</totfact>
</mgrwt>
</event>
<event>
 4    2  0.4681349E-007  0.6886399E+03  0.7818608E-02  0.1004806E+00
          1   -1    0    0  501    0  0.00000000000E+00  0.00000000000E+00  0.60527054712E+03  0.60527054715E+03  0.50400000000E-02 0. -1.
         -1   -1    0    0    0  501 -0.00000000000E+00 -0.00000000000E+00 -0.41046633139E+03  0.41046633143E+03  0.50400000000E-02 0.  1.
    8880023    1    1    2    0    0 -0.54985009941E+02  0.19336859748E+03 -0.12820295500E+02  0.68875927003E+03  0.65864270000E+03 0.  1.
    8880022    1    1    2    0    0  0.54985009941E+02 -0.19336859748E+03  0.20762451123E+03  0.32697760854E+03  0.15294330000E+03 0.  0.
<mgrwt>
<rscale>  0 0.53592276E+03</rscale>
<asrwt>0</asrwt>
<pdfrwt beam="1">  1        1 0.93118545E-01 0.68863994E+03</pdfrwt>
<pdfrwt beam="2">  1       -1 0.63148667E-01 0.68863994E+03</pdfrwt>
<totfact> 0.88041819E+01</totfact>
</mgrwt>
</event>
<event>
 4    2  0.9904431E-007  0.6612229E+03  0.7818608E-02  0.1022937E+00
          1   -1    0    0  501    0  0.00000000000E+00  0.00000000000E+00  0.19657159450E+04  0.19657159450E+04  0.50400000000E-02 0. -1.
         -1   -1    0    0    0  501 -0.00000000000E+00 -0.00000000000E+00 -0.13566941326E+04  0.13566941326E+04  0.50400000000E-02 0.  1.
    8880023    1    1    2    0    0 -0.31224593198E+02 -0.49300650425E+02 -0.12723620200E+04  0.14339180052E+04  0.65864270000E+03 0.  1.
    8880022    1    1    2    0    0  0.31224593198E+02  0.49300650425E+02  0.18813838325E+04  0.18884920724E+04  0.15294330000E+03 0.  0.
<mgrwt>
<rscale>  0 0.46641452E+03</rscale>
<asrwt>0</asrwt>
<pdfrwt beam="1">  1        1 0.30241784E+00 0.66122291E+03</pdfrwt>
<pdfrwt beam="2">  1       -1 0.20872218E+00 0.66122291E+03</pdfrwt>
<totfact> 0.44925681E-01</totfact>
</mgrwt>
</event>
<event>
 4    2  0.4681349E-007  0.6949859E+03  0.7818608E-02  0.1001867E+00
         -1   -1    0    0    0  501 -0.00000000000E+00  0.00000000000E+00  0.27464829151E+03  0.27464829155E+03  0.50400000000E-02 0.  1.
          1   -1    0    0  501    0  0.00000000000E+00 -0.00000000000E+00 -0.20510492733E+04  0.20510492733E+04  0.50400000000E-02 0. -1.
    8880023    1    1    2    0    0 -0.13159036988E+02  0.22140923907E+03 -0.19543866252E+03  0.72194299530E+03  0.65864270000E+03 0.  1.
    8880022    1    1    2    0    0  0.13159036988E+02 -0.22140923907E+03 -0.15809623193E+04  0.16037545695E+04  0.15294330000E+03 0.  0.
<mgrwt>
<rscale>  0 0.54838966E+03</rscale>
<asrwt>0</asrwt>
<pdfrwt beam="1">  1        1 0.31554603E+00 0.69498591E+03</pdfrwt>
<pdfrwt beam="2">  1       -1 0.42253585E-01 0.69498591E+03</pdfrwt>
<totfact> 0.15939474E+01</totfact>
</mgrwt>
</event>
<event>
 4    2  0.4681349E-007  0.8163245E+03  0.7818608E-02  0.9676551E-01
          1   -1    0    0  501    0  0.00000000000E+00  0.00000000000E+00  0.17579816853E+04  0.17579816853E+04  0.50400000000E-02 0. -1.
         -1   -1    0    0    0  501 -0.00000000000E+00 -0.00000000000E+00 -0.94118815990E+03  0.94118815992E+03  0.50400000000E-02 0.  1.
    8880023    1    1    2    0    0  0.48065882195E+03  0.39275183006E+02 -0.71550318991E+03  0.10855093109E+04  0.65864270000E+03 0.  0.
    8880022    1    1    2    0    0 -0.48065882195E+03 -0.39275183006E+02  0.15322967153E+04  0.16136605343E+04  0.15294330000E+03 0.  0.
<mgrwt>
<rscale>  0 0.72430275E+03</rscale>
<asrwt>0</asrwt>
<pdfrwt beam="1">  1        1 0.27045872E+00 0.81632448E+03</pdfrwt>
<pdfrwt beam="2">  1       -1 0.14479818E+00 0.81632448E+03</pdfrwt>
<totfact> 0.17327925E+00</totfact>
</mgrwt>
</event>
<event>
 4    2  0.5889283E-007  0.9482440E+03  0.7818608E-02  0.9452645E-01
          1   -1    0    0  501    0  0.00000000000E+00  0.00000000000E+00  0.34193981583E+04  0.34193981583E+04  0.50400000000E-02 0. -1.
         -1   -1    0    0    0  501 -0.00000000000E+00 -0.00000000000E+00 -0.83116517332E+03  0.83116517334E+03  0.50400000000E-02 0.  1.
    8880023    1    1    2    0    0  0.53964337637E+03  0.41730256673E+03 -0.50844112124E+03  0.10759549182E+04  0.65864270000E+03 0.  1.
    8880022    1    1    2    0    0 -0.53964337637E+03 -0.41730256673E+03  0.30966741062E+04  0.31746084135E+04  0.15294330000E+03 0.  0.
<mgrwt>
<rscale>  0 0.87866979E+03</rscale>
<asrwt>0</asrwt>
<pdfrwt beam="1">  1        1 0.52606125E+00 0.94824396E+03</pdfrwt>
<pdfrwt beam="2">  1       -1 0.12787157E+00 0.94824396E+03</pdfrwt>
<totfact> 0.16020422E-01</totfact>
</mgrwt>
</event>
<event>
 4    2  0.4681349E-007  0.9752234E+03  0.7818608E-02  0.9414716E-01
          1   -1    0    0  501    0  0.00000000000E+00  0.00000000000E+00  0.65268850836E+03  0.65268850838E+03  0.50400000000E-02 0. -1.
         -1   -1    0    0    0  501 -0.00000000000E+00 -0.00000000000E+00 -0.13529327118E+04  0.13529327119E+04  0.50400000000E-02 0.  1.
    8880023    1    1    2    0    0  0.24712864330E+03 -0.67540949945E+03 -0.80288982865E+03  0.12632073628E+04  0.65864270000E+03 0.  0.
    8880022    1    1    2    0    0 -0.24712864330E+03  0.67540949945E+03  0.10264562516E+03  0.74241385740E+03  0.15294330000E+03 0.  0.
<mgrwt>
<rscale>  0 0.90874460E+03</rscale>
<asrwt>0</asrwt>
<pdfrwt beam="1">  1        1 0.10041362E+00 0.97522344E+03</pdfrwt>
<pdfrwt beam="2">  1       -1 0.20814349E+00 0.97522344E+03</pdfrwt>
<totfact> 0.40363899E+00</totfact>
</mgrwt>
</event>
<event>
 4    2  0.4681349E-007  0.7640668E+03  0.7818608E-02  0.9794690E-01
         -1   -1    0    0    0  501 -0.00000000000E+00  0.00000000000E+00  0.44918044899E+03  0.44918044902E+03  0.50400000000E-02 0.  1.
          1   -1    0    0  501    0  0.00000000000E+00 -0.00000000000E+00 -0.11794871917E+04  0.11794871917E+04  0.50400000000E-02 0. -1.
    8880023    1    1    2    0    0 -0.20066364865E+03 -0.33124313924E+03  0.26883871304E+02  0.76453964317E+03  0.65864270000E+03 0.  1.
    8880022    1    1    2    0    0  0.20066364865E+03  0.33124313924E+03 -0.75719061396E+03  0.86412799751E+03  0.15294330000E+03 0.  0.
<mgrwt>
<rscale>  0 0.65648265E+03</rscale>
<asrwt>0</asrwt>
<pdfrwt beam="1">  1        1 0.18145957E+00 0.76406683E+03</pdfrwt>
<pdfrwt beam="2">  1       -1 0.69104685E-01 0.76406683E+03</pdfrwt>
<totfact> 0.24097099E+01</totfact>
</mgrwt>
</event>
<event>
 4    2  0.4681349E-007  0.7494105E+03  0.7818608E-02  0.9833337E-01
          1   -1    0    0  501    0  0.00000000000E+00  0.00000000000E+00  0.30180990563E+04  0.30180990563E+04  0.50400000000E-02 0. -1.
         -1   -1    0    0    0  501 -0.00000000000E+00 -0.00000000000E+00 -0.25073940341E+03  0.25073940346E+03  0.50400000000E-02 0.  1.
    8880023    1    1    2    0    0 -0.19894802105E+02  0.35694557989E+03  0.36201789988E+03  0.83226985783E+03  0.65864270000E+03 0.  1.
    8880022    1    1    2    0    0  0.19894802105E+02 -0.35694557989E+03  0.24053417530E+04  0.24365686019E+04  0.15294330000E+03 0.  0.
<mgrwt>
<rscale>  0 0.63603785E+03</rscale>
<asrwt>0</asrwt>
<pdfrwt beam="1">  1        1 0.46432292E+00 0.74941054E+03</pdfrwt>
<pdfrwt beam="2">  1       -1 0.38575294E-01 0.74941054E+03</pdfrwt>
<totfact> 0.40375118E+00</totfact>
</mgrwt>
</event>
<event>
 4    2  0.4681349E-007  0.1403968E+04  0.7818608E-02  0.8980606E-01
          1   -1    0    0  501    0  0.00000000000E+00  0.00000000000E+00  0.22002272355E+04  0.22002272355E+04  0.50400000000E-02 0. -1.
         -1   -1    0    0    0  501 -0.00000000000E+00 -0.00000000000E+00 -0.18277684192E+04  0.18277684192E+04  0.50400000000E-02 0.  1.
    8880023    1    1    2    0    0 -0.10698972673E+04 -0.62660662040E+03 -0.13182180952E+04  0.19258310342E+04  0.65864270000E+03 0.  0.
    8880022    1    1    2    0    0  0.10698972673E+04  0.62660662040E+03  0.16906769115E+04  0.21021646205E+04  0.15294330000E+03 0.  0.
<mgrwt>
<rscale>  0 0.13635878E+04</rscale>
<asrwt>0</asrwt>
<pdfrwt beam="1">  1        1 0.33849650E+00 0.14039680E+04</pdfrwt>
<pdfrwt beam="2">  1       -1 0.28119514E+00 0.14039680E+04</pdfrwt>
<totfact> 0.90978550E-02</totfact>
</mgrwt>
</event>
<event>
 4    2  0.4681349E-007  0.6604713E+03  0.7818608E-02  0.1023679E+00
         -1   -1    0    0    0  501 -0.00000000000E+00  0.00000000000E+00  0.52818658670E+03  0.52818658673E+03  0.50400000000E-02 0.  1.
          1   -1    0    0  501    0  0.00000000000E+00 -0.00000000000E+00 -0.19560460004E+04  0.19560460004E+04  0.50400000000E-02 0. -1.
    8880023    1    1    2    0    0 -0.31258880864E+02  0.37882072131E+02  0.31657196213E+03  0.73242076875E+03  0.65864270000E+03 0.  1.
    8880022    1    1    2    0    0  0.31258880864E+02 -0.37882072131E+02 -0.17444313758E+04  0.17518118184E+04  0.15294330000E+03 0.  0.
<mgrwt>
<rscale>  0 0.46382161E+03</rscale>
<asrwt>0</asrwt>
<pdfrwt beam="1">  1        1 0.30093015E+00 0.66047133E+03</pdfrwt>
<pdfrwt beam="2">  1       -1 0.81259476E-01 0.66047133E+03</pdfrwt>
<totfact> 0.51367669E+00</totfact>
</mgrwt>
</event>
<event>
 4    2  0.4681349E-007  0.8717397E+03  0.7818608E-02  0.9573012E-01
         -1   -1    0    0    0  501 -0.00000000000E+00  0.00000000000E+00  0.80993448939E+03  0.80993448940E+03  0.50400000000E-02 0.  1.
          1   -1    0    0  501    0  0.00000000000E+00 -0.00000000000E+00 -0.66536833813E+03  0.66536833815E+03  0.50400000000E-02 0. -1.
    8880023    1    1    2    0    0  0.45038620250E+03  0.35110143074E+03  0.24764617843E+02  0.87209141644E+03  0.65864270000E+03 0. -1.
    8880022    1    1    2    0    0 -0.45038620250E+03 -0.35110143074E+03  0.11980153342E+03  0.60321141111E+03  0.15294330000E+03 0.  1.
<mgrwt>
<rscale>  0 0.79108441E+03</rscale>
<asrwt>0</asrwt>
<pdfrwt beam="1">  1        1 0.10236436E+00 0.87173973E+03</pdfrwt>
<pdfrwt beam="2">  1       -1 0.12460531E+00 0.87173973E+03</pdfrwt>
<totfact> 0.16827273E+01</totfact>
</mgrwt>
</event>
<event>
 4    2  0.4681349E-007  0.6789641E+03  0.7818608E-02  0.1009916E+00
          1   -1    0    0  501    0  0.00000000000E+00  0.00000000000E+00  0.19209680417E+04  0.19209680417E+04  0.50400000000E-02 0. -1.
         -1   -1    0    0    0  501 -0.00000000000E+00 -0.00000000000E+00 -0.55133385179E+03  0.55133385181E+03  0.50400000000E-02 0.  1.
    8880023    1    1    2    0    0 -0.31131309144E+02 -0.16190399013E+03 -0.33205814508E+03  0.75581405015E+03  0.65864270000E+03 0.  1.
    8880022    1    1    2    0    0  0.31131309144E+02  0.16190399013E+03  0.17016923350E+04  0.17164878434E+04  0.15294330000E+03 0.  0.
<mgrwt>
<rscale>  0 0.51508123E+03</rscale>
<asrwt>0</asrwt>
<pdfrwt beam="1">  1        1 0.29553354E+00 0.67896411E+03</pdfrwt>
<pdfrwt beam="2">  1       -1 0.84820594E-01 0.67896411E+03</pdfrwt>
<totfact> 0.49271542E+00</totfact>
</mgrwt>
</event>
<event>
 4    2  0.4804304E-007  0.9868149E+03  0.7818608E-02  0.9399015E-01
         -1   -1    0    0    0  501 -0.00000000000E+00  0.00000000000E+00  0.10571528848E+04  0.10571528848E+04  0.50400000000E-02 0.  1.
          1   -1    0    0  501    0  0.00000000000E+00 -0.00000000000E+00 -0.29527243702E+04  0.29527243702E+04  0.50400000000E-02 0. -1.
    8880023    1    1    2    0    0  0.41526845649E+03 -0.60625528717E+03  0.76299642856E+03  0.12473841110E+04  0.65864270000E+03 0.  1.
    8880022    1    1    2    0    0 -0.41526845649E+03  0.60625528717E+03 -0.26585679140E+04  0.27624931440E+04  0.15294330000E+03 0.  0.
<mgrwt>
<rscale>  0 0.92156808E+03</rscale>
<asrwt>0</asrwt>
<pdfrwt beam="1">  1        1 0.45426528E+00 0.98681486E+03</pdfrwt>
<pdfrwt beam="2">  1       -1 0.16263891E+00 0.98681486E+03</pdfrwt>
<totfact> 0.18600152E-01</totfact>
</mgrwt>
</event>
<event>
 4    2  0.4681349E-007  0.1159336E+04  0.7818608E-02  0.9197701E-01
         -1   -1    0    0    0  501 -0.00000000000E+00  0.00000000000E+00  0.10117685461E+04  0.10117685462E+04  0.50400000000E-02 0.  1.
          1   -1    0    0  501    0  0.00000000000E+00 -0.00000000000E+00 -0.21681294602E+04  0.21681294602E+04  0.50400000000E-02 0. -1.
    8880023    1    1    2    0    0 -0.92413038296E+03 -0.23713302713E+03  0.49979519334E+03  0.12624794964E+04  0.65864270000E+03 0.  0.
    8880022    1    1    2    0    0  0.92413038296E+03  0.23713302713E+03 -0.16561561074E+04  0.19174185100E+04  0.15294330000E+03 0.  0.
<mgrwt>
<rscale>  0 0.11077184E+04</rscale>
<asrwt>0</asrwt>
<pdfrwt beam="1">  1        1 0.33355838E+00 0.11593357E+04</pdfrwt>
<pdfrwt beam="2">  1       -1 0.15565670E+00 0.11593357E+04</pdfrwt>
<totfact> 0.71470785E-01</totfact>
</mgrwt>
</event>
<event>
 4    2  0.4681349E-007  0.1432484E+04  0.7818608E-02  0.8958844E-01
          1   -1    0    0  501    0  0.00000000000E+00  0.00000000000E+00  0.27831632460E+04  0.27831632460E+04  0.50400000000E-02 0. -1.
         -1   -1    0    0    0  501 -0.00000000000E+00 -0.00000000000E+00 -0.13440266107E+04  0.13440266107E+04  0.50400000000E-02 0.  1.
    8880023    1    1    2    0    0  0.12678329870E+04  0.10392270641E+03 -0.73011351023E+03  0.16078172645E+04  0.65864270000E+03 0.  0.
    8880022    1    1    2    0    0 -0.12678329870E+04 -0.10392270641E+03  0.21692501455E+04  0.25193725922E+04  0.15294330000E+03 0.  0.
<mgrwt>
<rscale>  0 0.13930782E+04</rscale>
<asrwt>0</asrwt>
<pdfrwt beam="1">  1        1 0.42817896E+00 0.14324841E+04</pdfrwt>
<pdfrwt beam="2">  1       -1 0.20677333E+00 0.14324841E+04</pdfrwt>
<totfact> 0.11061106E-01</totfact>
</mgrwt>
</event>
<event>
 4    2  0.4681349E-007  0.7111386E+03  0.7818608E-02  0.9953797E-01
         -1   -1    0    0    0  501 -0.00000000000E+00  0.00000000000E+00  0.19072921571E+03  0.19072921578E+03  0.50400000000E-02 0.  1.
          1   -1    0    0  501    0  0.00000000000E+00 -0.00000000000E+00 -0.31364088649E+04  0.31364088649E+04  0.50400000000E-02 0. -1.
    8880023    1    1    2    0    0  0.26709625611E+03 -0.23822253491E+02 -0.51772033277E+03  0.87963200204E+03  0.65864270000E+03 0.  1.
    8880022    1    1    2    0    0 -0.26709625611E+03  0.23822253491E+02 -0.24279593164E+04  0.24475060786E+04  0.15294330000E+03 0.  0.
<mgrwt>
<rscale>  0 0.57723420E+03</rscale>
<asrwt>0</asrwt>
<pdfrwt beam="1">  1        1 0.48252440E+00 0.71113861E+03</pdfrwt>
<pdfrwt beam="2">  1       -1 0.29342959E-01 0.71113861E+03</pdfrwt>
<totfact> 0.54204319E+00</totfact>
</mgrwt>
</event>
<event>
 4    2  0.4681349E-007  0.7025028E+03  0.7818608E-02  0.9986973E-01
          1   -1    0    0  501    0  0.00000000000E+00  0.00000000000E+00  0.21608644440E+04  0.21608644440E+04  0.50400000000E-02 0. -1.
         -1   -1    0    0    0  501 -0.00000000000E+00 -0.00000000000E+00 -0.11377914955E+03  0.11377914966E+03  0.50400000000E-02 0.  1.
    8880023    1    1    2    0    0 -0.21921539093E+03 -0.10790996989E+03  0.14059731480E+04  0.15717094669E+04  0.65864270000E+03 0.  0.
    8880022    1    1    2    0    0  0.21921539093E+03  0.10790996989E+03  0.64111214640E+03  0.70293412672E+03  0.15294330000E+03 0. -1.
<mgrwt>
<rscale>  0 0.56225157E+03</rscale>
<asrwt>0</asrwt>
<pdfrwt beam="1">  1        1 0.33244068E+00 0.70250278E+03</pdfrwt>
<pdfrwt beam="2">  1       -1 0.17504485E-01 0.70250278E+03</pdfrwt>
<totfact> 0.61557900E+01</totfact>
</mgrwt>
</event>
<event>
 4    2  0.4681349E-007  0.8184691E+03  0.7818608E-02  0.9672199E-01
         -1   -1    0    0    0  501 -0.00000000000E+00  0.00000000000E+00  0.57267825268E+03  0.57267825270E+03  0.50400000000E-02 0.  1.
          1   -1    0    0  501    0  0.00000000000E+00 -0.00000000000E+00 -0.17804189453E+04  0.17804189453E+04  0.50400000000E-02 0. -1.
    8880023    1    1    2    0    0  0.36287113669E+03  0.32311920675E+03  0.21138066690E+03  0.84532447984E+03  0.65864270000E+03 0.  0.
    8880022    1    1    2    0    0 -0.36287113669E+03 -0.32311920675E+03 -0.14191213595E+04  0.15077727182E+04  0.15294330000E+03 0.  0.
<mgrwt>
<rscale>  0 0.72696461E+03</rscale>
<asrwt>0</asrwt>
<pdfrwt beam="1">  1        1 0.27391061E+00 0.81846911E+03</pdfrwt>
<pdfrwt beam="2">  1       -1 0.88104347E-01 0.81846911E+03</pdfrwt>
<totfact> 0.54999928E+00</totfact>
</mgrwt>
</event>
<event>
 4    2  0.4681349E-007  0.6850541E+03  0.7818608E-02  0.1006598E+00
         -1   -1    0    0    0  501 -0.00000000000E+00  0.00000000000E+00  0.26393660137E+03  0.26393660142E+03  0.50400000000E-02 0.  1.
          1   -1    0    0  501    0  0.00000000000E+00 -0.00000000000E+00 -0.91735236848E+03  0.91735236849E+03  0.50400000000E-02 0. -1.
    8880023    1    1    2    0    0  0.31662900767E+02 -0.18570510417E+03 -0.28909439955E+03  0.74355544724E+03  0.65864270000E+03 0.  1.
    8880022    1    1    2    0    0 -0.31662900767E+02  0.18570510417E+03 -0.36432136755E+03  0.43773352267E+03  0.15294330000E+03 0.  0.
<mgrwt>
<rscale>  0 0.52849413E+03</rscale>
<asrwt>0</asrwt>
<pdfrwt beam="1">  1        1 0.14113113E+00 0.68505411E+03</pdfrwt>
<pdfrwt beam="2">  1       -1 0.40605632E-01 0.68505411E+03</pdfrwt>
<totfact> 0.10682897E+02</totfact>
</mgrwt>
</event>
<event>
 4    2  0.4681349E-007  0.8522833E+03  0.7818608E-02  0.9607440E-01
         -1   -1    0    0    0  501 -0.00000000000E+00  0.00000000000E+00  0.85960525674E+03  0.85960525675E+03  0.50400000000E-02 0.  1.
          1   -1    0    0  501    0  0.00000000000E+00 -0.00000000000E+00 -0.13712264369E+04  0.13712264369E+04  0.50400000000E-02 0. -1.
    8880023    1    1    2    0    0 -0.53846040387E+03  0.51351135593E+02  0.56065161707E+03  0.10201553743E+04  0.65864270000E+03 0.  1.
    8880022    1    1    2    0    0  0.53846040387E+03 -0.51351135593E+02 -0.10722727972E+04  0.12106763194E+04  0.15294330000E+03 0.  0.
<mgrwt>
<rscale>  0 0.76805689E+03</rscale>
<asrwt>0</asrwt>
<pdfrwt beam="1">  1        1 0.21095791E+00 0.85228326E+03</pdfrwt>
<pdfrwt beam="2">  1       -1 0.13224696E+00 0.85228326E+03</pdfrwt>
<totfact> 0.40051327E+00</totfact>
</mgrwt>
</event>
<event>
 4    2  0.4681349E-007  0.8792209E+03  0.7818608E-02  0.9560247E-01
         -1   -1    0    0    0  501 -0.00000000000E+00  0.00000000000E+00  0.58469957498E+03  0.58469957500E+03  0.50400000000E-02 0.  1.
          1   -1    0    0  501    0  0.00000000000E+00 -0.00000000000E+00 -0.12271410494E+04  0.12271410494E+04  0.50400000000E-02 0. -1.
    8880023    1    1    2    0    0  0.70377135942E+02 -0.57815769779E+03 -0.80074251680E+03  0.11892090015E+04  0.65864270000E+03 0.  0.
    8880022    1    1    2    0    0 -0.70377135942E+02  0.57815769779E+03  0.15830104241E+03  0.62263162288E+03  0.15294330000E+03 0.  0.
<mgrwt>
<rscale>  0 0.79984094E+03</rscale>
<asrwt>0</asrwt>
<pdfrwt beam="1">  1        1 0.18879093E+00 0.87922095E+03</pdfrwt>
<pdfrwt beam="2">  1       -1 0.89953781E-01 0.87922095E+03</pdfrwt>
<totfact> 0.12555969E+01</totfact>
</mgrwt>
</event>
<event>
 4    2  0.4681349E-007  0.6963838E+03  0.7818608E-02  0.1001255E+00
         -1   -1    0    0    0  501 -0.00000000000E+00  0.00000000000E+00  0.27182405277E+03  0.27182405282E+03  0.50400000000E-02 0.  1.
          1   -1    0    0  501    0  0.00000000000E+00 -0.00000000000E+00 -0.89413372444E+03  0.89413372446E+03  0.50400000000E-02 0. -1.
    8880023    1    1    2    0    0 -0.92327466216E+02 -0.20643594092E+03 -0.34628733097E+03  0.77773085356E+03  0.65864270000E+03 0.  1.
    8880022    1    1    2    0    0  0.92327466216E+02  0.20643594092E+03 -0.27602234070E+03  0.38822692372E+03  0.15294330000E+03 0. -1.
<mgrwt>
<rscale>  0 0.55103501E+03</rscale>
<asrwt>0</asrwt>
<pdfrwt beam="1">  1        1 0.13755903E+00 0.69638378E+03</pdfrwt>
<pdfrwt beam="2">  1       -1 0.41819085E-01 0.69638378E+03</pdfrwt>
<totfact> 0.10561550E+02</totfact>
</mgrwt>
</event>
<event>
 4    2  0.4681349E-007  0.8631827E+03  0.7818608E-02  0.9587927E-01
          1   -1    0    0  501    0  0.00000000000E+00  0.00000000000E+00  0.27000862924E+04  0.27000862924E+04  0.50400000000E-02 0. -1.
         -1   -1    0    0    0  501 -0.00000000000E+00 -0.00000000000E+00 -0.31629761869E+03  0.31629761873E+03  0.50400000000E-02 0.  1.
    8880023    1    1    2    0    0  0.98714759153E+02  0.54911705308E+03  0.40258785345E+03  0.95245017070E+03  0.65864270000E+03 0.  1.
    8880022    1    1    2    0    0 -0.98714759153E+02 -0.54911705308E+03  0.19812008203E+04  0.20639337405E+04  0.15294330000E+03 0.  0.
<mgrwt>
<rscale>  0 0.78100436E+03</rscale>
<asrwt>0</asrwt>
<pdfrwt beam="1">  1        1 0.41539792E+00 0.86318269E+03</pdfrwt>
<pdfrwt beam="2">  1       -1 0.48661169E-01 0.86318269E+03</pdfrwt>
<totfact> 0.43241323E+00</totfact>
</mgrwt>
</event>
<event>
 4    2  0.4681349E-007  0.7028695E+03  0.7818608E-02  0.9985499E-01
          1   -1    0    0  501    0  0.00000000000E+00  0.00000000000E+00  0.12463627017E+04  0.12463627017E+04  0.50400000000E-02 0. -1.
         -1   -1    0    0    0  501 -0.00000000000E+00 -0.00000000000E+00 -0.21535006080E+03  0.21535006086E+03  0.50400000000E-02 0.  1.
    8880023    1    1    2    0    0  0.52447210328E+02 -0.23971780711E+03  0.51908722518E+03  0.87377176112E+03  0.65864270000E+03 0.  1.
    8880022    1    1    2    0    0 -0.52447210328E+02  0.23971780711E+03  0.51192541573E+03  0.58794100146E+03  0.15294330000E+03 0.  0.
<mgrwt>
<rscale>  0 0.56290661E+03</rscale>
<asrwt>0</asrwt>
<pdfrwt beam="1">  1        1 0.19174810E+00 0.70286951E+03</pdfrwt>
<pdfrwt beam="2">  1       -1 0.33130779E-01 0.70286951E+03</pdfrwt>
<totfact> 0.86833140E+01</totfact>
</mgrwt>
</event>
<event>
 4    2  0.4681349E-007  0.8842726E+03  0.7818608E-02  0.9551766E-01
          1   -1    0    0  501    0  0.00000000000E+00  0.00000000000E+00  0.10134013622E+04  0.10134013622E+04  0.50400000000E-02 0. -1.
         -1   -1    0    0    0  501 -0.00000000000E+00 -0.00000000000E+00 -0.65509757255E+03  0.65509757257E+03  0.50400000000E-02 0.  1.
    8880023    1    1    2    0    0  0.20301802082E+02  0.58967416567E+03 -0.12177152471E+03  0.89261766469E+03  0.65864270000E+03 0.  0.
    8880022    1    1    2    0    0 -0.20301802082E+02 -0.58967416567E+03  0.48007531437E+03  0.77588127011E+03  0.15294330000E+03 0.  0.
<mgrwt>
<rscale>  0 0.80572587E+03</rscale>
<asrwt>0</asrwt>
<pdfrwt beam="1">  1        1 0.15590790E+00 0.88427258E+03</pdfrwt>
<pdfrwt beam="2">  1       -1 0.10078424E+00 0.88427258E+03</pdfrwt>
<totfact> 0.14030222E+01</totfact>
</mgrwt>
</event>
<event>
 4    2  0.4681349E-007  0.6708248E+03  0.7818608E-02  0.1015078E+00
          1   -1    0    0  501    0  0.00000000000E+00  0.00000000000E+00  0.41905755638E+03  0.41905755641E+03  0.50400000000E-02 0. -1.
         -1   -1    0    0    0  501 -0.00000000000E+00 -0.00000000000E+00 -0.69657922196E+03  0.69657922197E+03  0.50400000000E-02 0.  1.
    8880023    1    1    2    0    0 -0.67467454852E+02  0.10790679783E+03 -0.48529630938E+03  0.82796041490E+03  0.65864270000E+03 0.  1.
    8880022    1    1    2    0    0  0.67467454852E+02 -0.10790679783E+03  0.20777464380E+03  0.28767636348E+03  0.15294330000E+03 0.  0.
<mgrwt>
<rscale>  0 0.49505272E+03</rscale>
<asrwt>0</asrwt>
<pdfrwt beam="1">  1        1 0.64470393E-01 0.67082482E+03</pdfrwt>
<pdfrwt beam="2">  1       -1 0.10716603E+00 0.67082482E+03</pdfrwt>
<totfact> 0.47052520E+01</totfact>
</mgrwt>
</event>
<event>
 4    2  0.4681349E-007  0.6716845E+03  0.7818608E-02  0.1014483E+00
         -1   -1    0    0    0  501 -0.00000000000E+00  0.00000000000E+00  0.28404717555E+03  0.28404717559E+03  0.50400000000E-02 0.  1.
          1   -1    0    0  501    0  0.00000000000E+00 -0.00000000000E+00 -0.19791818370E+04  0.19791818370E+04  0.50400000000E-02 0. -1.
    8880023    1    1    2    0    0  0.17115952022E+02 -0.13060210286E+03 -0.12877463771E+03  0.68391737708E+03  0.65864270000E+03 0.  1.
    8880022    1    1    2    0    0 -0.17115952022E+02  0.13060210286E+03 -0.15663600238E+04  0.15793116355E+04  0.15294330000E+03 0.  0.
<mgrwt>
<rscale>  0 0.49731167E+03</rscale>
<asrwt>0</asrwt>
<pdfrwt beam="1">  1        1 0.30448950E+00 0.67168450E+03</pdfrwt>
<pdfrwt beam="2">  1       -1 0.43699567E-01 0.67168450E+03</pdfrwt>
<totfact> 0.16794537E+01</totfact>
</mgrwt>
</event>
<event>
 4    2  0.4681349E-007  0.9318061E+03  0.7818608E-02  0.9476789E-01
          1   -1    0    0  501    0  0.00000000000E+00  0.00000000000E+00  0.20264095025E+04  0.20264095025E+04  0.50400000000E-02 0. -1.
         -1   -1    0    0    0  501 -0.00000000000E+00 -0.00000000000E+00 -0.81627732391E+03  0.81627732393E+03  0.50400000000E-02 0.  1.
    8880023    1    1    2    0    0 -0.47652664208E+03 -0.45538427999E+03 -0.46111499778E+03  0.10396584682E+04  0.65864270000E+03 0.  1.
    8880022    1    1    2    0    0  0.47652664208E+03  0.45538427999E+03  0.16712471764E+04  0.18030283583E+04  0.15294330000E+03 0.  0.
<mgrwt>
<rscale>  0 0.86016919E+03</rscale>
<asrwt>0</asrwt>
<pdfrwt beam="1">  1        1 0.31175531E+00 0.93180614E+03</pdfrwt>
<pdfrwt beam="2">  1       -1 0.12558113E+00 0.93180614E+03</pdfrwt>
<totfact> 0.16166732E+00</totfact>
</mgrwt>
</event>
<event>
 4    2  0.4681349E-007  0.1636615E+04  0.7818608E-02  0.8818743E-01
         -1   -1    0    0    0  501 -0.00000000000E+00  0.00000000000E+00  0.12522197976E+04  0.12522197976E+04  0.50400000000E-02 0.  1.
          1   -1    0    0  501    0  0.00000000000E+00 -0.00000000000E+00 -0.21885439527E+04  0.21885439528E+04  0.50400000000E-02 0. -1.
    8880023    1    1    2    0    0 -0.14565219383E+04  0.35106079349E+03 -0.10267614230E+04  0.19320323661E+04  0.65864270000E+03 0.  0.
    8880022    1    1    2    0    0  0.14565219383E+04 -0.35106079349E+03  0.90437267884E+02  0.15087313843E+04  0.15294330000E+03 0.  0.
<mgrwt>
<rscale>  0 0.16029410E+04</rscale>
<asrwt>0</asrwt>
<pdfrwt beam="1">  1        1 0.33669907E+00 0.16366154E+04</pdfrwt>
<pdfrwt beam="2">  1       -1 0.19264920E+00 0.16366154E+04</pdfrwt>
<totfact> 0.34991380E-01</totfact>
</mgrwt>
</event>
<event>
 4    2  0.4681349E-007  0.7816416E+03  0.7818608E-02  0.9751995E-01
         -1   -1    0    0    0  501 -0.00000000000E+00  0.00000000000E+00  0.66774743798E+03  0.66774743800E+03  0.50400000000E-02 0.  1.
          1   -1    0    0  501    0  0.00000000000E+00 -0.00000000000E+00 -0.15728537224E+04  0.15728537224E+04  0.50400000000E-02 0. -1.
    8880023    1    1    2    0    0  0.16777846962E+03  0.38601010612E+03  0.38764169442E+03  0.87248478864E+03  0.65864270000E+03 0.  1.
    8880022    1    1    2    0    0 -0.16777846962E+03 -0.38601010612E+03 -0.12927479788E+04  0.13681163718E+04  0.15294330000E+03 0.  0.
<mgrwt>
<rscale>  0 0.68003655E+03</rscale>
<asrwt>0</asrwt>
<pdfrwt beam="1">  1        1 0.24197750E+00 0.78164162E+03</pdfrwt>
<pdfrwt beam="2">  1       -1 0.10273038E+00 0.78164162E+03</pdfrwt>
<totfact> 0.54122806E+00</totfact>
</mgrwt>
</event>
<event>
 4    2  0.4681349E-007  0.7074323E+03  0.7818608E-02  0.9967662E-01
          1   -1    0    0  501    0  0.00000000000E+00  0.00000000000E+00  0.26358840917E+04  0.26358840917E+04  0.50400000000E-02 0. -1.
         -1   -1    0    0    0  501 -0.00000000000E+00 -0.00000000000E+00 -0.13900273343E+03  0.13900273352E+03  0.50400000000E-02 0.  1.
    8880023    1    1    2    0    0 -0.20978318820E+03 -0.15047019611E+03  0.87366011967E+03  0.11241630117E+04  0.65864270000E+03 0.  1.
    8880022    1    1    2    0    0  0.20978318820E+03  0.15047019611E+03  0.16232212386E+04  0.16507238135E+04  0.15294330000E+03 0.  0.
<mgrwt>
<rscale>  0 0.57091212E+03</rscale>
<asrwt>0</asrwt>
<pdfrwt beam="1">  1        1 0.40552061E+00 0.70743231E+03</pdfrwt>
<pdfrwt beam="2">  1       -1 0.21385037E-01 0.70743231E+03</pdfrwt>
<totfact> 0.21022060E+01</totfact>
</mgrwt>
</event>
<event>
 4    2  0.4681349E-007  0.6618069E+03  0.7818608E-02  0.1022377E+00
         -1   -1    0    0    0  501 -0.00000000000E+00  0.00000000000E+00  0.58894247729E+03  0.58894247731E+03  0.50400000000E-02 0.  1.
          1   -1    0    0  501    0  0.00000000000E+00 -0.00000000000E+00 -0.74322018994E+03  0.74322018995E+03  0.50400000000E-02 0. -1.
    8880023    1    1    2    0    0 -0.20922719431E+02 -0.61158775493E+02  0.38654589653E+03  0.76642422482E+03  0.65864270000E+03 0.  1.
    8880022    1    1    2    0    0  0.20922719431E+02  0.61158775493E+02 -0.54082360917E+03  0.56573844245E+03  0.15294330000E+03 0.  0.
<mgrwt>
<rscale>  0 0.46838468E+03</rscale>
<asrwt>0</asrwt>
<pdfrwt beam="1">  1        1 0.11434157E+00 0.66180689E+03</pdfrwt>
<pdfrwt beam="2">  1       -1 0.90606534E-01 0.66180689E+03</pdfrwt>
<totfact> 0.30604267E+01</totfact>
</mgrwt>
</event>
<event>
 4    2  0.4681349E-007  0.7796678E+03  0.7818608E-02  0.9756618E-01
         -1   -1    0    0    0  501 -0.00000000000E+00  0.00000000000E+00  0.19960635991E+04  0.19960635991E+04  0.50400000000E-02 0.  1.
          1   -1    0    0  501    0  0.00000000000E+00 -0.00000000000E+00 -0.44155762094E+03  0.44155762097E+03  0.50400000000E-02 0. -1.
    8880023    1    1    2    0    0  0.17568139060E+01  0.41721535351E+03  0.17771065463E+04  0.19406157839E+04  0.65864270000E+03 0.  1.
    8880022    1    1    2    0    0 -0.17568139060E+01 -0.41721535351E+03 -0.22260056816E+03  0.49700543615E+03  0.15294330000E+03 0.  0.
<mgrwt>
<rscale>  0 0.67743564E+03</rscale>
<asrwt>0</asrwt>
<pdfrwt beam="1">  1        1 0.67931943E-01 0.77966784E+03</pdfrwt>
<pdfrwt beam="2">  1       -1 0.30708670E+00 0.77966784E+03</pdfrwt>
<totfact> 0.16361892E+00</totfact>
</mgrwt>
</event>
<event>
 4    2  0.4681349E-007  0.6946287E+03  0.7818608E-02  0.1002026E+00
         -1   -1    0    0    0  501 -0.00000000000E+00  0.00000000000E+00  0.13845360195E+03  0.13845360204E+03  0.50400000000E-02 0.  1.
          1   -1    0    0  501    0  0.00000000000E+00 -0.00000000000E+00 -0.18226782685E+04  0.18226782685E+04  0.50400000000E-02 0. -1.
    8880023    1    1    2    0    0  0.15664588363E+03 -0.15543773171E+03 -0.93169535051E+03  0.11621382249E+04  0.65864270000E+03 0.  1.
    8880022    1    1    2    0    0 -0.15664588363E+03  0.15543773171E+03 -0.75252931599E+03  0.79899364562E+03  0.15294330000E+03 0.  0.
<mgrwt>
<rscale>  0 0.54770824E+03</rscale>
<asrwt>0</asrwt>
<pdfrwt beam="1">  1        1 0.28041202E+00 0.69462870E+03</pdfrwt>
<pdfrwt beam="2">  1       -1 0.21300555E-01 0.69462870E+03</pdfrwt>
<totfact> 0.74827123E+01</totfact>
</mgrwt>
</event>
<event>
 4    2  0.4681349E-007  0.8114557E+03  0.7818608E-02  0.9686553E-01
          1   -1    0    0  501    0  0.00000000000E+00  0.00000000000E+00  0.22602630852E+04  0.22602630852E+04  0.50400000000E-02 0. -1.
         -1   -1    0    0    0  501 -0.00000000000E+00 -0.00000000000E+00 -0.34629080340E+03  0.34629080344E+03  0.50400000000E-02 0.  1.
    8880023    1    1    2    0    0 -0.16773650528E+03  0.44329967883E+03  0.21980524918E+03  0.84069893201E+03  0.65864270000E+03 0.  0.
    8880022    1    1    2    0    0  0.16773650528E+03 -0.44329967883E+03  0.16941670326E+04  0.17658549566E+04  0.15294330000E+03 0.  0.
<mgrwt>
<rscale>  0 0.71823112E+03</rscale>
<asrwt>0</asrwt>
<pdfrwt beam="1">  1        1 0.34773278E+00 0.81145570E+03</pdfrwt>
<pdfrwt beam="2">  1       -1 0.53275508E-01 0.81145570E+03</pdfrwt>
<totfact> 0.73348151E+00</totfact>
</mgrwt>
</event>
<event>
 4    2  0.4681349E-007  0.7088920E+03  0.7818608E-02  0.9962139E-01
         -1   -1    0    0    0  501 -0.00000000000E+00  0.00000000000E+00  0.48071950976E+03  0.48071950979E+03  0.50400000000E-02 0.  1.
          1   -1    0    0  501    0  0.00000000000E+00 -0.00000000000E+00 -0.22939294524E+04  0.22939294524E+04  0.50400000000E-02 0. -1.
    8880023    1    1    2    0    0 -0.63457586987E+02  0.25434387210E+03  0.20168569861E+03  0.73702442152E+03  0.65864270000E+03 0.  1.
    8880022    1    1    2    0    0  0.63457586987E+02 -0.25434387210E+03 -0.20148956413E+04  0.20376245407E+04  0.15294330000E+03 0.  0.
<mgrwt>
<rscale>  0 0.57342023E+03</rscale>
<asrwt>0</asrwt>
<pdfrwt beam="1">  1        1 0.35291222E+00 0.70889201E+03</pdfrwt>
<pdfrwt beam="2">  1       -1 0.73956849E-01 0.70889201E+03</pdfrwt>
<totfact> 0.36848704E+00</totfact>
</mgrwt>
</event>
<event>
 4    2  0.4681349E-007  0.7776067E+03  0.7818608E-02  0.9761489E-01
         -1   -1    0    0    0  501 -0.00000000000E+00  0.00000000000E+00  0.58024763149E+03  0.58024763151E+03  0.50400000000E-02 0.  1.
          1   -1    0    0  501    0  0.00000000000E+00 -0.00000000000E+00 -0.80885586611E+03  0.80885586613E+03  0.50400000000E-02 0. -1.
    8880023    1    1    2    0    0  0.35988599311E+03  0.20333240482E+03  0.16872403852E+03  0.79570095031E+03  0.65864270000E+03 0.  0.
    8880022    1    1    2    0    0 -0.35988599311E+03 -0.20333240482E+03 -0.39733227314E+03  0.59340254733E+03  0.15294330000E+03 0.  0.
<mgrwt>
<rscale>  0 0.67470845E+03</rscale>
<asrwt>0</asrwt>
<pdfrwt beam="1">  1        1 0.12443936E+00 0.77760671E+03</pdfrwt>
<pdfrwt beam="2">  1       -1 0.89268866E-01 0.77760671E+03</pdfrwt>
<totfact> 0.27329569E+01</totfact>
</mgrwt>
</event>
<event>
 4    2  0.4681349E-007  0.8802476E+03  0.7818608E-02  0.9558515E-01
          1   -1    0    0  501    0  0.00000000000E+00  0.00000000000E+00  0.11843822434E+04  0.11843822434E+04  0.50400000000E-02 0. -1.
         -1   -1    0    0    0  501 -0.00000000000E+00 -0.00000000000E+00 -0.71826829704E+03  0.71826829706E+03  0.50400000000E-02 0.  1.
    8880023    1    1    2    0    0  0.39942428975E+03  0.42601162060E+03 -0.29757265356E+03  0.92918531765E+03  0.65864270000E+03 0. -1.
    8880022    1    1    2    0    0 -0.39942428975E+03 -0.42601162060E+03  0.76368659992E+03  0.97346522282E+03  0.15294330000E+03 0. -1.
<mgrwt>
<rscale>  0 0.80103874E+03</rscale>
<asrwt>0</asrwt>
<pdfrwt beam="1">  1        1 0.18221265E+00 0.88024762E+03</pdfrwt>
<pdfrwt beam="2">  1       -1 0.11050282E+00 0.88024762E+03</pdfrwt>
<totfact> 0.84261783E+00</totfact>
</mgrwt>
</event>
<event>
 4    2  0.4681349E-007  0.6667220E+03  0.7818608E-02  0.1018130E+00
         -1   -1    0    0    0  501 -0.00000000000E+00  0.00000000000E+00  0.18434226149E+03  0.18434226156E+03  0.50400000000E-02 0.  1.
          1   -1    0    0  501    0  0.00000000000E+00 -0.00000000000E+00 -0.22657021274E+04  0.22657021274E+04  0.50400000000E-02 0. -1.
    8880023    1    1    2    0    0  0.48984478394E+02  0.91150959497E+02 -0.44111526533E+03  0.79943784006E+03  0.65864270000E+03 0.  1.
    8880022    1    1    2    0    0 -0.48984478394E+02 -0.91150959497E+02 -0.16402446006E+04  0.16506065489E+04  0.15294330000E+03 0.  0.
<mgrwt>
<rscale>  0 0.48367349E+03</rscale>
<asrwt>0</asrwt>
<pdfrwt beam="1">  1        1 0.34856954E+00 0.66672197E+03</pdfrwt>
<pdfrwt beam="2">  1       -1 0.28360349E-01 0.66672197E+03</pdfrwt>
<totfact> 0.23361862E+01</totfact>
</mgrwt>
</event>
<event>
 4    2  0.4681349E-007  0.6824435E+03  0.7818608E-02  0.1007974E+00
         -1   -1    0    0    0  501 -0.00000000000E+00  0.00000000000E+00  0.37744112740E+03  0.37744112744E+03  0.50400000000E-02 0.  1.
          1   -1    0    0  501    0  0.00000000000E+00 -0.00000000000E+00 -0.61840655283E+03  0.61840655285E+03  0.50400000000E-02 0. -1.
    8880023    1    1    2    0    0  0.21205152222E+01 -0.17864593477E+03 -0.35188234963E+02  0.68335004554E+03  0.65864270000E+03 0.  1.
    8880022    1    1    2    0    0 -0.21205152222E+01  0.17864593477E+03 -0.20577719046E+03  0.31249763475E+03  0.15294330000E+03 0.  1.
<mgrwt>
<rscale>  0 0.52287873E+03</rscale>
<asrwt>0</asrwt>
<pdfrwt beam="1">  1        1 0.95139470E-01 0.68244346E+03</pdfrwt>
<pdfrwt beam="2">  1       -1 0.58067866E-01 0.68244346E+03</pdfrwt>
<totfact> 0.10075839E+02</totfact>
</mgrwt>
</event>
<event>
 4    2  0.4681349E-007  0.6972432E+03  0.7818608E-02  0.1000884E+00
          1   -1    0    0  501    0  0.00000000000E+00  0.00000000000E+00  0.85760696989E+03  0.85760696991E+03  0.50400000000E-02 0. -1.
         -1   -1    0    0    0  501 -0.00000000000E+00 -0.00000000000E+00 -0.54109693184E+03  0.54109693186E+03  0.50400000000E-02 0.  1.
    8880023    1    1    2    0    0 -0.14272929355E+03 -0.17879089124E+03 -0.27248228493E+03  0.74859510812E+03  0.65864270000E+03 0.  1.
    8880022    1    1    2    0    0  0.14272929355E+03  0.17879089124E+03  0.58899232299E+03  0.65010879365E+03  0.15294330000E+03 0.  0.
<mgrwt>
<rscale>  0 0.55264511E+03</rscale>
<asrwt>0</asrwt>
<pdfrwt beam="1">  1        1 0.13193953E+00 0.69724317E+03</pdfrwt>
<pdfrwt beam="2">  1       -1 0.83245682E-01 0.69724317E+03</pdfrwt>
<totfact> 0.29175267E+01</totfact>
</mgrwt>
</event>
<event>
 4    2  0.4681349E-007  0.7310580E+03  0.7818608E-02  0.9886804E-01
         -1   -1    0    0    0  501 -0.00000000000E+00  0.00000000000E+00  0.84100732729E+03  0.84100732731E+03  0.50400000000E-02 0.  1.
          1   -1    0    0  501    0  0.00000000000E+00 -0.00000000000E+00 -0.41374831675E+03  0.41374831678E+03  0.50400000000E-02 0. -1.
    8880023    1    1    2    0    0 -0.29132295950E+03  0.12556486472E+03  0.51201237574E+03  0.89252589943E+03  0.65864270000E+03 0.  1.
    8880022    1    1    2    0    0  0.29132295950E+03 -0.12556486472E+03 -0.84753365196E+02  0.36222974465E+03  0.15294330000E+03 0. -1.
<mgrwt>
<rscale>  0 0.60905080E+03</rscale>
<asrwt>0</asrwt>
<pdfrwt beam="1">  1        1 0.63653588E-01 0.73105801E+03</pdfrwt>
<pdfrwt beam="2">  1       -1 0.12938574E+00 0.73105801E+03</pdfrwt>
<totfact> 0.30177064E+01</totfact>
</mgrwt>
</event>
<event>
 4    2  0.4681349E-007  0.1509117E+04  0.7818608E-02  0.8903225E-01
          1   -1    0    0  501    0  0.00000000000E+00  0.00000000000E+00  0.19788947576E+04  0.19788947576E+04  0.50400000000E-02 0. -1.
         -1   -1    0    0    0  501 -0.00000000000E+00 -0.00000000000E+00 -0.11039489955E+04  0.11039489955E+04  0.50400000000E-02 0.  1.
    8880023    1    1    2    0    0 -0.11515406725E+04 -0.71942877260E+03  0.81503532052E+03  0.17151432766E+04  0.65864270000E+03 0.  0.
    8880022    1    1    2    0    0  0.11515406725E+04  0.71942877260E+03  0.59910441582E+02  0.13677004765E+04  0.15294330000E+03 0.  0.
<mgrwt>
<rscale>  0 0.14720944E+04</rscale>
<asrwt>0</asrwt>
<pdfrwt beam="1">  1        1 0.30444535E+00 0.15091169E+04</pdfrwt>
<pdfrwt beam="2">  1       -1 0.16983831E+00 0.15091169E+04</pdfrwt>
<totfact> 0.71961790E-01</totfact>
</mgrwt>
</event>
<event>
 4    2  0.4681349E-007  0.1447188E+04  0.7818608E-02  0.8947858E-01
          1   -1    0    0  501    0  0.00000000000E+00  0.00000000000E+00  0.42303703177E+04  0.42303703177E+04  0.50400000000E-02 0. -1.
         -1   -1    0    0    0  501 -0.00000000000E+00 -0.00000000000E+00 -0.74346916027E+03  0.74346916029E+03  0.50400000000E-02 0.  1.
    8880023    1    1    2    0    0  0.12460423797E+04  0.32851196775E+03  0.33740025792E+04  0.36712729857E+04  0.65864270000E+03 0. -1.
    8880022    1    1    2    0    0 -0.12460423797E+04 -0.32851196775E+03  0.11289857824E+03  0.13025664923E+04  0.15294330000E+03 0.  0.
<mgrwt>
<rscale>  0 0.14082645E+04</rscale>
<asrwt>0</asrwt>
<pdfrwt beam="1">  1        1 0.65082621E+00 0.14471876E+04</pdfrwt>
<pdfrwt beam="2">  1       -1 0.11437987E+00 0.14471876E+04</pdfrwt>
<totfact> 0.40317106E-02</totfact>
</mgrwt>
</event>
<event>
 4    2  0.4681349E-007  0.7222054E+03  0.7818608E-02  0.9915193E-01
          1   -1    0    0  501    0  0.00000000000E+00  0.00000000000E+00  0.18743757681E+04  0.18743757681E+04  0.50400000000E-02 0. -1.
         -1   -1    0    0    0  501 -0.00000000000E+00 -0.00000000000E+00 -0.25795021207E+03  0.25795021212E+03  0.50400000000E-02 0.  1.
    8880023    1    1    2    0    0  0.27192332946E+03 -0.11759316944E+03  0.31331705152E+03  0.78724089810E+03  0.65864270000E+03 0.  1.
    8880022    1    1    2    0    0 -0.27192332946E+03  0.11759316944E+03  0.13031085045E+04  0.13450850821E+04  0.15294330000E+03 0.  0.
<mgrwt>
<rscale>  0 0.59530585E+03</rscale>
<asrwt>0</asrwt>
<pdfrwt beam="1">  1        1 0.28836550E+00 0.72220541E+03</pdfrwt>
<pdfrwt beam="2">  1       -1 0.39684649E-01 0.72220541E+03</pdfrwt>
<totfact> 0.23352689E+01</totfact>
</mgrwt>
</event>
<event>
 4    2  0.4681349E-007  0.9061126E+03  0.7818608E-02  0.9516289E-01
          1   -1    0    0  501    0  0.00000000000E+00  0.00000000000E+00  0.53259632323E+03  0.53259632325E+03  0.50400000000E-02 0. -1.
         -1   -1    0    0    0  501 -0.00000000000E+00 -0.00000000000E+00 -0.16506048556E+04  0.16506048556E+04  0.50400000000E-02 0.  1.
    8880023    1    1    2    0    0  0.27377945973E+03 -0.55881532406E+03 -0.12350601693E+04  0.15318007661E+04  0.65864270000E+03 0.  1.
    8880022    1    1    2    0    0 -0.27377945973E+03  0.55881532406E+03  0.11705163696E+03  0.65140041273E+03  0.15294330000E+03 0.  0.
<mgrwt>
<rscale>  0 0.83093454E+03</rscale>
<asrwt>0</asrwt>
<pdfrwt beam="1">  1        1 0.81937897E-01 0.90611256E+03</pdfrwt>
<pdfrwt beam="2">  1       -1 0.25393921E+00 0.90611256E+03</pdfrwt>
<totfact> 0.27223064E+00</totfact>
</mgrwt>
</event>
<event>
 4    2  0.4681349E-007  0.9013676E+03  0.7818608E-02  0.9523840E-01
          1   -1    0    0  501    0  0.00000000000E+00  0.00000000000E+00  0.60318410752E+03  0.60318410754E+03  0.50400000000E-02 0. -1.
         -1   -1    0    0    0  501 -0.00000000000E+00 -0.00000000000E+00 -0.19685887013E+04  0.19685887013E+04  0.50400000000E-02 0.  1.
    8880023    1    1    2    0    0  0.54095162300E+03  0.29329956155E+03 -0.16473645120E+04  0.18778374086E+04  0.65864270000E+03 0.  0.
    8880022    1    1    2    0    0 -0.54095162300E+03 -0.29329956155E+03  0.28195991826E+03  0.69393540027E+03  0.15294330000E+03 0.  0.
<mgrwt>
<rscale>  0 0.82548802E+03</rscale>
<asrwt>0</asrwt>
<pdfrwt beam="1">  1        1 0.92797556E-01 0.90136757E+03</pdfrwt>
<pdfrwt beam="2">  1       -1 0.30285980E+00 0.90136757E+03</pdfrwt>
<totfact> 0.11067791E+00</totfact>
</mgrwt>
</event>
<event>
 4    2  0.4681349E-007  0.7798234E+03  0.7818608E-02  0.9756252E-01
          1   -1    0    0  501    0  0.00000000000E+00  0.00000000000E+00  0.22855536842E+04  0.22855536842E+04  0.50400000000E-02 0. -1.
         -1   -1    0    0    0  501 -0.00000000000E+00 -0.00000000000E+00 -0.42871182734E+03  0.42871182737E+03  0.50400000000E-02 0.  1.
    8880023    1    1    2    0    0 -0.76461497860E+02  0.41044857075E+03 -0.25380948341E+02  0.78023636719E+03  0.65864270000E+03 0.  1.
    8880022    1    1    2    0    0  0.76461497860E+02 -0.41044857075E+03  0.18822228052E+04  0.19340291444E+04  0.15294330000E+03 0.  0.
<mgrwt>
<rscale>  0 0.67764105E+03</rscale>
<asrwt>0</asrwt>
<pdfrwt beam="1">  1        1 0.35162365E+00 0.77982344E+03</pdfrwt>
<pdfrwt beam="2">  1       -1 0.65955665E-01 0.77982344E+03</pdfrwt>
<totfact> 0.46569659E+00</totfact>
</mgrwt>
</event>
<event>
 4    2  0.4681349E-007  0.1221205E+04  0.7818608E-02  0.9136780E-01
         -1   -1    0    0    0  501 -0.00000000000E+00  0.00000000000E+00  0.57107256258E+03  0.57107256260E+03  0.50400000000E-02 0.  1.
          1   -1    0    0  501    0  0.00000000000E+00 -0.00000000000E+00 -0.29889592519E+04  0.29889592519E+04  0.50400000000E-02 0. -1.
    8880023    1    1    2    0    0 -0.78609836836E+03  0.66300868670E+03 -0.39137701839E+03  0.12823873596E+04  0.65864270000E+03 0.  1.
    8880022    1    1    2    0    0  0.78609836836E+03 -0.66300868670E+03 -0.20265096710E+04  0.22776444549E+04  0.15294330000E+03 0.  0.
<mgrwt>
<rscale>  0 0.11730479E+04</rscale>
<asrwt>0</asrwt>
<pdfrwt beam="1">  1        1 0.45983988E+00 0.12212049E+04</pdfrwt>
<pdfrwt beam="2">  1       -1 0.87857319E-01 0.12212049E+04</pdfrwt>
<totfact> 0.77110768E-01</totfact>
</mgrwt>
</event>
<event>
 4    2  0.4681349E-007  0.6929342E+03  0.7818608E-02  0.1002788E+00
         -1   -1    0    0    0  501 -0.00000000000E+00  0.00000000000E+00  0.12573024027E+03  0.12573024037E+03  0.50400000000E-02 0.  1.
          1   -1    0    0  501    0  0.00000000000E+00 -0.00000000000E+00 -0.21720570248E+04  0.21720570248E+04  0.50400000000E-02 0. -1.
    8880023    1    1    2    0    0 -0.71567902881E+02  0.20304090561E+03 -0.98643989357E+03  0.12054963476E+04  0.65864270000E+03 0.  0.
    8880022    1    1    2    0    0  0.71567902881E+02 -0.20304090561E+03 -0.10598868910E+04  0.10922909177E+04  0.15294330000E+03 0.  0.
<mgrwt>
<rscale>  0 0.54444452E+03</rscale>
<asrwt>0</asrwt>
<pdfrwt beam="1">  1        1 0.33416259E+00 0.69293418E+03</pdfrwt>
<pdfrwt beam="2">  1       -1 0.19343115E-01 0.69293418E+03</pdfrwt>
<totfact> 0.51365190E+01</totfact>
</mgrwt>
</event>
<event>
 4    2  0.4681349E-007  0.8456658E+03  0.7818608E-02  0.9619588E-01
         -1   -1    0    0    0  501 -0.00000000000E+00  0.00000000000E+00  0.38238661792E+03  0.38238661795E+03  0.50400000000E-02 0.  1.
          1   -1    0    0  501    0  0.00000000000E+00 -0.00000000000E+00 -0.13272790508E+04  0.13272790508E+04  0.50400000000E-02 0. -1.
    8880023    1    1    2    0    0 -0.35397077716E+03 -0.39502551826E+03 -0.40548045332E+03  0.93785130775E+03  0.65864270000E+03 0. -1.
    8880022    1    1    2    0    0  0.35397077716E+03  0.39502551826E+03 -0.53941197955E+03  0.77181436101E+03  0.15294330000E+03 0.  0.
<mgrwt>
<rscale>  0 0.76013173E+03</rscale>
<asrwt>0</asrwt>
<pdfrwt beam="1">  1        1 0.20419677E+00 0.84566582E+03</pdfrwt>
<pdfrwt beam="2">  1       -1 0.58828711E-01 0.84566582E+03</pdfrwt>
<totfact> 0.25829508E+01</totfact>
</mgrwt>
</event>
<event>
 4    2  0.4681349E-007  0.7117859E+03  0.7818608E-02  0.9951428E-01
         -1   -1    0    0    0  501 -0.00000000000E+00  0.00000000000E+00  0.67278794725E+03  0.67278794727E+03  0.50400000000E-02 0.  1.
          1   -1    0    0  501    0  0.00000000000E+00 -0.00000000000E+00 -0.62601979688E+03  0.62601979690E+03  0.50400000000E-02 0. -1.
    8880023    1    1    2    0    0 -0.15032543850E+03  0.22412319340E+03  0.40978070601E+03  0.82131563760E+03  0.65864270000E+03 0.  1.
    8880022    1    1    2    0    0  0.15032543850E+03 -0.22412319340E+03 -0.36301255563E+03  0.47749210657E+03  0.15294330000E+03 0.  0.
<mgrwt>
<rscale>  0 0.57832309E+03</rscale>
<asrwt>0</asrwt>
<pdfrwt beam="1">  1        1 0.96310738E-01 0.71178589E+03</pdfrwt>
<pdfrwt beam="2">  1       -1 0.10350584E+00 0.71178589E+03</pdfrwt>
<totfact> 0.29152046E+01</totfact>
</mgrwt>
</event>
<event>
 4    2  0.4681349E-007  0.1417309E+04  0.7818608E-02  0.8970349E-01
          1   -1    0    0  501    0  0.00000000000E+00  0.00000000000E+00  0.25466381512E+04  0.25466381512E+04  0.50400000000E-02 0. -1.
         -1   -1    0    0    0  501 -0.00000000000E+00 -0.00000000000E+00 -0.77322064706E+03  0.77322064708E+03  0.50400000000E-02 0.  1.
    8880023    1    1    2    0    0 -0.16664252241E+03 -0.12438586068E+04  0.44388722616E+03  0.14851936035E+04  0.65864270000E+03 0.  0.
    8880022    1    1    2    0    0  0.16664252241E+03  0.12438586068E+04  0.13295302780E+04  0.18346651948E+04  0.15294330000E+03 0.  0.
<mgrwt>
<rscale>  0 0.13773909E+04</rscale>
<asrwt>0</asrwt>
<pdfrwt beam="1">  1        1 0.39179049E+00 0.14173088E+04</pdfrwt>
<pdfrwt beam="2">  1       -1 0.11895702E+00 0.14173088E+04</pdfrwt>
<totfact> 0.76563031E-01</totfact>
</mgrwt>
</event>
<event>
 4    2  0.4681349E-007  0.1091157E+04  0.7818608E-02  0.9270966E-01
          1   -1    0    0  501    0  0.00000000000E+00  0.00000000000E+00  0.21036341713E+04  0.21036341713E+04  0.50400000000E-02 0. -1.
         -1   -1    0    0    0  501 -0.00000000000E+00 -0.00000000000E+00 -0.57114021885E+03  0.57114021887E+03  0.50400000000E-02 0.  1.
    8880023    1    1    2    0    0  0.15254905062E+03  0.85647047474E+03  0.25316596151E+03  0.11201411060E+04  0.65864270000E+03 0.  0.
    8880022    1    1    2    0    0 -0.15254905062E+03 -0.85647047474E+03  0.12793279910E+04  0.15546332842E+04  0.15294330000E+03 0.  0.
<mgrwt>
<rscale>  0 0.10350026E+04</rscale>
<asrwt>0</asrwt>
<pdfrwt beam="1">  1        1 0.32363602E+00 0.10911568E+04</pdfrwt>
<pdfrwt beam="2">  1       -1 0.87867727E-01 0.10911568E+04</pdfrwt>
<totfact> 0.32291924E+00</totfact>
</mgrwt>
</event>
<event>
 4    2  0.4681349E-007  0.6855774E+03  0.7818608E-02  0.1006330E+00
         -1   -1    0    0    0  501 -0.00000000000E+00  0.00000000000E+00  0.65049954001E+03  0.65049954003E+03  0.50400000000E-02 0.  1.
          1   -1    0    0  501    0  0.00000000000E+00 -0.00000000000E+00 -0.71976366820E+03  0.71976366822E+03  0.50400000000E-02 0. -1.
    8880023    1    1    2    0    0  0.16023849589E+03  0.10261492043E+03  0.43365944906E+03  0.81121940404E+03  0.65864270000E+03 0.  1.
    8880022    1    1    2    0    0 -0.16023849589E+03 -0.10261492043E+03 -0.50292357725E+03  0.55904380422E+03  0.15294330000E+03 0.  0.
<mgrwt>
<rscale>  0 0.52959784E+03</rscale>
<asrwt>0</asrwt>
<pdfrwt beam="1">  1        1 0.11073287E+00 0.68557742E+03</pdfrwt>
<pdfrwt beam="2">  1       -1 0.10007685E+00 0.68557742E+03</pdfrwt>
<totfact> 0.25665810E+01</totfact>
</mgrwt>
</event>
<event>
 4    2  0.4681349E-007  0.6618191E+03  0.7818608E-02  0.1022366E+00
          1   -1    0    0  501    0  0.00000000000E+00  0.00000000000E+00  0.56172451558E+03  0.56172451560E+03  0.50400000000E-02 0. -1.
         -1   -1    0    0    0  501 -0.00000000000E+00 -0.00000000000E+00 -0.33793776721E+03  0.33793776725E+03  0.50400000000E-02 0.  1.
    8880023    1    1    2    0    0  0.21721339808E+02  0.61012630176E+02  0.56979278757E+02  0.66426741762E+03  0.65864270000E+03 0.  1.
    8880022    1    1    2    0    0 -0.21721339808E+02 -0.61012630176E+02  0.16680746961E+03  0.23539486523E+03  0.15294330000E+03 0.  1.
<mgrwt>
<rscale>  0 0.46842558E+03</rscale>
<asrwt>0</asrwt>
<pdfrwt beam="1">  1        1 0.86419156E-01 0.66181913E+03</pdfrwt>
<pdfrwt beam="2">  1       -1 0.51990426E-01 0.66181913E+03</pdfrwt>
<totfact> 0.14323857E+02</totfact>
</mgrwt>
</event>
<event>
 4    2  0.4681349E-007  0.8953602E+03  0.7818608E-02  0.9533521E-01
          1   -1    0    0  501    0  0.00000000000E+00  0.00000000000E+00  0.88340848982E+03  0.88340848983E+03  0.50400000000E-02 0. -1.
         -1   -1    0    0    0  501 -0.00000000000E+00 -0.00000000000E+00 -0.18045370356E+04  0.18045370357E+04  0.50400000000E-02 0.  1.
    8880023    1    1    2    0    0  0.60446004098E+03 -0.49877657496E+02 -0.15569405633E+04  0.17960328075E+04  0.65864270000E+03 0.  1.
    8880022    1    1    2    0    0 -0.60446004098E+03  0.49877657496E+02  0.63581201747E+03  0.89191271794E+03  0.15294330000E+03 0.  0.
<mgrwt>
<rscale>  0 0.81856907E+03</rscale>
<asrwt>0</asrwt>
<pdfrwt beam="1">  1        1 0.13590900E+00 0.89536022E+03</pdfrwt>
<pdfrwt beam="2">  1       -1 0.27762108E+00 0.89536022E+03</pdfrwt>
<totfact> 0.88992048E-01</totfact>
</mgrwt>
</event>
<event>
 4    2  0.4681349E-007  0.7242633E+03  0.7818608E-02  0.9908416E-01
         -1   -1    0    0    0  501 -0.00000000000E+00  0.00000000000E+00  0.12607807750E+04  0.12607807751E+04  0.50400000000E-02 0.  1.
          1   -1    0    0  501    0  0.00000000000E+00 -0.00000000000E+00 -0.37382051691E+03  0.37382051695E+03  0.50400000000E-02 0. -1.
    8880023    1    1    2    0    0 -0.29563248176E+02  0.29978840585E+03  0.10370460769E+04  0.12649196994E+04  0.65864270000E+03 0.  1.
    8880022    1    1    2    0    0  0.29563248176E+02 -0.29978840585E+03 -0.15008581878E+03  0.36968159264E+03  0.15294330000E+03 0.  1.
<mgrwt>
<rscale>  0 0.59855143E+03</rscale>
<asrwt>0</asrwt>
<pdfrwt beam="1">  1        1 0.57510849E-01 0.72426327E+03</pdfrwt>
<pdfrwt beam="2">  1       -1 0.19396627E+00 0.72426327E+03</pdfrwt>
<totfact> 0.11246140E+01</totfact>
</mgrwt>
</event>
<event>
 4    2  0.4681349E-007  0.1131126E+04  0.7818608E-02  0.9227168E-01
         -1   -1    0    0    0  501 -0.00000000000E+00  0.00000000000E+00  0.68002260832E+03  0.68002260834E+03  0.50400000000E-02 0.  1.
          1   -1    0    0  501    0  0.00000000000E+00 -0.00000000000E+00 -0.18998721655E+04  0.18998721655E+04  0.50400000000E-02 0. -1.
    8880023    1    1    2    0    0 -0.91945636474E+03 -0.15351150103E+02 -0.11900774672E+03  0.11373692077E+04  0.65864270000E+03 0.  0.
    8880022    1    1    2    0    0  0.91945636474E+03  0.15351150103E+02 -0.11008418105E+04  0.14425255662E+04  0.15294330000E+03 0.  0.
<mgrwt>
<rscale>  0 0.10777360E+04</rscale>
<asrwt>0</asrwt>
<pdfrwt beam="1">  1        1 0.29228802E+00 0.11311259E+04</pdfrwt>
<pdfrwt beam="2">  1       -1 0.10461886E+00 0.11311259E+04</pdfrwt>
<totfact> 0.29715579E+00</totfact>
</mgrwt>
</event>
<event>
 4    2  0.4681349E-007  0.7286227E+03  0.7818608E-02  0.9894421E-01
         -1   -1    0    0    0  501 -0.00000000000E+00  0.00000000000E+00  0.18608743606E+04  0.18608743606E+04  0.50400000000E-02 0.  1.
          1   -1    0    0  501    0  0.00000000000E+00 -0.00000000000E+00 -0.37164336896E+03  0.37164336900E+03  0.50400000000E-02 0. -1.
    8880023    1    1    2    0    0 -0.18645070303E+02 -0.31101970564E+03  0.16837466286E+04  0.18346372425E+04  0.65864270000E+03 0.  0.
    8880022    1    1    2    0    0  0.18645070303E+02  0.31101970564E+03 -0.19451563700E+03  0.39788048707E+03  0.15294330000E+03 0.  0.
<mgrwt>
<rscale>  0 0.60532423E+03</rscale>
<asrwt>0</asrwt>
<pdfrwt beam="1">  1        1 0.57175904E-01 0.72862274E+03</pdfrwt>
<pdfrwt beam="2">  1       -1 0.28628836E+00 0.72862274E+03</pdfrwt>
<totfact> 0.28177409E+00</totfact>
</mgrwt>
</event>
<event>
 4    2  0.4681349E-007  0.8804609E+03  0.7818608E-02  0.9558155E-01
          1   -1    0    0  501    0  0.00000000000E+00  0.00000000000E+00  0.73509037829E+03  0.73509037831E+03  0.50400000000E-02 0. -1.
         -1   -1    0    0    0  501 -0.00000000000E+00 -0.00000000000E+00 -0.11643631283E+04  0.11643631283E+04  0.50400000000E-02 0.  1.
    8880023    1    1    2    0    0  0.55333980479E+03 -0.18765977101E+03 -0.80095630398E+03  0.11902698586E+04  0.65864270000E+03 0.  1.
    8880022    1    1    2    0    0 -0.55333980479E+03  0.18765977101E+03  0.37168355399E+03  0.70918364796E+03  0.15294330000E+03 0.  0.
<mgrwt>
<rscale>  0 0.80128742E+03</rscale>
<asrwt>0</asrwt>
<pdfrwt beam="1">  1        1 0.11309083E+00 0.88046087E+03</pdfrwt>
<pdfrwt beam="2">  1       -1 0.17913279E+00 0.88046087E+03</pdfrwt>
<totfact> 0.54260713E+00</totfact>
</mgrwt>
</event>
<event>
 4    2  0.4681349E-007  0.7286646E+03  0.7818608E-02  0.9894289E-01
          1   -1    0    0  501    0  0.00000000000E+00  0.00000000000E+00  0.96407397509E+03  0.96407397510E+03  0.50400000000E-02 0. -1.
         -1   -1    0    0    0  501 -0.00000000000E+00 -0.00000000000E+00 -0.43701581267E+03  0.43701581270E+03  0.50400000000E-02 0.  1.
    8880023    1    1    2    0    0  0.57008277291E+01 -0.31162382177E+03 -0.47036605488E+02  0.73018117906E+03  0.65864270000E+03 0.  1.
    8880022    1    1    2    0    0 -0.57008277291E+01  0.31162382177E+03  0.57409476790E+03  0.67090860874E+03  0.15294330000E+03 0.  0.
<mgrwt>
<rscale>  0 0.60538862E+03</rscale>
<asrwt>0</asrwt>
<pdfrwt beam="1">  1        1 0.14831907E+00 0.72866461E+03</pdfrwt>
<pdfrwt beam="2">  1       -1 0.67233203E-01 0.72866461E+03</pdfrwt>
<totfact> 0.37202108E+01</totfact>
</mgrwt>
</event>
<event>
 4    2  0.4681349E-007  0.7410762E+03  0.7818608E-02  0.9856823E-01
          1   -1    0    0  501    0  0.00000000000E+00  0.00000000000E+00  0.14657652902E+04  0.14657652902E+04  0.50400000000E-02 0. -1.
         -1   -1    0    0    0  501 -0.00000000000E+00 -0.00000000000E+00 -0.47128643699E+03  0.47128643701E+03  0.50400000000E-02 0.  1.
    8880023    1    1    2    0    0 -0.29719161350E+03  0.16450175972E+03 -0.13007160969E+03  0.75240448829E+03  0.65864270000E+03 0.  1.
    8880022    1    1    2    0    0  0.29719161350E+03 -0.16450175972E+03  0.11245504629E+04  0.11846472389E+04  0.15294330000E+03 0.  0.
<mgrwt>
<rscale>  0 0.62400227E+03</rscale>
<asrwt>0</asrwt>
<pdfrwt beam="1">  1        1 0.22550235E+00 0.74107617E+03</pdfrwt>
<pdfrwt beam="2">  1       -1 0.72505607E-01 0.74107617E+03</pdfrwt>
<totfact> 0.13756619E+01</totfact>
</mgrwt>
</event>
<event>
 4    2  0.4681349E-007  0.9600827E+03  0.7818608E-02  0.9435753E-01
          1   -1    0    0  501    0  0.00000000000E+00  0.00000000000E+00  0.18545065950E+04  0.18545065950E+04  0.50400000000E-02 0. -1.
         -1   -1    0    0    0  501 -0.00000000000E+00 -0.00000000000E+00 -0.10355165125E+04  0.10355165125E+04  0.50400000000E-02 0.  1.
    8880023    1    1    2    0    0  0.20917154654E+03 -0.66648023761E+03 -0.71531705618E+03  0.11972624358E+04  0.65864270000E+03 0.  0.
    8880022    1    1    2    0    0 -0.20917154654E+03  0.66648023761E+03  0.15343071387E+04  0.16927606717E+04  0.15294330000E+03 0.  0.
<mgrwt>
<rscale>  0 0.89190838E+03</rscale>
<asrwt>0</asrwt>
<pdfrwt beam="1">  1        1 0.28530871E+00 0.96008273E+03</pdfrwt>
<pdfrwt beam="2">  1       -1 0.15931023E+00 0.96008273E+03</pdfrwt>
<totfact> 0.11239588E+00</totfact>
</mgrwt>
</event>
<event>
 4    2  0.4681349E-007  0.8215550E+03  0.7818608E-02  0.9665993E-01
         -1   -1    0    0    0  501 -0.00000000000E+00  0.00000000000E+00  0.12968848845E+04  0.12968848845E+04  0.50400000000E-02 0.  1.
          1   -1    0    0  501    0  0.00000000000E+00 -0.00000000000E+00 -0.72376321927E+03  0.72376321929E+03  0.50400000000E-02 0. -1.
    8880023    1    1    2    0    0  0.28568597191E+02 -0.49023088308E+03  0.10404591600E+04  0.13257103580E+04  0.65864270000E+03 0.  0.
    8880022    1    1    2    0    0 -0.28568597191E+02  0.49023088308E+03 -0.46733749477E+03  0.69493774578E+03  0.15294330000E+03 0.  0.
<mgrwt>
<rscale>  0 0.73078179E+03</rscale>
<asrwt>0</asrwt>
<pdfrwt beam="1">  1        1 0.11134819E+00 0.82155504E+03</pdfrwt>
<pdfrwt beam="2">  1       -1 0.19952075E+00 0.82155504E+03</pdfrwt>
<totfact> 0.40312177E+00</totfact>
</mgrwt>
</event>
<event>
 4    2  0.4681349E-007  0.6625559E+03  0.7818608E-02  0.1021678E+00
          1   -1    0    0  501    0  0.00000000000E+00  0.00000000000E+00  0.75085603475E+03  0.75085603477E+03  0.50400000000E-02 0. -1.
         -1   -1    0    0    0  501 -0.00000000000E+00 -0.00000000000E+00 -0.40140895067E+03  0.40140895070E+03  0.50400000000E-02 0.  1.
    8880023    1    1    2    0    0 -0.65527334119E+02  0.29601045703E+02 -0.10187134160E+03  0.67034172623E+03  0.65864270000E+03 0.  1.
    8880022    1    1    2    0    0  0.65527334119E+02 -0.29601045703E+02  0.45131842568E+03  0.48192325924E+03  0.15294330000E+03 0.  0.
<mgrwt>
<rscale>  0 0.47085793E+03</rscale>
<asrwt>0</asrwt>
<pdfrwt beam="1">  1        1 0.11551631E+00 0.66255585E+03</pdfrwt>
<pdfrwt beam="2">  1       -1 0.61755224E-01 0.66255585E+03</pdfrwt>
<totfact> 0.66909923E+01</totfact>
</mgrwt>
</event>
<event>
 4    2  0.4681349E-007  0.8249190E+03  0.7818608E-02  0.9659300E-01
          1   -1    0    0  501    0  0.00000000000E+00  0.00000000000E+00  0.11272034586E+04  0.11272034586E+04  0.50400000000E-02 0. -1.
         -1   -1    0    0    0  501 -0.00000000000E+00 -0.00000000000E+00 -0.53202025095E+03  0.53202025097E+03  0.50400000000E-02 0.  1.
    8880023    1    1    2    0    0 -0.21208035377E+02  0.49621704291E+03 -0.55142199860E+02  0.82675994273E+03  0.65864270000E+03 0.  0.
    8880022    1    1    2    0    0  0.21208035377E+02 -0.49621704291E+03  0.65032540752E+03  0.83246376685E+03  0.15294330000E+03 0.  0.
<mgrwt>
<rscale>  0 0.73492595E+03</rscale>
<asrwt>0</asrwt>
<pdfrwt beam="1">  1        1 0.17341592E+00 0.82491899E+03</pdfrwt>
<pdfrwt beam="2">  1       -1 0.81849270E-01 0.82491899E+03</pdfrwt>
<totfact> 0.18355943E+01</totfact>
</mgrwt>
</event>
<event>
 4    2  0.4681349E-007  0.6964802E+03  0.7818608E-02  0.1001213E+00
         -1   -1    0    0    0  501 -0.00000000000E+00  0.00000000000E+00  0.19645991448E+03  0.19645991454E+03  0.50400000000E-02 0.  1.
          1   -1    0    0  501    0  0.00000000000E+00 -0.00000000000E+00 -0.14461739349E+04  0.14461739349E+04  0.50400000000E-02 0. -1.
    8880023    1    1    2    0    0  0.21847062212E+03  0.59539955049E+02 -0.53739811769E+03  0.87970527004E+03  0.65864270000E+03 0.  1.
    8880022    1    1    2    0    0 -0.21847062212E+03 -0.59539955049E+02 -0.71231590269E+03  0.76292857937E+03  0.15294330000E+03 0.  0.
<mgrwt>
<rscale>  0 0.55121621E+03</rscale>
<asrwt>0</asrwt>
<pdfrwt beam="1">  1        1 0.22248829E+00 0.69648017E+03</pdfrwt>
<pdfrwt beam="2">  1       -1 0.30224603E-01 0.69648017E+03</pdfrwt>
<totfact> 0.73965737E+01</totfact>
</mgrwt>
</event>
<event>
 4    2  0.4681349E-007  0.1384706E+04  0.7818608E-02  0.8995658E-01
         -1   -1    0    0    0  501 -0.00000000000E+00  0.00000000000E+00  0.15963258364E+04  0.15963258364E+04  0.50400000000E-02 0.  1.
          1   -1    0    0  501    0  0.00000000000E+00 -0.00000000000E+00 -0.15980614643E+04  0.15980614643E+04  0.50400000000E-02 0. -1.
    8880023    1    1    2    0    0  0.40856108253E+03  0.11474662850E+04  0.91722142499E+03  0.16609353937E+04  0.65864270000E+03 0.  0.
    8880022    1    1    2    0    0 -0.40856108253E+03 -0.11474662850E+04 -0.91895705283E+03  0.15334519071E+04  0.15294330000E+03 0.  0.
<mgrwt>
<rscale>  0 0.13436375E+04</rscale>
<asrwt>0</asrwt>
<pdfrwt beam="1">  1        1 0.24585561E+00 0.13847062E+04</pdfrwt>
<pdfrwt beam="2">  1       -1 0.24558859E+00 0.13847062E+04</pdfrwt>
<totfact> 0.39947557E-01</totfact>
</mgrwt>
</event>
<event>
 4    2  0.4681349E-007  0.7299969E+03  0.7818608E-02  0.9890106E-01
          1   -1    0    0  501    0  0.00000000000E+00  0.00000000000E+00  0.12762269805E+04  0.12762269806E+04  0.50400000000E-02 0. -1.
         -1   -1    0    0    0  501 -0.00000000000E+00 -0.00000000000E+00 -0.75356719785E+03  0.75356719787E+03  0.50400000000E-02 0.  1.
    8880023    1    1    2    0    0  0.13290863696E+03 -0.28534296861E+03 -0.54192368447E+03  0.90916269257E+03  0.65864270000E+03 0.  0.
    8880022    1    1    2    0    0 -0.13290863696E+03  0.28534296861E+03  0.10645834672E+04  0.11206314859E+04  0.15294330000E+03 0. -1.
<mgrwt>
<rscale>  0 0.60743188E+03</rscale>
<asrwt>0</asrwt>
<pdfrwt beam="1">  1        1 0.19634261E+00 0.72999693E+03</pdfrwt>
<pdfrwt beam="2">  1       -1 0.11593341E+00 0.72999693E+03</pdfrwt>
<totfact> 0.65921258E+00</totfact>
</mgrwt>
</event>
<event>
 4    2  0.4681349E-007  0.8010439E+03  0.7818608E-02  0.9708543E-01
         -1   -1    0    0    0  501 -0.00000000000E+00  0.00000000000E+00  0.21361278454E+03  0.21361278460E+03  0.50400000000E-02 0.  1.
          1   -1    0    0  501    0  0.00000000000E+00 -0.00000000000E+00 -0.21182197550E+04  0.21182197550E+04  0.50400000000E-02 0. -1.
    8880023    1    1    2    0    0 -0.26543606436E+03 -0.37068155078E+03 -0.82471200964E+03  0.11497048410E+04  0.65864270000E+03 0.  1.
    8880022    1    1    2    0    0  0.26543606436E+03  0.37068155078E+03 -0.10798949608E+04  0.11821276986E+04  0.15294330000E+03 0.  0.
<mgrwt>
<rscale>  0 0.70510388E+03</rscale>
<asrwt>0</asrwt>
<pdfrwt beam="1">  1        1 0.32587995E+00 0.80104390E+03</pdfrwt>
<pdfrwt beam="2">  1       -1 0.32863507E-01 0.80104390E+03</pdfrwt>
<totfact> 0.22247669E+01</totfact>
</mgrwt>
</event>
<event>
 4    2  0.4681349E-007  0.8754773E+03  0.7818608E-02  0.9566604E-01
          1   -1    0    0  501    0  0.00000000000E+00  0.00000000000E+00  0.16376396027E+04  0.16376396027E+04  0.50400000000E-02 0. -1.
         -1   -1    0    0    0  501 -0.00000000000E+00 -0.00000000000E+00 -0.71503802487E+03  0.71503802489E+03  0.50400000000E-02 0.  1.
    8880023    1    1    2    0    0  0.25892602257E+03 -0.51537138845E+03 -0.35335235019E+03  0.94409662792E+03  0.65864270000E+03 0.  1.
    8880022    1    1    2    0    0 -0.25892602257E+03  0.51537138845E+03  0.12759539280E+04  0.14085809996E+04  0.15294330000E+03 0.  0.
<mgrwt>
<rscale>  0 0.79546547E+03</rscale>
<asrwt>0</asrwt>
<pdfrwt beam="1">  1        1 0.25194455E+00 0.87547733E+03</pdfrwt>
<pdfrwt beam="2">  1       -1 0.11000585E+00 0.87547733E+03</pdfrwt>
<totfact> 0.41088981E+00</totfact>
</mgrwt>
</event>
<event>
 4    2  0.4681349E-007  0.7316521E+03  0.7818608E-02  0.9884967E-01
         -1   -1    0    0    0  501 -0.00000000000E+00  0.00000000000E+00  0.59311401797E+03  0.59311401799E+03  0.50400000000E-02 0.  1.
          1   -1    0    0  501    0  0.00000000000E+00 -0.00000000000E+00 -0.19565819257E+04  0.19565819257E+04  0.50400000000E-02 0. -1.
    8880023    1    1    2    0    0  0.30599534022E+03  0.88721080188E+02  0.34225570601E+03  0.80774609431E+03  0.65864270000E+03 0.  0.
    8880022    1    1    2    0    0 -0.30599534022E+03 -0.88721080188E+02 -0.17057236137E+04  0.17419498493E+04  0.15294330000E+03 0.  0.
<mgrwt>
<rscale>  0 0.60995407E+03</rscale>
<asrwt>0</asrwt>
<pdfrwt beam="1">  1        1 0.30101260E+00 0.73165209E+03</pdfrwt>
<pdfrwt beam="2">  1       -1 0.91248311E-01 0.73165209E+03</pdfrwt>
<totfact> 0.39378759E+00</totfact>
</mgrwt>
</event>
<event>
 4    2  0.4681349E-007  0.7298372E+03  0.7818608E-02  0.9890605E-01
         -1   -1    0    0    0  501 -0.00000000000E+00  0.00000000000E+00  0.32076970997E+03  0.32076971001E+03  0.50400000000E-02 0.  1.
          1   -1    0    0  501    0  0.00000000000E+00 -0.00000000000E+00 -0.10022590965E+04  0.10022590965E+04  0.50400000000E-02 0. -1.
    8880023    1    1    2    0    0  0.20010243541E+03 -0.24251009214E+03 -0.25854354701E+03  0.77427843920E+03  0.65864270000E+03 0.  1.
    8880022    1    1    2    0    0 -0.20010243541E+03  0.24251009214E+03 -0.42294583951E+03  0.54875036731E+03  0.15294330000E+03 0.  0.
<mgrwt>
<rscale>  0 0.60718753E+03</rscale>
<asrwt>0</asrwt>
<pdfrwt beam="1">  1        1 0.15419371E+00 0.72983720E+03</pdfrwt>
<pdfrwt beam="2">  1       -1 0.49349187E-01 0.72983720E+03</pdfrwt>
<totfact> 0.63531906E+01</totfact>
</mgrwt>
</event>
<event>
 4    2  0.4681349E-007  0.7433851E+03  0.7818608E-02  0.9850194E-01
          1   -1    0    0  501    0  0.00000000000E+00  0.00000000000E+00  0.19491360138E+04  0.19491360138E+04  0.50400000000E-02 0. -1.
         -1   -1    0    0    0  501 -0.00000000000E+00 -0.00000000000E+00 -0.19914992004E+03  0.19914992011E+03  0.50400000000E-02 0.  1.
    8880023    1    1    2    0    0  0.22790029041E+03 -0.25859757412E+03  0.65709924939E+03  0.99216978261E+03  0.65864270000E+03 0.  1.
    8880022    1    1    2    0    0 -0.22790029041E+03  0.25859757412E+03  0.10928868444E+04  0.11561161513E+04  0.15294330000E+03 0. -1.
<mgrwt>
<rscale>  0 0.62737031E+03</rscale>
<asrwt>0</asrwt>
<pdfrwt beam="1">  1        1 0.29986708E+00 0.74338513E+03</pdfrwt>
<pdfrwt beam="2">  1       -1 0.30638449E-01 0.74338513E+03</pdfrwt>
<totfact> 0.32898385E+01</totfact>
</mgrwt>
</event>
<event>
 4    2  0.4681349E-007  0.6878747E+03  0.7818608E-02  0.1005180E+00
         -1   -1    0    0    0  501 -0.00000000000E+00  0.00000000000E+00  0.46147297103E+03  0.46147297106E+03  0.50400000000E-02 0.  1.
          1   -1    0    0  501    0  0.00000000000E+00 -0.00000000000E+00 -0.14375516350E+04  0.14375516350E+04  0.50400000000E-02 0. -1.
    8880023    1    1    2    0    0  0.18522828217E+03  0.71076217134E+02  0.18412019025E+03  0.71208973864E+03  0.65864270000E+03 0.  1.
    8880022    1    1    2    0    0 -0.18522828217E+03 -0.71076217134E+02 -0.11601988542E+04  0.11869348674E+04  0.15294330000E+03 0.  0.
<mgrwt>
<rscale>  0 0.53436290E+03</rscale>
<asrwt>0</asrwt>
<pdfrwt beam="1">  1        1 0.22116179E+00 0.68787466E+03</pdfrwt>
<pdfrwt beam="2">  1       -1 0.70995842E-01 0.68787466E+03</pdfrwt>
<totfact> 0.15139884E+01</totfact>
</mgrwt>
</event>
<event>
 4    2  0.4681349E-007  0.6761587E+03  0.7818608E-02  0.1011586E+00
          1   -1    0    0  501    0  0.00000000000E+00  0.00000000000E+00  0.10355529814E+04  0.10355529814E+04  0.50400000000E-02 0. -1.
         -1   -1    0    0    0  501 -0.00000000000E+00 -0.00000000000E+00 -0.87055347914E+03  0.87055347916E+03  0.50400000000E-02 0.  1.
    8880023    1    1    2    0    0  0.61912317807E+02 -0.13981143364E+03 -0.72431692075E+03  0.99087112181E+03  0.65864270000E+03 0.  1.
    8880022    1    1    2    0    0 -0.61912317807E+02  0.13981143364E+03  0.88931642298E+03  0.91523533874E+03  0.15294330000E+03 0.  0.
<mgrwt>
<rscale>  0 0.50849273E+03</rscale>
<asrwt>0</asrwt>
<pdfrwt beam="1">  1        1 0.15931584E+00 0.67615869E+03</pdfrwt>
<pdfrwt beam="2">  1       -1 0.13393130E+00 0.67615869E+03</pdfrwt>
<totfact> 0.69880946E+00</totfact>
</mgrwt>
</event>
<event>
 4    2  0.4681349E-007  0.7440031E+03  0.7818608E-02  0.9848436E-01
         -1   -1    0    0    0  501 -0.00000000000E+00  0.00000000000E+00  0.29716482183E+03  0.29716482188E+03  0.50400000000E-02 0.  1.
          1   -1    0    0  501    0  0.00000000000E+00 -0.00000000000E+00 -0.18804779581E+04  0.18804779581E+04  0.50400000000E-02 0. -1.
    8880023    1    1    2    0    0  0.16556666594E+02  0.34562458390E+03 -0.23951346503E+03  0.78160564379E+03  0.65864270000E+03 0.  0.
    8880022    1    1    2    0    0 -0.16556666594E+02 -0.34562458390E+03 -0.13437996713E+04  0.13960371362E+04  0.15294330000E+03 0. -1.
<mgrwt>
<rscale>  0 0.62826726E+03</rscale>
<asrwt>0</asrwt>
<pdfrwt beam="1">  1        1 0.28930429E+00 0.74400315E+03</pdfrwt>
<pdfrwt beam="2">  1       -1 0.45717666E-01 0.74400315E+03</pdfrwt>
<totfact> 0.17780000E+01</totfact>
</mgrwt>
</event>
<event>
 4    2  0.4681349E-007  0.1251499E+04  0.7818608E-02  0.9108617E-01
         -1   -1    0    0    0  501 -0.00000000000E+00  0.00000000000E+00  0.19699986909E+04  0.19699986910E+04  0.50400000000E-02 0.  1.
          1   -1    0    0  501    0  0.00000000000E+00 -0.00000000000E+00 -0.19601049607E+04  0.19601049607E+04  0.50400000000E-02 0. -1.
    8880023    1    1    2    0    0 -0.10496343922E+04  0.17523724124E+03  0.15871987526E+04  0.20212497457E+04  0.65864270000E+03 0.  0.
    8880022    1    1    2    0    0  0.10496343922E+04 -0.17523724124E+03 -0.15773050223E+04  0.19088539060E+04  0.15294330000E+03 0.  0.
<mgrwt>
<rscale>  0 0.12048551E+04</rscale>
<asrwt>0</asrwt>
<pdfrwt beam="1">  1        1 0.30155461E+00 0.12514994E+04</pdfrwt>
<pdfrwt beam="2">  1       -1 0.30307672E+00 0.12514994E+04</pdfrwt>
<totfact> 0.97802641E-02</totfact>
</mgrwt>
</event>
<event>
 4    2  0.4681349E-007  0.7857449E+03  0.7818608E-02  0.9742511E-01
          1   -1    0    0  501    0  0.00000000000E+00  0.00000000000E+00  0.89990255925E+03  0.89990255926E+03  0.50400000000E-02 0. -1.
         -1   -1    0    0    0  501 -0.00000000000E+00 -0.00000000000E+00 -0.59422151592E+03  0.59422151594E+03  0.50400000000E-02 0.  1.
    8880023    1    1    2    0    0  0.21630820786E+03  0.36985883026E+03 -0.20313422602E+03  0.81157779366E+03  0.65864270000E+03 0.  0.
    8880022    1    1    2    0    0 -0.21630820786E+03 -0.36985883026E+03  0.50881526936E+03  0.68254628155E+03  0.15294330000E+03 0.  0.
<mgrwt>
<rscale>  0 0.68541133E+03</rscale>
<asrwt>0</asrwt>
<pdfrwt beam="1">  1        1 0.13844655E+00 0.78574487E+03</pdfrwt>
<pdfrwt beam="2">  1       -1 0.91418694E-01 0.78574487E+03</pdfrwt>
<totfact> 0.21739062E+01</totfact>
</mgrwt>
</event>
<event>
 4    2  0.4681349E-007  0.8599925E+03  0.7818608E-02  0.9593577E-01
          1   -1    0    0  501    0  0.00000000000E+00  0.00000000000E+00  0.27810371457E+04  0.27810371457E+04  0.50400000000E-02 0. -1.
         -1   -1    0    0    0  501 -0.00000000000E+00 -0.00000000000E+00 -0.32139808754E+03  0.32139808758E+03  0.50400000000E-02 0.  1.
    8880023    1    1    2    0    0 -0.23231409019E+03  0.50180384830E+03  0.23706808018E+04  0.25218474595E+04  0.65864270000E+03 0. -1.
    8880022    1    1    2    0    0  0.23231409019E+03 -0.50180384830E+03  0.88958256350E+02  0.58058777377E+03  0.15294330000E+03 0.  1.
<mgrwt>
<rscale>  0 0.77722776E+03</rscale>
<asrwt>0</asrwt>
<pdfrwt beam="1">  1        1 0.42785188E+00 0.85999253E+03</pdfrwt>
<pdfrwt beam="2">  1       -1 0.49445859E-01 0.85999253E+03</pdfrwt>
<totfact> 0.36846414E+00</totfact>
</mgrwt>
</event>
<event>
 4    2  0.4681349E-007  0.1322668E+04  0.7818608E-02  0.9046228E-01
         -1   -1    0    0    0  501 -0.00000000000E+00  0.00000000000E+00  0.16027225334E+04  0.16027225334E+04  0.50400000000E-02 0.  1.
          1   -1    0    0  501    0  0.00000000000E+00 -0.00000000000E+00 -0.15714809370E+04  0.15714809370E+04  0.50400000000E-02 0. -1.
    8880023    1    1    2    0    0  0.92590542820E+03 -0.67700830777E+03 -0.97302570378E+03  0.16420202000E+04  0.65864270000E+03 0. -1.
    8880022    1    1    2    0    0 -0.92590542820E+03  0.67700830777E+03  0.10042673002E+04  0.15321832704E+04  0.15294330000E+03 0.  0.
<mgrwt>
<rscale>  0 0.12791960E+04</rscale>
<asrwt>0</asrwt>
<pdfrwt beam="1">  1        1 0.24176630E+00 0.13226683E+04</pdfrwt>
<pdfrwt beam="2">  1       -1 0.24657270E+00 0.13226683E+04</pdfrwt>
<totfact> 0.41368326E-01</totfact>
</mgrwt>
</event>
<event>
 4    2  0.4681349E-007  0.7877270E+03  0.7818608E-02  0.9737989E-01
          1   -1    0    0  501    0  0.00000000000E+00  0.00000000000E+00  0.13015490431E+04  0.13015490432E+04  0.50400000000E-02 0. -1.
         -1   -1    0    0    0  501 -0.00000000000E+00 -0.00000000000E+00 -0.67492857901E+03  0.67492857902E+03  0.50400000000E-02 0.  1.
    8880023    1    1    2    0    0  0.37431146390E+03 -0.21585783440E+03 -0.37688651584E+03  0.87324528556E+03  0.65864270000E+03 0.  1.
    8880022    1    1    2    0    0 -0.37431146390E+03  0.21585783440E+03  0.10035069800E+04  0.11032323366E+04  0.15294330000E+03 0.  0.
<mgrwt>
<rscale>  0 0.68799275E+03</rscale>
<asrwt>0</asrwt>
<pdfrwt beam="1">  1        1 0.20023831E+00 0.78772704E+03</pdfrwt>
<pdfrwt beam="2">  1       -1 0.10383517E+00 0.78772704E+03</pdfrwt>
<totfact> 0.81293007E+00</totfact>
</mgrwt>
</event>
<event>
 4    2  0.4681349E-007  0.9531898E+03  0.7818608E-02  0.9445539E-01
         -1   -1    0    0    0  501 -0.00000000000E+00  0.00000000000E+00  0.10251736415E+04  0.10251736415E+04  0.50400000000E-02 0.  1.
          1   -1    0    0  501    0  0.00000000000E+00 -0.00000000000E+00 -0.82021539785E+03  0.82021539787E+03  0.50400000000E-02 0. -1.
    8880023    1    1    2    0    0  0.64155694621E+03 -0.25132692968E+03 -0.27475387876E+03  0.99199820614E+03  0.65864270000E+03 0. -1.
    8880022    1    1    2    0    0 -0.64155694621E+03  0.25132692968E+03  0.47971212236E+03  0.85339083319E+03  0.15294330000E+03 0.  0.
<mgrwt>
<rscale>  0 0.88420871E+03</rscale>
<asrwt>0</asrwt>
<pdfrwt beam="1">  1        1 0.12618698E+00 0.95318977E+03</pdfrwt>
<pdfrwt beam="2">  1       -1 0.15771902E+00 0.95318977E+03</pdfrwt>
<totfact> 0.65078074E+00</totfact>
</mgrwt>
</event>
<event>
 4    2  0.4681349E-007  0.8142564E+03  0.7818608E-02  0.9680778E-01
          1   -1    0    0  501    0  0.00000000000E+00  0.00000000000E+00  0.19098562727E+04  0.19098562727E+04  0.50400000000E-02 0. -1.
         -1   -1    0    0    0  501 -0.00000000000E+00 -0.00000000000E+00 -0.50580150086E+03  0.50580150089E+03  0.50400000000E-02 0.  1.
    8880023    1    1    2    0    0 -0.43666613263E+03  0.19628021862E+03 -0.10881062014E+03  0.82149448746E+03  0.65864270000E+03 0.  0.
    8880022    1    1    2    0    0  0.43666613263E+03 -0.19628021862E+03  0.15128653920E+04  0.15941632862E+04  0.15294330000E+03 0.  0.
<mgrwt>
<rscale>  0 0.72172865E+03</rscale>
<asrwt>0</asrwt>
<pdfrwt beam="1">  1        1 0.29382405E+00 0.81425637E+03</pdfrwt>
<pdfrwt beam="2">  1       -1 0.77815613E-01 0.81425637E+03</pdfrwt>
<totfact> 0.58838152E+00</totfact>
</mgrwt>
</event>
<event>
 4    2  0.4681349E-007  0.7313577E+03  0.7818608E-02  0.9885877E-01
         -1   -1    0    0    0  501 -0.00000000000E+00  0.00000000000E+00  0.30424548845E+03  0.30424548849E+03  0.50400000000E-02 0.  1.
          1   -1    0    0  501    0  0.00000000000E+00 -0.00000000000E+00 -0.11396449886E+04  0.11396449886E+04  0.50400000000E-02 0. -1.
    8880023    1    1    2    0    0 -0.25045126134E+03  0.19582641447E+03 -0.27431995399E+03  0.78111168365E+03  0.65864270000E+03 0.  0.
    8880022    1    1    2    0    0  0.25045126134E+03 -0.19582641447E+03 -0.56107954612E+03  0.66277879341E+03  0.15294330000E+03 0.  0.
<mgrwt>
<rscale>  0 0.60950668E+03</rscale>
<asrwt>0</asrwt>
<pdfrwt beam="1">  1        1 0.17533000E+00 0.73135766E+03</pdfrwt>
<pdfrwt beam="2">  1       -1 0.46806999E-01 0.73135766E+03</pdfrwt>
<totfact> 0.55272214E+01</totfact>
</mgrwt>
</event>
<event>
 4    2  0.4681349E-007  0.1124975E+04  0.7818608E-02  0.9233747E-01
          1   -1    0    0  501    0  0.00000000000E+00  0.00000000000E+00  0.28953645958E+04  0.28953645958E+04  0.50400000000E-02 0. -1.
         -1   -1    0    0    0  501 -0.00000000000E+00 -0.00000000000E+00 -0.93656446209E+03  0.93656446211E+03  0.50400000000E-02 0.  1.
    8880023    1    1    2    0    0  0.41887421781E+03  0.81012463224E+03 -0.48044847080E+03  0.12232736691E+04  0.65864270000E+03 0.  0.
    8880022    1    1    2    0    0 -0.41887421781E+03 -0.81012463224E+03  0.24392486045E+04  0.26086553889E+04  0.15294330000E+03 0.  0.
<mgrwt>
<rscale>  0 0.10711795E+04</rscale>
<asrwt>0</asrwt>
<pdfrwt beam="1">  1        1 0.44544072E+00 0.11249745E+04</pdfrwt>
<pdfrwt beam="2">  1       -1 0.14408684E+00 0.11249745E+04</pdfrwt>
<totfact> 0.27760718E-01</totfact>
</mgrwt>
</event>
<event>
 4    2  0.4681349E-007  0.6609806E+03  0.7818608E-02  0.1023173E+00
          1   -1    0    0  501    0  0.00000000000E+00  0.00000000000E+00  0.30993916894E+04  0.30993916894E+04  0.50400000000E-02 0. -1.
         -1   -1    0    0    0  501 -0.00000000000E+00 -0.00000000000E+00 -0.70653854712E+02  0.70653854892E+02  0.50400000000E-02 0.  1.
    8880023    1    1    2    0    0 -0.41311156036E+02 -0.37129467696E+02  0.15868856170E+04  0.17190408304E+04  0.65864270000E+03 0.  1.
    8880022    1    1    2    0    0  0.41311156036E+02  0.37129467696E+02  0.14418522177E+04  0.14510047139E+04  0.15294330000E+03 0.  0.
<mgrwt>
<rscale>  0 0.46558596E+03</rscale>
<asrwt>0</asrwt>
<pdfrwt beam="1">  1        1 0.47682953E+00 0.66098065E+03</pdfrwt>
<pdfrwt beam="2">  1       -1 0.10869823E-01 0.66098065E+03</pdfrwt>
<totfact> 0.30017693E+01</totfact>
</mgrwt>
</event>
<event>
 4    2  0.4681349E-007  0.6959483E+03  0.7818608E-02  0.1001444E+00
         -1   -1    0    0    0  501 -0.00000000000E+00  0.00000000000E+00  0.55654637534E+03  0.55654637537E+03  0.50400000000E-02 0.  1.
          1   -1    0    0  501    0  0.00000000000E+00 -0.00000000000E+00 -0.46305355115E+03  0.46305355117E+03  0.50400000000E-02 0. -1.
    8880023    1    1    2    0    0 -0.48617763197E+02  0.21947710107E+03 -0.74611913581E+02  0.69993644619E+03  0.65864270000E+03 0. -1.
    8880022    1    1    2    0    0  0.48617763197E+02 -0.21947710107E+03  0.16810473778E+03  0.31966348035E+03  0.15294330000E+03 0.  0.
<mgrwt>
<rscale>  0 0.55021454E+03</rscale>
<asrwt>0</asrwt>
<pdfrwt beam="1">  1        1 0.71239008E-01 0.69594834E+03</pdfrwt>
<pdfrwt beam="2">  1       -1 0.85622519E-01 0.69594834E+03</pdfrwt>
<totfact> 0.67958467E+01</totfact>
</mgrwt>
</event>
<event>
 4    2  0.4681349E-007  0.7502375E+03  0.7818608E-02  0.9831070E-01
          1   -1    0    0  501    0  0.00000000000E+00  0.00000000000E+00  0.85219252415E+03  0.85219252417E+03  0.50400000000E-02 0. -1.
         -1   -1    0    0    0  501 -0.00000000000E+00 -0.00000000000E+00 -0.67953244596E+03  0.67953244597E+03  0.50400000000E-02 0.  1.
    8880023    1    1    2    0    0 -0.34194776772E+03  0.11008108052E+03 -0.39102895313E+03  0.84602598576E+03  0.65864270000E+03 0.  1.
    8880022    1    1    2    0    0  0.34194776772E+03 -0.11008108052E+03  0.56368903132E+03  0.68569898438E+03  0.15294330000E+03 0.  0.
<mgrwt>
<rscale>  0 0.63721451E+03</rscale>
<asrwt>0</asrwt>
<pdfrwt beam="1">  1        1 0.13110654E+00 0.75023751E+03</pdfrwt>
<pdfrwt beam="2">  1       -1 0.10454345E+00 0.75023751E+03</pdfrwt>
<totfact> 0.17640678E+01</totfact>
</mgrwt>
</event>
<event>
 4    2  0.4681349E-007  0.1057029E+04  0.7818608E-02  0.9310478E-01
          1   -1    0    0  501    0  0.00000000000E+00  0.00000000000E+00  0.26400611054E+04  0.26400611055E+04  0.50400000000E-02 0. -1.
         -1   -1    0    0    0  501 -0.00000000000E+00 -0.00000000000E+00 -0.40041884543E+03  0.40041884546E+03  0.50400000000E-02 0.  1.
    8880023    1    1    2    0    0 -0.82662775930E+03  0.13694687395E+02  0.64641317286E+03  0.12390162199E+04  0.65864270000E+03 0.  0.
    8880022    1    1    2    0    0  0.82662775930E+03 -0.13694687395E+02  0.15932290872E+04  0.18014637310E+04  0.15294330000E+03 0.  0.
<mgrwt>
<rscale>  0 0.99823890E+03</rscale>
<asrwt>0</asrwt>
<pdfrwt beam="1">  1        1 0.40616325E+00 0.10570294E+04</pdfrwt>
<pdfrwt beam="2">  1       -1 0.61602899E-01 0.10570294E+04</pdfrwt>
<totfact> 0.29286620E+00</totfact>
</mgrwt>
</event>
<event>
 4    2  0.4681349E-007  0.6705034E+03  0.7818608E-02  0.1015305E+00
         -1   -1    0    0    0  501 -0.00000000000E+00  0.00000000000E+00  0.19035134923E+03  0.19035134930E+03  0.50400000000E-02 0.  1.
          1   -1    0    0  501    0  0.00000000000E+00 -0.00000000000E+00 -0.11451626661E+04  0.11451626661E+04  0.50400000000E-02 0. -1.
    8880023    1    1    2    0    0 -0.67820552513E+02 -0.10566475707E+03 -0.49039929085E+03  0.83070231669E+03  0.65864270000E+03 0.  0.
    8880022    1    1    2    0    0  0.67820552513E+02  0.10566475707E+03 -0.46441202598E+03  0.50481169868E+03  0.15294330000E+03 0.  0.
<mgrwt>
<rscale>  0 0.49419802E+03</rscale>
<asrwt>0</asrwt>
<pdfrwt beam="1">  1        1 0.17617887E+00 0.67050345E+03</pdfrwt>
<pdfrwt beam="2">  1       -1 0.29284824E-01 0.67050345E+03</pdfrwt>
<totfact> 0.12791768E+02</totfact>
</mgrwt>
</event>
<event>
 4    2  0.4681349E-007  0.8947109E+03  0.7818608E-02  0.9534576E-01
         -1   -1    0    0    0  501 -0.00000000000E+00  0.00000000000E+00  0.84352683301E+03  0.84352683302E+03  0.50400000000E-02 0.  1.
          1   -1    0    0  501    0  0.00000000000E+00 -0.00000000000E+00 -0.10460358976E+04  0.10460358976E+04  0.50400000000E-02 0. -1.
    8880023    1    1    2    0    0 -0.12266568737E+03  0.59300134477E+03  0.43694058072E+03  0.99570314005E+03  0.65864270000E+03 0.  0.
    8880022    1    1    2    0    0  0.12266568737E+03 -0.59300134477E+03 -0.63944964529E+03  0.89385959056E+03  0.15294330000E+03 0.  0.
<mgrwt>
<rscale>  0 0.81781965E+03</rscale>
<asrwt>0</asrwt>
<pdfrwt beam="1">  1        1 0.16092860E+00 0.89471094E+03</pdfrwt>
<pdfrwt beam="2">  1       -1 0.12977336E+00 0.89471094E+03</pdfrwt>
<totfact> 0.72043414E+00</totfact>
</mgrwt>
</event>
<event>
 4    2  0.4681349E-007  0.9174755E+03  0.7818608E-02  0.9498541E-01
         -1   -1    0    0    0  501 -0.00000000000E+00  0.00000000000E+00  0.89275378294E+03  0.89275378295E+03  0.50400000000E-02 0.  1.
          1   -1    0    0  501    0  0.00000000000E+00 -0.00000000000E+00 -0.11220083388E+04  0.11220083388E+04  0.50400000000E-02 0. -1.
    8880023    1    1    2    0    0 -0.42457302460E+03 -0.47716753190E+03  0.49052868443E+03  0.10403747898E+04  0.65864270000E+03 0.  1.
    8880022    1    1    2    0    0  0.42457302460E+03  0.47716753190E+03 -0.71978324033E+03  0.97438733201E+03  0.15294330000E+03 0.  0.
<mgrwt>
<rscale>  0 0.84391494E+03</rscale>
<asrwt>0</asrwt>
<pdfrwt beam="1">  1        1 0.17261667E+00 0.91747551E+03</pdfrwt>
<pdfrwt beam="2">  1       -1 0.13734674E+00 0.91747551E+03</pdfrwt>
<totfact> 0.54471076E+00</totfact>
</mgrwt>
</event>
<event>
 4    2  0.4681349E-007  0.6766995E+03  0.7818608E-02  0.1011256E+00
          1   -1    0    0  501    0  0.00000000000E+00  0.00000000000E+00  0.12272839753E+04  0.12272839753E+04  0.50400000000E-02 0. -1.
         -1   -1    0    0    0  501 -0.00000000000E+00 -0.00000000000E+00 -0.27549449445E+03  0.27549449449E+03  0.50400000000E-02 0.  1.
    8880023    1    1    2    0    0  0.12637208224E+03  0.90233450778E+02  0.17918660138E+03  0.70002144480E+03  0.65864270000E+03 0.  1.
    8880022    1    1    2    0    0 -0.12637208224E+03 -0.90233450778E+02  0.77260287949E+03  0.80275702502E+03  0.15294330000E+03 0. -1.
<mgrwt>
<rscale>  0 0.50978580E+03</rscale>
<asrwt>0</asrwt>
<pdfrwt beam="1">  1        1 0.18881292E+00 0.67669948E+03</pdfrwt>
<pdfrwt beam="2">  1       -1 0.42383768E-01 0.67669948E+03</pdfrwt>
<totfact> 0.57704745E+01</totfact>
</mgrwt>
</event>
<event>
 4    2  0.4681349E-007  0.7670999E+03  0.7818608E-02  0.9787062E-01
          1   -1    0    0  501    0  0.00000000000E+00  0.00000000000E+00  0.89681260771E+03  0.89681260773E+03  0.50400000000E-02 0. -1.
         -1   -1    0    0    0  501 -0.00000000000E+00 -0.00000000000E+00 -0.63532752589E+03  0.63532752591E+03  0.50400000000E-02 0.  1.
    8880023    1    1    2    0    0 -0.67475201549E+02  0.38740049794E+03 -0.30523960769E+03  0.82559885719E+03  0.65864270000E+03 0.  1.
    8880022    1    1    2    0    0  0.67475201549E+02 -0.38740049794E+03  0.56672468950E+03  0.70654127645E+03  0.15294330000E+03 0.  0.
<mgrwt>
<rscale>  0 0.66061537E+03</rscale>
<asrwt>0</asrwt>
<pdfrwt beam="1">  1        1 0.13797117E+00 0.76709990E+03</pdfrwt>
<pdfrwt beam="2">  1       -1 0.97742696E-01 0.76709990E+03</pdfrwt>
<totfact> 0.18867305E+01</totfact>
</mgrwt>
</event>
<event>
 4    2  0.4681349E-007  0.9928477E+03  0.7818608E-02  0.9390975E-01
          1   -1    0    0  501    0  0.00000000000E+00  0.00000000000E+00  0.11100534727E+04  0.11100534727E+04  0.50400000000E-02 0. -1.
         -1   -1    0    0    0  501 -0.00000000000E+00 -0.00000000000E+00 -0.87197232332E+03  0.87197232334E+03  0.50400000000E-02 0.  1.
    8880023    1    1    2    0    0 -0.73838568594E+03  0.81993296521E+02 -0.31686926650E+03  0.10421864805E+04  0.65864270000E+03 0.  1.
    8880022    1    1    2    0    0  0.73838568594E+03 -0.81993296521E+02  0.55495041583E+03  0.93983931548E+03  0.15294330000E+03 0.  0.
<mgrwt>
<rscale>  0 0.92822104E+03</rscale>
<asrwt>0</asrwt>
<pdfrwt beam="1">  1        1 0.17077746E+00 0.99284769E+03</pdfrwt>
<pdfrwt beam="2">  1       -1 0.13414959E+00 0.99284769E+03</pdfrwt>
<totfact> 0.58546970E+00</totfact>
</mgrwt>
</event>
<event>
 4    2  0.4681349E-007  0.7925950E+03  0.7818608E-02  0.9727042E-01
         -1   -1    0    0    0  501 -0.00000000000E+00  0.00000000000E+00  0.69765185380E+03  0.69765185382E+03  0.50400000000E-02 0.  1.
          1   -1    0    0  501    0  0.00000000000E+00 -0.00000000000E+00 -0.22884169674E+04  0.22884169674E+04  0.50400000000E-02 0. -1.
    8880023    1    1    2    0    0  0.40530937291E+03 -0.17355383402E+03  0.43714524983E+03  0.90515346587E+03  0.65864270000E+03 0.  1.
    8880022    1    1    2    0    0 -0.40530937291E+03  0.17355383402E+03 -0.20279103634E+04  0.20809153553E+04  0.15294330000E+03 0.  0.
<mgrwt>
<rscale>  0 0.69429303E+03</rscale>
<asrwt>0</asrwt>
<pdfrwt beam="1">  1        1 0.35206415E+00 0.79259500E+03</pdfrwt>
<pdfrwt beam="2">  1       -1 0.10733106E+00 0.79259500E+03</pdfrwt>
<totfact> 0.16125047E+00</totfact>
</mgrwt>
</event>
<event>
 4    2  0.8005586E-007  0.9132337E+03  0.7818608E-02  0.9505113E-01
          1   -1    0    0  501    0  0.00000000000E+00  0.00000000000E+00  0.29149285107E+04  0.29149285107E+04  0.50400000000E-02 0. -1.
         -1   -1    0    0    0  501 -0.00000000000E+00 -0.00000000000E+00 -0.90253995301E+03  0.90253995302E+03  0.50400000000E-02 0.  1.
    8880023    1    1    2    0    0  0.62761396271E+03  0.79285784490E+02 -0.62131037028E+03  0.11045461983E+04  0.65864270000E+03 0.  1.
    8880022    1    1    2    0    0 -0.62761396271E+03 -0.79285784490E+02  0.26336989280E+04  0.27129222654E+04  0.15294330000E+03 0.  0.
<mgrwt>
<rscale>  0 0.83907929E+03</rscale>
<asrwt>0</asrwt>
<pdfrwt beam="1">  1        1 0.44845053E+00 0.91323367E+03</pdfrwt>
<pdfrwt beam="2">  1       -1 0.13885230E+00 0.91323367E+03</pdfrwt>
<totfact> 0.30799874E-01</totfact>
</mgrwt>
</event>
<event>
 4    2  0.4681349E-007  0.7672629E+03  0.7818608E-02  0.9786655E-01
          1   -1    0    0  501    0  0.00000000000E+00  0.00000000000E+00  0.67739508247E+03  0.67739508249E+03  0.50400000000E-02 0. -1.
         -1   -1    0    0    0  501 -0.00000000000E+00 -0.00000000000E+00 -0.15707577291E+04  0.15707577291E+04  0.50400000000E-02 0.  1.
    8880023    1    1    2    0    0 -0.37453388424E+03  0.12085733618E+03 -0.13952407235E+04  0.15922904913E+04  0.65864270000E+03 0.  0.
    8880022    1    1    2    0    0  0.37453388424E+03 -0.12085733618E+03  0.50187807681E+03  0.65586232027E+03  0.15294330000E+03 0.  0.
<mgrwt>
<rscale>  0 0.66083658E+03</rscale>
<asrwt>0</asrwt>
<pdfrwt beam="1">  1        1 0.10421463E+00 0.76726288E+03</pdfrwt>
<pdfrwt beam="2">  1       -1 0.24165503E+00 0.76726288E+03</pdfrwt>
<totfact> 0.23572576E+00</totfact>
</mgrwt>
</event>
<event>
 4    2  0.4681349E-007  0.1148188E+04  0.7818608E-02  0.9209211E-01
         -1   -1    0    0    0  501 -0.00000000000E+00  0.00000000000E+00  0.11551102097E+04  0.11551102097E+04  0.50400000000E-02 0.  1.
          1   -1    0    0  501    0  0.00000000000E+00 -0.00000000000E+00 -0.96528542771E+03  0.96528542772E+03  0.50400000000E-02 0. -1.
    8880023    1    1    2    0    0 -0.79676750578E+03 -0.49968612272E+03  0.21050493402E+03  0.11673248104E+04  0.65864270000E+03 0. -1.
    8880022    1    1    2    0    0  0.79676750578E+03  0.49968612272E+03 -0.20680152074E+02  0.95307082697E+03  0.15294330000E+03 0.  0.
<mgrwt>
<rscale>  0 0.10958860E+04</rscale>
<asrwt>0</asrwt>
<pdfrwt beam="1">  1        1 0.14850545E+00 0.11481877E+04</pdfrwt>
<pdfrwt beam="2">  1       -1 0.17770926E+00 0.11481877E+04</pdfrwt>
<totfact> 0.34376780E+00</totfact>
</mgrwt>
</event>
<event>
 4    2  0.4681349E-007  0.1034869E+04  0.7818608E-02  0.9337296E-01
         -1   -1    0    0    0  501 -0.00000000000E+00  0.00000000000E+00  0.86069646999E+03  0.86069647000E+03  0.50400000000E-02 0.  1.
          1   -1    0    0  501    0  0.00000000000E+00 -0.00000000000E+00 -0.99221834893E+03  0.99221834894E+03  0.50400000000E-02 0. -1.
    8880023    1    1    2    0    0  0.68023252613E+03  0.41764424257E+03 -0.49466913150E+02  0.10360502810E+04  0.65864270000E+03 0.  1.
    8880022    1    1    2    0    0 -0.68023252613E+03 -0.41764424257E+03 -0.82054965791E+02  0.81686453796E+03  0.15294330000E+03 0. -1.
<mgrwt>
<rscale>  0 0.97420620E+03</rscale>
<asrwt>0</asrwt>
<pdfrwt beam="1">  1        1 0.15264898E+00 0.10348687E+04</pdfrwt>
<pdfrwt beam="2">  1       -1 0.13241484E+00 0.10348687E+04</pdfrwt>
<totfact> 0.74179019E+00</totfact>
</mgrwt>
</event>
<event>
 4    2  0.4681349E-007  0.8549798E+03  0.7818608E-02  0.9602557E-01
         -1   -1    0    0    0  501 -0.00000000000E+00  0.00000000000E+00  0.17138145524E+04  0.17138145524E+04  0.50400000000E-02 0.  1.
          1   -1    0    0  501    0  0.00000000000E+00 -0.00000000000E+00 -0.43784720698E+03  0.43784720701E+03  0.50400000000E-02 0. -1.
    8880023    1    1    2    0    0 -0.28527048052E+03  0.46454388783E+03  0.13319130304E+04  0.15827137447E+04  0.65864270000E+03 0.  1.
    8880022    1    1    2    0    0  0.28527048052E+03 -0.46454388783E+03 -0.55945685005E+02  0.56894801472E+03  0.15294330000E+03 0.  0.
<mgrwt>
<rscale>  0 0.77127203E+03</rscale>
<asrwt>0</asrwt>
<pdfrwt beam="1">  1        1 0.67361108E-01 0.85497981E+03</pdfrwt>
<pdfrwt beam="2">  1       -1 0.26366378E+00 0.85497981E+03</pdfrwt>
<totfact> 0.31041727E+00</totfact>
</mgrwt>
</event>
<event>
 4    2  0.4681349E-007  0.7059622E+03  0.7818608E-02  0.9973312E-01
          1   -1    0    0  501    0  0.00000000000E+00  0.00000000000E+00  0.84929902590E+03  0.84929902592E+03  0.50400000000E-02 0. -1.
         -1   -1    0    0    0  501 -0.00000000000E+00 -0.00000000000E+00 -0.43604224039E+03  0.43604224042E+03  0.50400000000E-02 0.  1.
    8880023    1    1    2    0    0 -0.25410975294E+03 -0.78575257091E+00 -0.79281024922E+02  0.71039993745E+03  0.65864270000E+03 0. -1.
    8880022    1    1    2    0    0  0.25410975294E+03  0.78575257091E+00  0.49253781043E+03  0.57494132889E+03  0.15294330000E+03 0.  0.
<mgrwt>
<rscale>  0 0.56836093E+03</rscale>
<asrwt>0</asrwt>
<pdfrwt beam="1">  1        1 0.13066139E+00 0.70596217E+03</pdfrwt>
<pdfrwt beam="2">  1       -1 0.67083422E-01 0.70596217E+03</pdfrwt>
<totfact> 0.46409953E+01</totfact>
</mgrwt>
</event>
<event>
 4    2  0.4681349E-007  0.8395986E+03  0.7818608E-02  0.9630938E-01
         -1   -1    0    0    0  501 -0.00000000000E+00  0.00000000000E+00  0.58233742102E+03  0.58233742105E+03  0.50400000000E-02 0.  1.
          1   -1    0    0  501    0  0.00000000000E+00 -0.00000000000E+00 -0.13912704991E+04  0.13912704991E+04  0.50400000000E-02 0. -1.
    8880023    1    1    2    0    0  0.25494109987E+03 -0.45400511258E+03  0.16783353361E+03  0.85620903284E+03  0.65864270000E+03 0.  1.
    8880022    1    1    2    0    0 -0.25494109987E+03  0.45400511258E+03 -0.97676661167E+03  0.11173988873E+04  0.15294330000E+03 0.  0.
<mgrwt>
<rscale>  0 0.75281936E+03</rscale>
<asrwt>0</asrwt>
<pdfrwt beam="1">  1        1 0.21404161E+00 0.83959860E+03</pdfrwt>
<pdfrwt beam="2">  1       -1 0.89590373E-01 0.83959860E+03</pdfrwt>
<totfact> 0.97383934E+00</totfact>
</mgrwt>
</event>
<event>
 4    2  0.4681349E-007  0.8703904E+03  0.7818608E-02  0.9575342E-01
          1   -1    0    0  501    0  0.00000000000E+00  0.00000000000E+00  0.69508960037E+03  0.69508960039E+03  0.50400000000E-02 0. -1.
         -1   -1    0    0    0  501 -0.00000000000E+00 -0.00000000000E+00 -0.18921325216E+04  0.18921325216E+04  0.50400000000E-02 0.  1.
    8880023    1    1    2    0    0 -0.25229117635E+03  0.51001796660E+03 -0.16355644886E+04  0.18527413653E+04  0.65864270000E+03 0.  0.
    8880022    1    1    2    0    0  0.25229117635E+03 -0.51001796660E+03  0.43852156738E+03  0.73448075672E+03  0.15294330000E+03 0.  0.
<mgrwt>
<rscale>  0 0.78949956E+03</rscale>
<asrwt>0</asrwt>
<pdfrwt beam="1">  1        1 0.10693686E+00 0.87039036E+03</pdfrwt>
<pdfrwt beam="2">  1       -1 0.29109731E+00 0.87039036E+03</pdfrwt>
<totfact> 0.10725919E+00</totfact>
</mgrwt>
</event>
<event>
 4    2  0.4681349E-007  0.8965292E+03  0.7818608E-02  0.9531626E-01
         -1   -1    0    0    0  501 -0.00000000000E+00  0.00000000000E+00  0.65268802080E+03  0.65268802082E+03  0.50400000000E-02 0.  1.
          1   -1    0    0  501    0  0.00000000000E+00 -0.00000000000E+00 -0.15119476032E+04  0.15119476032E+04  0.50400000000E-02 0. -1.
    8880023    1    1    2    0    0  0.13284670852E+03  0.59355385795E+03  0.21385923174E+03  0.92168346384E+03  0.65864270000E+03 0.  1.
    8880022    1    1    2    0    0 -0.13284670852E+03 -0.59355385795E+03 -0.10731188141E+04  0.12429521601E+04  0.15294330000E+03 0.  0.
<mgrwt>
<rscale>  0 0.81991756E+03</rscale>
<asrwt>0</asrwt>
<pdfrwt beam="1">  1        1 0.23260732E+00 0.89652922E+03</pdfrwt>
<pdfrwt beam="2">  1       -1 0.10041354E+00 0.89652922E+03</pdfrwt>
<totfact> 0.61738340E+00</totfact>
</mgrwt>
</event>
<event>
 4    2  0.4681349E-007  0.7100168E+03  0.7818608E-02  0.9957939E-01
          1   -1    0    0  501    0  0.00000000000E+00  0.00000000000E+00  0.67377426148E+03  0.67377426150E+03  0.50400000000E-02 0. -1.
         -1   -1    0    0    0  501 -0.00000000000E+00 -0.00000000000E+00 -0.51888400419E+03  0.51888400421E+03  0.50400000000E-02 0.  1.
    8880023    1    1    2    0    0 -0.25331136802E+03  0.78402941099E+02 -0.18652290892E+03  0.73410807934E+03  0.65864270000E+03 0.  1.
    8880022    1    1    2    0    0  0.25331136802E+03 -0.78402941099E+02  0.34141316621E+03  0.45855018637E+03  0.15294330000E+03 0.  0.
<mgrwt>
<rscale>  0 0.57533661E+03</rscale>
<asrwt>0</asrwt>
<pdfrwt beam="1">  1        1 0.10365758E+00 0.71001681E+03</pdfrwt>
<pdfrwt beam="2">  1       -1 0.79828309E-01 0.71001681E+03</pdfrwt>
<totfact> 0.46428239E+01</totfact>
</mgrwt>
</event>
<event>
 4    2  0.4681349E-007  0.6852906E+03  0.7818608E-02  0.1006476E+00
         -1   -1    0    0    0  501 -0.00000000000E+00  0.00000000000E+00  0.39885335482E+03  0.39885335485E+03  0.50400000000E-02 0.  1.
          1   -1    0    0  501    0  0.00000000000E+00 -0.00000000000E+00 -0.58924378690E+03  0.58924378693E+03  0.50400000000E-02 0. -1.
    8880023    1    1    2    0    0 -0.13535604634E+03 -0.13225613146E+03 -0.10277792115E+02  0.68536762607E+03  0.65864270000E+03 0.  1.
    8880022    1    1    2    0    0  0.13535604634E+03  0.13225613146E+03 -0.18011263997E+03  0.30272951571E+03  0.15294330000E+03 0. -1.
<mgrwt>
<rscale>  0 0.52899369E+03</rscale>
<asrwt>0</asrwt>
<pdfrwt beam="1">  1        1 0.90652891E-01 0.68529056E+03</pdfrwt>
<pdfrwt beam="2">  1       -1 0.61362054E-01 0.68529056E+03</pdfrwt>
<totfact> 0.96881777E+01</totfact>
</mgrwt>
</event>
<event>
 4    2  0.4796418E-007  0.6893751E+03  0.7818608E-02  0.1004451E+00
         -1   -1    0    0    0  501 -0.00000000000E+00  0.00000000000E+00  0.75085800731E+03  0.75085800733E+03  0.50400000000E-02 0.  1.
          1   -1    0    0  501    0  0.00000000000E+00 -0.00000000000E+00 -0.16209536516E+04  0.16209536516E+04  0.50400000000E-02 0. -1.
    8880023    1    1    2    0    0  0.19536577007E+03 -0.57096902647E+02  0.57915625510E+03  0.90036660006E+03  0.65864270000E+03 0.  1.
    8880022    1    1    2    0    0 -0.19536577007E+03  0.57096902647E+02 -0.14492518994E+04  0.14714450589E+04  0.15294330000E+03 0.  0.
<mgrwt>
<rscale>  0 0.53740896E+03</rscale>
<asrwt>0</asrwt>
<pdfrwt beam="1">  1        1 0.24937748E+00 0.68937511E+03</pdfrwt>
<pdfrwt beam="2">  1       -1 0.11551662E+00 0.68937511E+03</pdfrwt>
<totfact> 0.38736005E+00</totfact>
</mgrwt>
</event>
<event>
 4    2  0.4681349E-007  0.1028656E+04  0.7818608E-02  0.9344991E-01
         -1   -1    0    0    0  501 -0.00000000000E+00  0.00000000000E+00  0.27452279023E+04  0.27452279023E+04  0.50400000000E-02 0.  1.
          1   -1    0    0  501    0  0.00000000000E+00 -0.00000000000E+00 -0.34900585982E+03  0.34900585986E+03  0.50400000000E-02 0. -1.
    8880023    1    1    2    0    0 -0.76405674737E+03 -0.20134502889E+03  0.18651296211E+04  0.21299862074E+04  0.65864270000E+03 0.  0.
    8880022    1    1    2    0    0  0.76405674737E+03  0.20134502889E+03  0.53109242140E+03  0.96424755480E+03  0.15294330000E+03 0.  0.
<mgrwt>
<rscale>  0 0.96744322E+03</rscale>
<asrwt>0</asrwt>
<pdfrwt beam="1">  1        1 0.53693211E-01 0.10286558E+04</pdfrwt>
<pdfrwt beam="2">  1       -1 0.42234274E+00 0.10286558E+04</pdfrwt>
<totfact> 0.36947547E-01</totfact>
</mgrwt>
</event>
<event>
 4    2  0.4681349E-007  0.7755468E+03  0.7818608E-02  0.9766403E-01
         -1   -1    0    0    0  501 -0.00000000000E+00  0.00000000000E+00  0.48834554712E+03  0.48834554715E+03  0.50400000000E-02 0.  1.
          1   -1    0    0  501    0  0.00000000000E+00 -0.00000000000E+00 -0.13847679232E+04  0.13847679232E+04  0.50400000000E-02 0. -1.
    8880023    1    1    2    0    0 -0.25930867278E+01  0.40945815631E+03  0.10293482567E+03  0.78234806223E+03  0.65864270000E+03 0.  0.
    8880022    1    1    2    0    0  0.25930867278E+01 -0.40945815631E+03 -0.99935720172E+03  0.10907654081E+04  0.15294330000E+03 0.  0.
<mgrwt>
<rscale>  0 0.67197118E+03</rscale>
<asrwt>0</asrwt>
<pdfrwt beam="1">  1        1 0.21304122E+00 0.77554685E+03</pdfrwt>
<pdfrwt beam="2">  1       -1 0.75130085E-01 0.77554685E+03</pdfrwt>
<totfact> 0.14469501E+01</totfact>
</mgrwt>
</event>
<event>
 4    2  0.4681349E-007  0.6685470E+03  0.7818608E-02  0.1016727E+00
          1   -1    0    0  501    0  0.00000000000E+00  0.00000000000E+00  0.18582995948E+04  0.18582995948E+04  0.50400000000E-02 0. -1.
         -1   -1    0    0    0  501 -0.00000000000E+00 -0.00000000000E+00 -0.34300767640E+03  0.34300767644E+03  0.50400000000E-02 0.  1.
    8880023    1    1    2    0    0  0.31053753064E+02 -0.11036559334E+03 -0.54804520442E+01  0.66856947387E+03  0.65864270000E+03 0.  1.
    8880022    1    1    2    0    0 -0.31053753064E+02  0.11036559334E+03  0.15207723704E+04  0.15327377973E+04  0.15294330000E+03 0.  0.
<mgrwt>
<rscale>  0 0.48886609E+03</rscale>
<asrwt>0</asrwt>
<pdfrwt beam="1">  1        1 0.28589225E+00 0.66854701E+03</pdfrwt>
<pdfrwt beam="2">  1       -1 0.52770412E-01 0.66854701E+03</pdfrwt>
<totfact> 0.14200141E+01</totfact>
</mgrwt>
</event>
<event>
 4    2  0.4681349E-007  0.1032651E+04  0.7818608E-02  0.9340034E-01
          1   -1    0    0  501    0  0.00000000000E+00  0.00000000000E+00  0.20453900910E+04  0.20453900910E+04  0.50400000000E-02 0. -1.
         -1   -1    0    0    0  501 -0.00000000000E+00 -0.00000000000E+00 -0.64533397677E+03  0.64533397679E+03  0.50400000000E-02 0.  1.
    8880023    1    1    2    0    0 -0.76251347673E+03 -0.22612154949E+03 -0.45599804653E+02  0.10336572477E+04  0.65864270000E+03 0.  0.
    8880022    1    1    2    0    0  0.76251347673E+03  0.22612154949E+03  0.14456559188E+04  0.16570668200E+04  0.15294330000E+03 0.  0.
<mgrwt>
<rscale>  0 0.97179341E+03</rscale>
<asrwt>0</asrwt>
<pdfrwt beam="1">  1        1 0.31467540E+00 0.10326509E+04</pdfrwt>
<pdfrwt beam="2">  1       -1 0.99282150E-01 0.10326509E+04</pdfrwt>
<totfact> 0.27090302E+00</totfact>
</mgrwt>
</event>
<event>
 4    2  0.4681349E-007  0.1419896E+04  0.7818608E-02  0.8968375E-01
          1   -1    0    0  501    0  0.00000000000E+00  0.00000000000E+00  0.26099352025E+04  0.26099352025E+04  0.50400000000E-02 0. -1.
         -1   -1    0    0    0  501 -0.00000000000E+00 -0.00000000000E+00 -0.10333174649E+04  0.10333174649E+04  0.50400000000E-02 0.  1.
    8880023    1    1    2    0    0  0.12399179499E+02  0.12578323057E+04  0.18647006171E+04  0.23437607486E+04  0.65864270000E+03 0. -1.
    8880022    1    1    2    0    0 -0.12399179499E+02 -0.12578323057E+04 -0.28808287953E+03  0.12994919189E+04  0.15294330000E+03 0.  0.
<mgrwt>
<rscale>  0 0.13800669E+04</rscale>
<asrwt>0</asrwt>
<pdfrwt beam="1">  1        1 0.40152849E+00 0.14198965E+04</pdfrwt>
<pdfrwt beam="2">  1       -1 0.15897192E+00 0.14198965E+04</pdfrwt>
<totfact> 0.32385703E-01</totfact>
</mgrwt>
</event>
<event>
 4    2  0.4681349E-007  0.7013844E+03  0.7818608E-02  0.9991506E-01
         -1   -1    0    0    0  501 -0.00000000000E+00  0.00000000000E+00  0.23027247588E+03  0.23027247593E+03  0.50400000000E-02 0.  1.
          1   -1    0    0  501    0  0.00000000000E+00 -0.00000000000E+00 -0.28756936148E+04  0.28756936148E+04  0.50400000000E-02 0. -1.
    8880023    1    1    2    0    0  0.13620387832E+03 -0.19894311807E+03 -0.33377406398E+03  0.77675298052E+03  0.65864270000E+03 0.  1.
    8880022    1    1    2    0    0 -0.13620387832E+03  0.19894311807E+03 -0.23116470750E+04  0.23292131103E+04  0.15294330000E+03 0.  0.
<mgrwt>
<rscale>  0 0.56024257E+03</rscale>
<asrwt>0</asrwt>
<pdfrwt beam="1">  1        1 0.44241438E+00 0.70138439E+03</pdfrwt>
<pdfrwt beam="2">  1       -1 0.35426537E-01 0.70138439E+03</pdfrwt>
<totfact> 0.59961599E+00</totfact>
</mgrwt>
</event>
<event>
 4    2  0.4681349E-007  0.6587891E+03  0.7818608E-02  0.1025433E+00
         -1   -1    0    0    0  501 -0.00000000000E+00  0.00000000000E+00  0.32612757641E+03  0.32612757645E+03  0.50400000000E-02 0.  1.
          1   -1    0    0  501    0  0.00000000000E+00 -0.00000000000E+00 -0.75011850499E+03  0.75011850501E+03  0.50400000000E-02 0. -1.
    8880023    1    1    2    0    0  0.10034041532E+02  0.96005526986E+01 -0.36920098014E+02  0.65982281902E+03  0.65864270000E+03 0.  1.
    8880022    1    1    2    0    0 -0.10034041532E+02 -0.96005526986E+01 -0.38707083057E+03  0.41642326244E+03  0.15294330000E+03 0.  0.
<mgrwt>
<rscale>  0 0.45776032E+03</rscale>
<asrwt>0</asrwt>
<pdfrwt beam="1">  1        1 0.11540285E+00 0.65878909E+03</pdfrwt>
<pdfrwt beam="2">  1       -1 0.50173474E-01 0.65878909E+03</pdfrwt>
<totfact> 0.10015801E+02</totfact>
</mgrwt>
</event>
<event>
 4    2  0.4681349E-007  0.8644618E+03  0.7818608E-02  0.9585675E-01
          1   -1    0    0  501    0  0.00000000000E+00  0.00000000000E+00  0.84601479937E+03  0.84601479939E+03  0.50400000000E-02 0. -1.
         -1   -1    0    0    0  501 -0.00000000000E+00 -0.00000000000E+00 -0.10849765050E+04  0.10849765050E+04  0.50400000000E-02 0.  1.
    8880023    1    1    2    0    0  0.47295266773E+03 -0.29966609436E+03 -0.75998394225E+03  0.11510298835E+04  0.65864270000E+03 0.  1.
    8880022    1    1    2    0    0 -0.47295266773E+03  0.29966609436E+03  0.52102223660E+03  0.77996142089E+03  0.15294330000E+03 0.  0.
<mgrwt>
<rscale>  0 0.78251569E+03</rscale>
<asrwt>0</asrwt>
<pdfrwt beam="1">  1        1 0.13015612E+00 0.86446180E+03</pdfrwt>
<pdfrwt beam="2">  1       -1 0.16691946E+00 0.86446180E+03</pdfrwt>
<totfact> 0.53332774E+00</totfact>
</mgrwt>
</event>
<event>
 4    2  0.4681349E-007  0.8579474E+03  0.7818608E-02  0.9597225E-01
          1   -1    0    0  501    0  0.00000000000E+00  0.00000000000E+00  0.19566752926E+04  0.19566752926E+04  0.50400000000E-02 0. -1.
         -1   -1    0    0    0  501 -0.00000000000E+00 -0.00000000000E+00 -0.30568333739E+03  0.30568333744E+03  0.50400000000E-02 0.  1.
    8880023    1    1    2    0    0  0.21092790399E+03  0.50771348674E+03  0.54102907862E+03  0.10142910014E+04  0.65864270000E+03 0.  0.
    8880022    1    1    2    0    0 -0.21092790399E+03 -0.50771348674E+03  0.11099628766E+04  0.12480676287E+04  0.15294330000E+03 0.  0.
<mgrwt>
<rscale>  0 0.77480115E+03</rscale>
<asrwt>0</asrwt>
<pdfrwt beam="1">  1        1 0.30102697E+00 0.85794742E+03</pdfrwt>
<pdfrwt beam="2">  1       -1 0.47028205E-01 0.85794742E+03</pdfrwt>
<totfact> 0.14766957E+01</totfact>
</mgrwt>
</event>
<event>
 4    2  0.4681349E-007  0.6920877E+03  0.7818608E-02  0.1003176E+00
         -1   -1    0    0    0  501 -0.00000000000E+00  0.00000000000E+00  0.54154058086E+03  0.54154058088E+03  0.50400000000E-02 0.  1.
          1   -1    0    0  501    0  0.00000000000E+00 -0.00000000000E+00 -0.49423254503E+03  0.49423254505E+03  0.50400000000E-02 0. -1.
    8880023    1    1    2    0    0 -0.45540132337E+02  0.20760859440E+03  0.21513511333E+03  0.72475413443E+03  0.65864270000E+03 0.  1.
    8880022    1    1    2    0    0  0.45540132337E+02 -0.20760859440E+03 -0.16782707750E+03  0.31101899151E+03  0.15294330000E+03 0.  0.
<mgrwt>
<rscale>  0 0.54279416E+03</rscale>
<asrwt>0</asrwt>
<pdfrwt beam="1">  1        1 0.76035777E-01 0.69208774E+03</pdfrwt>
<pdfrwt beam="2">  1       -1 0.83313935E-01 0.69208774E+03</pdfrwt>
<totfact> 0.65987045E+01</totfact>
</mgrwt>
</event>
<event>
 4    2  0.4681349E-007  0.7022497E+03  0.7818608E-02  0.9987994E-01
          1   -1    0    0  501    0  0.00000000000E+00  0.00000000000E+00  0.19988634277E+04  0.19988634277E+04  0.50400000000E-02 0. -1.
         -1   -1    0    0    0  501 -0.00000000000E+00 -0.00000000000E+00 -0.37221980880E+03  0.37221980883E+03  0.50400000000E-02 0.  1.
    8880023    1    1    2    0    0  0.23560404310E+03  0.61928520742E+02 -0.17005461255E+02  0.70245554933E+03  0.65864270000E+03 0.  0.
    8880022    1    1    2    0    0 -0.23560404310E+03 -0.61928520742E+02  0.16436490801E+04  0.16686276872E+04  0.15294330000E+03 0. -1.
<mgrwt>
<rscale>  0 0.56179842E+03</rscale>
<asrwt>0</asrwt>
<pdfrwt beam="1">  1        1 0.30751745E+00 0.70224968E+03</pdfrwt>
<pdfrwt beam="2">  1       -1 0.57264586E-01 0.70224968E+03</pdfrwt>
<totfact> 0.97192040E+00</totfact>
</mgrwt>
</event>
<event>
 4    2  0.4681349E-007  0.8118167E+03  0.7818608E-02  0.9685805E-01
         -1   -1    0    0    0  501 -0.00000000000E+00  0.00000000000E+00  0.84738183957E+03  0.84738183959E+03  0.50400000000E-02 0.  1.
          1   -1    0    0  501    0  0.00000000000E+00 -0.00000000000E+00 -0.18605684481E+04  0.18605684481E+04  0.50400000000E-02 0. -1.
    8880023    1    1    2    0    0  0.44871765594E+03 -0.15455957937E+03 -0.16855556635E+04  0.18708672587E+04  0.65864270000E+03 0. -1.
    8880022    1    1    2    0    0 -0.44871765594E+03  0.15455957937E+03  0.67236905503E+03  0.83708302904E+03  0.15294330000E+03 0.  0.
<mgrwt>
<rscale>  0 0.71868275E+03</rscale>
<asrwt>0</asrwt>
<pdfrwt beam="1">  1        1 0.28624130E+00 0.81181673E+03</pdfrwt>
<pdfrwt beam="2">  1       -1 0.13036644E+00 0.81181673E+03</pdfrwt>
<totfact> 0.19409863E+00</totfact>
</mgrwt>
</event>
<event>
 4    2  0.4681349E-007  0.1068367E+04  0.7818608E-02  0.9297121E-01
          1   -1    0    0  501    0  0.00000000000E+00  0.00000000000E+00  0.85588091207E+03  0.85588091208E+03  0.50400000000E-02 0. -1.
         -1   -1    0    0    0  501 -0.00000000000E+00 -0.00000000000E+00 -0.14385191723E+04  0.14385191723E+04  0.50400000000E-02 0.  1.
    8880023    1    1    2    0    0 -0.64290093275E+02  0.83872799700E+03 -0.88522564098E+03  0.13874554086E+04  0.65864270000E+03 0.  0.
    8880022    1    1    2    0    0  0.64290093275E+02 -0.83872799700E+03  0.30258738074E+03  0.90694467584E+03  0.15294330000E+03 0.  0.
<mgrwt>
<rscale>  0 0.10104835E+04</rscale>
<asrwt>0</asrwt>
<pdfrwt beam="1">  1        1 0.13167399E+00 0.10683670E+04</pdfrwt>
<pdfrwt beam="2">  1       -1 0.22131064E+00 0.10683670E+04</pdfrwt>
<totfact> 0.21289578E+00</totfact>
</mgrwt>
</event>
<event>
 4    2  0.4681349E-007  0.6610921E+03  0.7818608E-02  0.1023064E+00
         -1   -1    0    0    0  501 -0.00000000000E+00  0.00000000000E+00  0.24536996311E+03  0.24536996316E+03  0.50400000000E-02 0.  1.
          1   -1    0    0  501    0  0.00000000000E+00 -0.00000000000E+00 -0.24389034025E+04  0.24389034025E+04  0.50400000000E-02 0. -1.
    8880023    1    1    2    0    0  0.31180211745E+02 -0.47543131146E+02 -0.20943049443E+03  0.69347234493E+03  0.65864270000E+03 0.  1.
    8880022    1    1    2    0    0 -0.31180211745E+02  0.47543131146E+02 -0.19841029450E+04  0.19908010208E+04  0.15294330000E+03 0.  0.
<mgrwt>
<rscale>  0 0.46596797E+03</rscale>
<asrwt>0</asrwt>
<pdfrwt beam="1">  1        1 0.37521589E+00 0.66109210E+03</pdfrwt>
<pdfrwt beam="2">  1       -1 0.37749227E-01 0.66109210E+03</pdfrwt>
<totfact> 0.10800644E+01</totfact>
</mgrwt>
</event>
<event>
 4    2  0.4775642E-007  0.7794909E+03  0.7818608E-02  0.9757034E-01
          1   -1    0    0  501    0  0.00000000000E+00  0.00000000000E+00  0.12658572334E+04  0.12658572334E+04  0.50400000000E-02 0. -1.
         -1   -1    0    0    0  501 -0.00000000000E+00 -0.00000000000E+00 -0.11489075784E+04  0.11489075784E+04  0.50400000000E-02 0.  1.
    8880023    1    1    2    0    0 -0.11716465159E+03  0.40008529964E+03 -0.96778089189E+03  0.12426607999E+04  0.65864270000E+03 0.  1.
    8880022    1    1    2    0    0  0.11716465159E+03 -0.40008529964E+03  0.10847305469E+04  0.11721040120E+04  0.15294330000E+03 0.  0.
<mgrwt>
<rscale>  0 0.67720192E+03</rscale>
<asrwt>0</asrwt>
<pdfrwt beam="1">  1        1 0.19474727E+00 0.77949087E+03</pdfrwt>
<pdfrwt beam="2">  1       -1 0.17675501E+00 0.77949087E+03</pdfrwt>
<totfact> 0.21841128E+00</totfact>
</mgrwt>
</event>
<event>
 4    2  0.4681349E-007  0.6791919E+03  0.7818608E-02  0.1009784E+00
          1   -1    0    0  501    0  0.00000000000E+00  0.00000000000E+00  0.25650755484E+03  0.25650755489E+03  0.50400000000E-02 0. -1.
         -1   -1    0    0    0  501 -0.00000000000E+00 -0.00000000000E+00 -0.15553711002E+04  0.15553711002E+04  0.50400000000E-02 0.  1.
    8880023    1    1    2    0    0 -0.15914423167E+03  0.46524788306E+02 -0.14065280389E+04  0.15619291831E+04  0.65864270000E+03 0.  1.
    8880022    1    1    2    0    0  0.15914423167E+03 -0.46524788306E+02  0.10766449353E+03  0.24994947206E+03  0.15294330000E+03 0.  0.
<mgrwt>
<rscale>  0 0.51560375E+03</rscale>
<asrwt>0</asrwt>
<pdfrwt beam="1">  1        1 0.39462702E-01 0.67919191E+03</pdfrwt>
<pdfrwt beam="2">  1       -1 0.23928785E+00 0.67919191E+03</pdfrwt>
<totfact> 0.91995180E+00</totfact>
</mgrwt>
</event>
<event>
 4    2  0.4681349E-007  0.7368715E+03  0.7818608E-02  0.9869156E-01
         -1   -1    0    0    0  501 -0.00000000000E+00  0.00000000000E+00  0.11293863572E+04  0.11293863572E+04  0.50400000000E-02 0.  1.
          1   -1    0    0  501    0  0.00000000000E+00 -0.00000000000E+00 -0.88646633366E+03  0.88646633367E+03  0.50400000000E-02 0. -1.
    8880023    1    1    2    0    0 -0.39545011595E+02  0.32803296445E+03  0.96085312133E+03  0.12108750393E+04  0.65864270000E+03 0.  1.
    8880022    1    1    2    0    0  0.39545011595E+02 -0.32803296445E+03 -0.71793309778E+03  0.80497765162E+03  0.15294330000E+03 0.  0.
<mgrwt>
<rscale>  0 0.61779706E+03</rscale>
<asrwt>0</asrwt>
<pdfrwt beam="1">  1        1 0.13637944E+00 0.73687152E+03</pdfrwt>
<pdfrwt beam="2">  1       -1 0.17375175E+00 0.73687152E+03</pdfrwt>
<totfact> 0.44806440E+00</totfact>
</mgrwt>
</event>
<event>
 4    2  0.4681349E-007  0.7905017E+03  0.7818608E-02  0.9731722E-01
          1   -1    0    0  501    0  0.00000000000E+00  0.00000000000E+00  0.35830906887E+03  0.35830906891E+03  0.50400000000E-02 0. -1.
         -1   -1    0    0    0  501 -0.00000000000E+00 -0.00000000000E+00 -0.11969984134E+04  0.11969984134E+04  0.50400000000E-02 0.  1.
    8880023    1    1    2    0    0 -0.20689112090E+03 -0.38506995044E+03 -0.73783568092E+03  0.10813392164E+04  0.65864270000E+03 0.  1.
    8880022    1    1    2    0    0  0.20689112090E+03  0.38506995044E+03 -0.10085366364E+03  0.47396826594E+03  0.15294330000E+03 0. -1.
<mgrwt>
<rscale>  0 0.69159058E+03</rscale>
<asrwt>0</asrwt>
<pdfrwt beam="1">  1        1 0.55124473E-01 0.79050175E+03</pdfrwt>
<pdfrwt beam="2">  1       -1 0.18415360E+00 0.79050175E+03</pdfrwt>
<totfact> 0.13819323E+01</totfact>
</mgrwt>
</event>
<event>
 4    2  0.1122677E-006  0.1031842E+04  0.7818608E-02  0.9341035E-01
          1   -1    0    0  501    0  0.00000000000E+00  0.00000000000E+00  0.30272296437E+04  0.30272296437E+04  0.50400000000E-02 0. -1.
         -1   -1    0    0    0  501 -0.00000000000E+00 -0.00000000000E+00 -0.17665066873E+04  0.17665066873E+04  0.50400000000E-02 0.  1.
    8880023    1    1    2    0    0  0.77328820259E+03 -0.18141928365E+03 -0.15538450139E+04  0.18652431837E+04  0.65864270000E+03 0.  1.
    8880022    1    1    2    0    0 -0.77328820259E+03  0.18141928365E+03  0.28145679703E+04  0.29284931472E+04  0.15294330000E+03 0.  0.
<mgrwt>
<rscale>  0 0.97091292E+03</rscale>
<asrwt>0</asrwt>
<pdfrwt beam="1">  1        1 0.46572764E+00 0.10318419E+04</pdfrwt>
<pdfrwt beam="2">  1       -1 0.27177026E+00 0.10318419E+04</pdfrwt>
<totfact> 0.29567346E-02</totfact>
</mgrwt>
</event>
<event>
 4    2  0.4681349E-007  0.1187035E+04  0.7818608E-02  0.9169829E-01
         -1   -1    0    0    0  501 -0.00000000000E+00  0.00000000000E+00  0.58601141204E+03  0.58601141207E+03  0.50400000000E-02 0.  1.
          1   -1    0    0  501    0  0.00000000000E+00 -0.00000000000E+00 -0.23073801568E+04  0.23073801568E+04  0.50400000000E-02 0. -1.
    8880023    1    1    2    0    0  0.97359022809E+03 -0.16542370133E+03 -0.43445793933E+03  0.12640438444E+04  0.65864270000E+03 0.  0.
    8880022    1    1    2    0    0 -0.97359022809E+03  0.16542370133E+03 -0.12869108054E+04  0.16293477245E+04  0.15294330000E+03 0.  0.
<mgrwt>
<rscale>  0 0.11370344E+04</rscale>
<asrwt>0</asrwt>
<pdfrwt beam="1">  1        1 0.35498156E+00 0.11870354E+04</pdfrwt>
<pdfrwt beam="2">  1       -1 0.90155604E-01 0.11870354E+04</pdfrwt>
<totfact> 0.21933776E+00</totfact>
</mgrwt>
</event>
<event>
 4    2  0.4681349E-007  0.7002344E+03  0.7818608E-02  0.9996230E-01
          1   -1    0    0  501    0  0.00000000000E+00  0.00000000000E+00  0.23620649432E+03  0.23620649437E+03  0.50400000000E-02 0. -1.
         -1   -1    0    0    0  501 -0.00000000000E+00 -0.00000000000E+00 -0.14758179981E+04  0.14758179981E+04  0.50400000000E-02 0.  1.
    8880023    1    1    2    0    0  0.23654973460E+03  0.23711615718E+02 -0.12459869295E+04  0.14292696220E+04  0.65864270000E+03 0.  0.
    8880022    1    1    2    0    0 -0.23654973460E+03 -0.23711615718E+02  0.63754257943E+01  0.28275487039E+03  0.15294330000E+03 0.  0.
<mgrwt>
<rscale>  0 0.55815845E+03</rscale>
<asrwt>0</asrwt>
<pdfrwt beam="1">  1        1 0.36339462E-01 0.70023441E+03</pdfrwt>
<pdfrwt beam="2">  1       -1 0.22704892E+00 0.70023441E+03</pdfrwt>
<totfact> 0.12267162E+01</totfact>
</mgrwt>
</event>
<event>
 4    2  0.4681349E-007  0.8504232E+03  0.7818608E-02  0.9610831E-01
          1   -1    0    0  501    0  0.00000000000E+00  0.00000000000E+00  0.58773670855E+03  0.58773670857E+03  0.50400000000E-02 0. -1.
         -1   -1    0    0    0  501 -0.00000000000E+00 -0.00000000000E+00 -0.15741988390E+04  0.15741988390E+04  0.50400000000E-02 0.  1.
    8880023    1    1    2    0    0 -0.36547695789E+03  0.39476074533E+03 -0.12750095162E+04  0.15326020114E+04  0.65864270000E+03 0.  1.
    8880022    1    1    2    0    0  0.36547695789E+03 -0.39476074533E+03  0.28854738579E+03  0.62933353610E+03  0.15294330000E+03 0.  0.
<mgrwt>
<rscale>  0 0.76583440E+03</rscale>
<asrwt>0</asrwt>
<pdfrwt beam="1">  1        1 0.90421033E-01 0.85042322E+03</pdfrwt>
<pdfrwt beam="2">  1       -1 0.24218443E+00 0.85042322E+03</pdfrwt>
<totfact> 0.28427842E+00</totfact>
</mgrwt>
</event>
<event>
 4    2  0.4681349E-007  0.7896479E+03  0.7818608E-02  0.9733643E-01
          1   -1    0    0  501    0  0.00000000000E+00  0.00000000000E+00  0.13271002102E+04  0.13271002102E+04  0.50400000000E-02 0. -1.
         -1   -1    0    0    0  501 -0.00000000000E+00 -0.00000000000E+00 -0.41263446874E+03  0.41263446877E+03  0.50400000000E-02 0.  1.
    8880023    1    1    2    0    0 -0.17184072079E+03  0.40025529219E+03  0.89924836005E+02  0.79475166854E+03  0.65864270000E+03 0.  1.
    8880022    1    1    2    0    0  0.17184072079E+03 -0.40025529219E+03  0.82454090545E+03  0.94498301044E+03  0.15294330000E+03 0.  0.
<mgrwt>
<rscale>  0 0.69048531E+03</rscale>
<asrwt>0</asrwt>
<pdfrwt beam="1">  1        1 0.20416927E+00 0.78964786E+03</pdfrwt>
<pdfrwt beam="2">  1       -1 0.63482224E-01 0.78964786E+03</pdfrwt>
<totfact> 0.22358729E+01</totfact>
</mgrwt>
</event>
<event>
 4    2  0.4681349E-007  0.7704370E+03  0.7818608E-02  0.9778800E-01
          1   -1    0    0  501    0  0.00000000000E+00  0.00000000000E+00  0.21423024604E+04  0.21423024604E+04  0.50400000000E-02 0. -1.
         -1   -1    0    0    0  501 -0.00000000000E+00 -0.00000000000E+00 -0.27135520357E+03  0.27135520362E+03  0.50400000000E-02 0.  1.
    8880023    1    1    2    0    0  0.39834230445E+03  0.32960925905E+02  0.37339193855E+03  0.85615113163E+03  0.65864270000E+03 0.  0.
    8880022    1    1    2    0    0 -0.39834230445E+03 -0.32960925905E+02  0.14975553182E+04  0.15575065324E+04  0.15294330000E+03 0.  0.
<mgrwt>
<rscale>  0 0.66512782E+03</rscale>
<asrwt>0</asrwt>
<pdfrwt beam="1">  1        1 0.32958500E+00 0.77043703E+03</pdfrwt>
<pdfrwt beam="2">  1       -1 0.41746953E-01 0.77043703E+03</pdfrwt>
<totfact> 0.13997331E+01</totfact>
</mgrwt>
</event>
<event>
 4    2  0.4681349E-007  0.1114071E+04  0.7818608E-02  0.9245549E-01
         -1   -1    0    0    0  501 -0.00000000000E+00  0.00000000000E+00  0.80596766984E+03  0.80596766986E+03  0.50400000000E-02 0.  1.
          1   -1    0    0  501    0  0.00000000000E+00 -0.00000000000E+00 -0.14418949424E+04  0.14418949424E+04  0.50400000000E-02 0. -1.
    8880023    1    1    2    0    0  0.86709285686E+03 -0.23557095499E+03  0.37369087461E+02  0.11146974263E+04  0.65864270000E+03 0.  0.
    8880022    1    1    2    0    0 -0.86709285686E+03  0.23557095499E+03 -0.67329636001E+03  0.11331651860E+04  0.15294330000E+03 0.  0.
<mgrwt>
<rscale>  0 0.10595402E+04</rscale>
<asrwt>0</asrwt>
<pdfrwt beam="1">  1        1 0.22182999E+00 0.11140709E+04</pdfrwt>
<pdfrwt beam="2">  1       -1 0.12399503E+00 0.11140709E+04</pdfrwt>
<totfact> 0.40653184E+00</totfact>
</mgrwt>
</event>
<event>
 4    2  0.4681349E-007  0.8633483E+03  0.7818608E-02  0.9587635E-01
          1   -1    0    0  501    0  0.00000000000E+00  0.00000000000E+00  0.29059830466E+04  0.29059830466E+04  0.50400000000E-02 0. -1.
         -1   -1    0    0    0  501 -0.00000000000E+00 -0.00000000000E+00 -0.22431611320E+03  0.22431611326E+03  0.50400000000E-02 0.  1.
    8880023    1    1    2    0    0  0.30380995826E+01 -0.55816733315E+03  0.85873627803E+03  0.12177020175E+04  0.65864270000E+03 0.  1.
    8880022    1    1    2    0    0 -0.30380995826E+01  0.55816733315E+03  0.18229306554E+04  0.19125971424E+04  0.15294330000E+03 0.  0.
<mgrwt>
<rscale>  0 0.78120008E+03</rscale>
<asrwt>0</asrwt>
<pdfrwt beam="1">  1        1 0.44707429E+00 0.86334825E+03</pdfrwt>
<pdfrwt beam="2">  1       -1 0.34510173E-01 0.86334825E+03</pdfrwt>
<totfact> 0.58149972E+00</totfact>
</mgrwt>
</event>
<event>
 4    2  0.4681349E-007  0.8027603E+03  0.7818608E-02  0.9704859E-01
          1   -1    0    0  501    0  0.00000000000E+00  0.00000000000E+00  0.12686644052E+04  0.12686644053E+04  0.50400000000E-02 0. -1.
         -1   -1    0    0    0  501 -0.00000000000E+00 -0.00000000000E+00 -0.72797592850E+03  0.72797592852E+03  0.50400000000E-02 0.  1.
    8880023    1    1    2    0    0  0.38198463600E+03  0.25436524412E+03 -0.43103908878E+03  0.91116345508E+03  0.65864270000E+03 0.  1.
    8880022    1    1    2    0    0 -0.38198463600E+03 -0.25436524412E+03  0.97172756552E+03  0.10854768787E+04  0.15294330000E+03 0.  0.
<mgrwt>
<rscale>  0 0.70728216E+03</rscale>
<asrwt>0</asrwt>
<pdfrwt beam="1">  1        1 0.19517914E+00 0.80276033E+03</pdfrwt>
<pdfrwt beam="2">  1       -1 0.11199630E+00 0.80276033E+03</pdfrwt>
<totfact> 0.71690781E+00</totfact>
</mgrwt>
</event>
<event>
 4    2  0.4681349E-007  0.6790810E+03  0.7818608E-02  0.1009848E+00
          1   -1    0    0  501    0  0.00000000000E+00  0.00000000000E+00  0.14657865885E+04  0.14657865885E+04  0.50400000000E-02 0. -1.
         -1   -1    0    0    0  501 -0.00000000000E+00 -0.00000000000E+00 -0.34887817712E+03  0.34887817715E+03  0.50400000000E-02 0.  1.
    8880023    1    1    2    0    0  0.34422214855E+02  0.16172806408E+03  0.38978643042E+01  0.67909222878E+03  0.65864270000E+03 0.  1.
    8880022    1    1    2    0    0 -0.34422214855E+02 -0.16172806408E+03  0.11130105471E+04  0.11355725369E+04  0.15294330000E+03 0.  0.
<mgrwt>
<rscale>  0 0.51534966E+03</rscale>
<asrwt>0</asrwt>
<pdfrwt beam="1">  1        1 0.22550562E+00 0.67908104E+03</pdfrwt>
<pdfrwt beam="2">  1       -1 0.53673567E-01 0.67908104E+03</pdfrwt>
<totfact> 0.25234721E+01</totfact>
</mgrwt>
</event>
<event>
 4    2  0.4681349E-007  0.6743215E+03  0.7818608E-02  0.1012737E+00
          1   -1    0    0  501    0  0.00000000000E+00  0.00000000000E+00  0.11750400182E+04  0.11750400182E+04  0.50400000000E-02 0. -1.
         -1   -1    0    0    0  501 -0.00000000000E+00 -0.00000000000E+00 -0.21830764341E+03  0.21830764347E+03  0.50400000000E-02 0.  1.
    8880023    1    1    2    0    0 -0.85428974648E+02  0.11662426398E+03  0.36815399999E+03  0.76827527790E+03  0.65864270000E+03 0.  1.
    8880022    1    1    2    0    0  0.85428974648E+02 -0.11662426398E+03  0.58857837480E+03  0.62507238377E+03  0.15294330000E+03 0.  0.
<mgrwt>
<rscale>  0 0.50401062E+03</rscale>
<asrwt>0</asrwt>
<pdfrwt beam="1">  1        1 0.18077539E+00 0.67432154E+03</pdfrwt>
<pdfrwt beam="2">  1       -1 0.33585791E-01 0.67432154E+03</pdfrwt>
<totfact> 0.95673802E+01</totfact>
</mgrwt>
</event>
<event>
 4    2  0.4681349E-007  0.6718312E+03  0.7818608E-02  0.1014383E+00
          1   -1    0    0  501    0  0.00000000000E+00  0.00000000000E+00  0.10584037152E+04  0.10584037152E+04  0.50400000000E-02 0. -1.
         -1   -1    0    0    0  501 -0.00000000000E+00 -0.00000000000E+00 -0.33014419510E+03  0.33014419513E+03  0.50400000000E-02 0.  1.
    8880023    1    1    2    0    0  0.76629112330E+02  0.10805040149E+03  0.42067102936E+02  0.67314690635E+03  0.65864270000E+03 0.  1.
    8880022    1    1    2    0    0 -0.76629112330E+02 -0.10805040149E+03  0.68619241719E+03  0.71540100401E+03  0.15294330000E+03 0.  0.
<mgrwt>
<rscale>  0 0.49769317E+03</rscale>
<asrwt>0</asrwt>
<pdfrwt beam="1">  1        1 0.16283134E+00 0.67183117E+03</pdfrwt>
<pdfrwt beam="2">  1       -1 0.50791414E-01 0.67183117E+03</pdfrwt>
<totfact> 0.54823863E+01</totfact>
</mgrwt>
</event>
<event>
 4    2  0.4681349E-007  0.8697372E+03  0.7818608E-02  0.9576472E-01
         -1   -1    0    0    0  501 -0.00000000000E+00  0.00000000000E+00  0.41376315382E+03  0.41376315385E+03  0.50400000000E-02 0.  1.
          1   -1    0    0  501    0  0.00000000000E+00 -0.00000000000E+00 -0.27812515628E+04  0.27812515628E+04  0.50400000000E-02 0. -1.
    8880023    1    1    2    0    0  0.17993588799E+03 -0.53875375512E+03 -0.12744771349E+03  0.87902540258E+03  0.65864270000E+03 0.  1.
    8880022    1    1    2    0    0 -0.17993588799E+03  0.53875375512E+03 -0.22400406955E+04  0.23159893141E+04  0.15294330000E+03 0.  0.
<mgrwt>
<rscale>  0 0.78873176E+03</rscale>
<asrwt>0</asrwt>
<pdfrwt beam="1">  1        1 0.42788484E+00 0.86973717E+03</pdfrwt>
<pdfrwt beam="2">  1       -1 0.63655871E-01 0.86973717E+03</pdfrwt>
<totfact> 0.22486505E+00</totfact>
</mgrwt>
</event>
<event>
 4    2  0.5601499E-007  0.7135184E+03  0.7818608E-02  0.9945160E-01
          1   -1    0    0  501    0  0.00000000000E+00  0.00000000000E+00  0.17131677033E+04  0.17131677033E+04  0.50400000000E-02 0. -1.
         -1   -1    0    0    0  501 -0.00000000000E+00 -0.00000000000E+00 -0.26273405859E+04  0.26273405859E+04  0.50400000000E-02 0.  1.
    8880023    1    1    2    0    0 -0.21417479487E+03  0.17154447989E+03 -0.25637991676E+04  0.26612355644E+04  0.65864270000E+03 0.  1.
    8880022    1    1    2    0    0  0.21417479487E+03 -0.17154447989E+03  0.16496262849E+04  0.16792727248E+04  0.15294330000E+03 0.  0.
<mgrwt>
<rscale>  0 0.58121665E+03</rscale>
<asrwt>0</asrwt>
<pdfrwt beam="1">  1        1 0.26356426E+00 0.71351844E+03</pdfrwt>
<pdfrwt beam="2">  1       -1 0.40420625E+00 0.71351844E+03</pdfrwt>
<totfact> 0.34719092E-02</totfact>
</mgrwt>
</event>
<event>
 4    2  0.4681349E-007  0.7489134E+03  0.7818608E-02  0.9834704E-01
         -1   -1    0    0    0  501 -0.00000000000E+00  0.00000000000E+00  0.30910659686E+03  0.30910659690E+03  0.50400000000E-02 0.  1.
          1   -1    0    0  501    0  0.00000000000E+00 -0.00000000000E+00 -0.24800343970E+04  0.24800343971E+04  0.50400000000E-02 0. -1.
    8880023    1    1    2    0    0  0.34987292177E+03 -0.68191527009E+02 -0.19278597283E+03  0.77332902656E+03  0.65864270000E+03 0.  0.
    8880022    1    1    2    0    0 -0.34987292177E+03  0.68191527009E+02 -0.19781418274E+04  0.20158119674E+04  0.15294330000E+03 0.  0.
<mgrwt>
<rscale>  0 0.63532911E+03</rscale>
<asrwt>0</asrwt>
<pdfrwt beam="1">  1        1 0.38154374E+00 0.74891345E+03</pdfrwt>
<pdfrwt beam="2">  1       -1 0.47554863E-01 0.74891345E+03</pdfrwt>
<totfact> 0.65246234E+00</totfact>
</mgrwt>
</event>
<event>
 4    2  0.4681349E-007  0.7386061E+03  0.7818608E-02  0.9864026E-01
         -1   -1    0    0    0  501 -0.00000000000E+00  0.00000000000E+00  0.17657270635E+04  0.17657270636E+04  0.50400000000E-02 0.  1.
          1   -1    0    0  501    0  0.00000000000E+00 -0.00000000000E+00 -0.70227060495E+03  0.70227060497E+03  0.50400000000E-02 0. -1.
    8880023    1    1    2    0    0 -0.29531017335E+03 -0.15659081220E+03  0.16317802619E+04  0.17911576732E+04  0.65864270000E+03 0.  1.
    8880022    1    1    2    0    0  0.29531017335E+03  0.15659081220E+03 -0.56832380325E+03  0.67683999535E+03  0.15294330000E+03 0.  0.
<mgrwt>
<rscale>  0 0.62036859E+03</rscale>
<asrwt>0</asrwt>
<pdfrwt beam="1">  1        1 0.10804163E+00 0.73860611E+03</pdfrwt>
<pdfrwt beam="2">  1       -1 0.27165031E+00 0.73860611E+03</pdfrwt>
<totfact> 0.14388530E+00</totfact>
</mgrwt>
</event>
<event>
 4    2  0.4681349E-007  0.6712897E+03  0.7818608E-02  0.1014755E+00
          1   -1    0    0  501    0  0.00000000000E+00  0.00000000000E+00  0.24188851142E+03  0.24188851147E+03  0.50400000000E-02 0. -1.
         -1   -1    0    0    0  501 -0.00000000000E+00 -0.00000000000E+00 -0.11896806813E+04  0.11896806813E+04  0.50400000000E-02 0.  1.
    8880023    1    1    2    0    0 -0.86037542422E+02 -0.97042019896E+02 -0.10177418407E+04  0.12191916473E+04  0.65864270000E+03 0.  1.
    8880022    1    1    2    0    0  0.86037542422E+02  0.97042019896E+02  0.69949670852E+02  0.21237754542E+03  0.15294330000E+03 0.  0.
<mgrwt>
<rscale>  0 0.49627905E+03</rscale>
<asrwt>0</asrwt>
<pdfrwt beam="1">  1        1 0.37213618E-01 0.67128967E+03</pdfrwt>
<pdfrwt beam="2">  1       -1 0.18302779E+00 0.67128967E+03</pdfrwt>
<totfact> 0.23740785E+01</totfact>
</mgrwt>
</event>
<event>
 4    2  0.4681349E-007  0.6823857E+03  0.7818608E-02  0.1008005E+00
          1   -1    0    0  501    0  0.00000000000E+00  0.00000000000E+00  0.43706036758E+03  0.43706036761E+03  0.50400000000E-02 0. -1.
         -1   -1    0    0    0  501 -0.00000000000E+00 -0.00000000000E+00 -0.51510530484E+03  0.51510530487E+03  0.50400000000E-02 0.  1.
    8880023    1    1    2    0    0 -0.16124256382E+03  0.76425508850E+02 -0.16418958752E+03  0.70186070534E+03  0.65864270000E+03 0.  1.
    8880022    1    1    2    0    0  0.16124256382E+03 -0.76425508850E+02  0.86144650258E+02  0.25030496714E+03  0.15294330000E+03 0.  0.
<mgrwt>
<rscale>  0 0.52275231E+03</rscale>
<asrwt>0</asrwt>
<pdfrwt beam="1">  1        1 0.67240057E-01 0.68238569E+03</pdfrwt>
<pdfrwt beam="2">  1       -1 0.79246969E-01 0.68238569E+03</pdfrwt>
<totfact> 0.86754411E+01</totfact>
</mgrwt>
</event>
<event>
 4    2  0.4681349E-007  0.9159313E+03  0.7818608E-02  0.9500926E-01
         -1   -1    0    0    0  501 -0.00000000000E+00  0.00000000000E+00  0.89503153750E+03  0.89503153751E+03  0.50400000000E-02 0.  1.
          1   -1    0    0  501    0  0.00000000000E+00 -0.00000000000E+00 -0.93298727803E+03  0.93298727804E+03  0.50400000000E-02 0. -1.
    8880023    1    1    2    0    0 -0.33564380152E+03 -0.54079860100E+03 -0.48394535297E+03  0.10359214252E+04  0.65864270000E+03 0.  0.
    8880022    1    1    2    0    0  0.33564380152E+03  0.54079860100E+03  0.44598961244E+03  0.79209739032E+03  0.15294330000E+03 0.  0.
<mgrwt>
<rscale>  0 0.84215587E+03</rscale>
<asrwt>0</asrwt>
<pdfrwt beam="1">  1        1 0.14353650E+00 0.91593127E+03</pdfrwt>
<pdfrwt beam="2">  1       -1 0.13769716E+00 0.91593127E+03</pdfrwt>
<totfact> 0.75744919E+00</totfact>
</mgrwt>
</event>
<event>
 4    2  0.4681349E-007  0.6716307E+03  0.7818608E-02  0.1014520E+00
          1   -1    0    0  501    0  0.00000000000E+00  0.00000000000E+00  0.20873268354E+04  0.20873268355E+04  0.50400000000E-02 0. -1.
         -1   -1    0    0    0  501 -0.00000000000E+00 -0.00000000000E+00 -0.93231156385E+02  0.93231156521E+02  0.50400000000E-02 0.  1.
    8880023    1    1    2    0    0  0.12912293972E+03  0.24594862126E+02  0.13914128876E+04  0.15450299903E+04  0.65864270000E+03 0. -1.
    8880022    1    1    2    0    0 -0.12912293972E+03 -0.24594862126E+02  0.60268279145E+03  0.63552800169E+03  0.15294330000E+03 0.  1.
<mgrwt>
<rscale>  0 0.49717153E+03</rscale>
<asrwt>0</asrwt>
<pdfrwt beam="1">  1        1 0.32112715E+00 0.67163074E+03</pdfrwt>
<pdfrwt beam="2">  1       -1 0.14343257E-01 0.67163074E+03</pdfrwt>
<totfact> 0.95745859E+01</totfact>
</mgrwt>
</event>
<event>
 4    2  0.4681349E-007  0.1215048E+04  0.7818608E-02  0.9142632E-01
         -1   -1    0    0    0  501 -0.00000000000E+00  0.00000000000E+00  0.21922394064E+04  0.21922394064E+04  0.50400000000E-02 0.  1.
          1   -1    0    0  501    0  0.00000000000E+00 -0.00000000000E+00 -0.10340365277E+04  0.10340365277E+04  0.50400000000E-02 0. -1.
    8880023    1    1    2    0    0  0.55435534382E+03  0.85745029355E+03  0.16769300255E+04  0.20708537780E+04  0.65864270000E+03 0.  0.
    8880022    1    1    2    0    0 -0.55435534382E+03 -0.85745029355E+03 -0.51872714679E+03  0.11554221562E+04  0.15294330000E+03 0.  0.
<mgrwt>
<rscale>  0 0.11665698E+04</rscale>
<asrwt>0</asrwt>
<pdfrwt beam="1">  1        1 0.15908255E+00 0.12150478E+04</pdfrwt>
<pdfrwt beam="2">  1       -1 0.33726760E+00 0.12150478E+04</pdfrwt>
<totfact> 0.26470324E-01</totfact>
</mgrwt>
</event>
<event>
 4    2  0.4681349E-007  0.8877119E+03  0.7818608E-02  0.9546053E-01
         -1   -1    0    0    0  501 -0.00000000000E+00  0.00000000000E+00  0.19355522064E+04  0.19355522064E+04  0.50400000000E-02 0.  1.
          1   -1    0    0  501    0  0.00000000000E+00 -0.00000000000E+00 -0.56327296981E+03  0.56327296983E+03  0.50400000000E-02 0. -1.
    8880023    1    1    2    0    0  0.56680129726E+03 -0.18154479077E+03  0.16111556060E+04  0.18395257037E+04  0.65864270000E+03 0.  0.
    8880022    1    1    2    0    0 -0.56680129726E+03  0.18154479077E+03 -0.23887636939E+03  0.65929947254E+03  0.15294330000E+03 0.  0.
<mgrwt>
<rscale>  0 0.80972030E+03</rscale>
<asrwt>0</asrwt>
<pdfrwt beam="1">  1        1 0.86657379E-01 0.88771191E+03</pdfrwt>
<pdfrwt beam="2">  1       -1 0.29777727E+00 0.88771191E+03</pdfrwt>
<totfact> 0.13188782E+00</totfact>
</mgrwt>
</event>
<event>
 4    2  0.4681349E-007  0.1163734E+04  0.7818608E-02  0.9193208E-01
          1   -1    0    0  501    0  0.00000000000E+00  0.00000000000E+00  0.22178119098E+04  0.22178119098E+04  0.50400000000E-02 0. -1.
         -1   -1    0    0    0  501 -0.00000000000E+00 -0.00000000000E+00 -0.10000870670E+04  0.10000870670E+04  0.50400000000E-02 0.  1.
    8880023    1    1    2    0    0  0.31053584690E+03  0.90776273850E+03 -0.48240843336E+03  0.12597594232E+04  0.65864270000E+03 0.  0.
    8880022    1    1    2    0    0 -0.31053584690E+03 -0.90776273850E+03  0.17001332762E+04  0.19581395536E+04  0.15294330000E+03 0.  0.
<mgrwt>
<rscale>  0 0.11123808E+04</rscale>
<asrwt>0</asrwt>
<pdfrwt beam="1">  1        1 0.34120182E+00 0.11637336E+04</pdfrwt>
<pdfrwt beam="2">  1       -1 0.15385955E+00 0.11637336E+04</pdfrwt>
<totfact> 0.68236433E-01</totfact>
</mgrwt>
</event>
<event>
 4    2  0.4681349E-007  0.8201764E+03  0.7818608E-02  0.9668757E-01
         -1   -1    0    0    0  501 -0.00000000000E+00  0.00000000000E+00  0.20846352528E+04  0.20846352528E+04  0.50400000000E-02 0.  1.
          1   -1    0    0  501    0  0.00000000000E+00 -0.00000000000E+00 -0.36904680517E+03  0.36904680521E+03  0.50400000000E-02 0. -1.
    8880023    1    1    2    0    0 -0.37419364930E+03 -0.31441733304E+03  0.17578932214E+04  0.19398138907E+04  0.65864270000E+03 0.  0.
    8880022    1    1    2    0    0  0.37419364930E+03  0.31441733304E+03 -0.42304773751E+02  0.51386816732E+03  0.15294330000E+03 0.  0.
<mgrwt>
<rscale>  0 0.72907835E+03</rscale>
<asrwt>0</asrwt>
<pdfrwt beam="1">  1        1 0.56776430E-01 0.82017642E+03</pdfrwt>
<pdfrwt beam="2">  1       -1 0.32071312E+00 0.82017642E+03</pdfrwt>
<totfact> 0.16867459E+00</totfact>
</mgrwt>
</event>
<event>
 4    2  0.4681349E-007  0.1139052E+04  0.7818608E-02  0.9218773E-01
         -1   -1    0    0    0  501 -0.00000000000E+00  0.00000000000E+00  0.10379122036E+04  0.10379122036E+04  0.50400000000E-02 0.  1.
          1   -1    0    0  501    0  0.00000000000E+00 -0.00000000000E+00 -0.14898014519E+04  0.14898014520E+04  0.50400000000E-02 0. -1.
    8880023    1    1    2    0    0 -0.92672115968E+03  0.69406012472E+02 -0.93092047360E+03  0.14710718666E+04  0.65864270000E+03 0.  0.
    8880022    1    1    2    0    0  0.92672115968E+03 -0.69406012472E+02  0.47903122528E+03  0.10566417890E+04  0.15294330000E+03 0.  0.
<mgrwt>
<rscale>  0 0.10861740E+04</rscale>
<asrwt>0</asrwt>
<pdfrwt beam="1">  1        1 0.22920022E+00 0.11390520E+04</pdfrwt>
<pdfrwt beam="2">  1       -1 0.15967880E+00 0.11390520E+04</pdfrwt>
<totfact> 0.19300549E+00</totfact>
</mgrwt>
</event>
<event>
 4    2  0.4681349E-007  0.7602876E+03  0.7818608E-02  0.9804363E-01
         -1   -1    0    0    0  501 -0.00000000000E+00  0.00000000000E+00  0.44698853425E+03  0.44698853428E+03  0.50400000000E-02 0.  1.
          1   -1    0    0  501    0  0.00000000000E+00 -0.00000000000E+00 -0.93097220910E+03  0.93097220912E+03  0.50400000000E-02 0. -1.
    8880023    1    1    2    0    0  0.26189333320E+03  0.27502539066E+03 -0.21910641902E+02  0.76060329080E+03  0.65864270000E+03 0.  1.
    8880022    1    1    2    0    0 -0.26189333320E+03 -0.27502539066E+03 -0.46207303295E+03  0.61735745260E+03  0.15294330000E+03 0.  0.
<mgrwt>
<rscale>  0 0.65128903E+03</rscale>
<asrwt>0</asrwt>
<pdfrwt beam="1">  1        1 0.14322649E+00 0.76028764E+03</pdfrwt>
<pdfrwt beam="2">  1       -1 0.68767467E-01 0.76028764E+03</pdfrwt>
<totfact> 0.37628919E+01</totfact>
</mgrwt>
</event>
<event>
 4    2  0.4681349E-007  0.7657883E+03  0.7818608E-02  0.9790346E-01
          1   -1    0    0  501    0  0.00000000000E+00  0.00000000000E+00  0.21314995626E+04  0.21314995626E+04  0.50400000000E-02 0. -1.
         -1   -1    0    0    0  501 -0.00000000000E+00 -0.00000000000E+00 -0.30449425373E+03  0.30449425377E+03  0.50400000000E-02 0.  1.
    8880023    1    1    2    0    0  0.37907234880E+03 -0.94476157842E+02  0.25217896440E+03  0.80624191554E+03  0.65864270000E+03 0.  1.
    8880022    1    1    2    0    0 -0.37907234880E+03  0.94476157842E+02  0.15748263445E+04  0.16297519008E+04  0.15294330000E+03 0.  0.
<mgrwt>
<rscale>  0 0.65883207E+03</rscale>
<asrwt>0</asrwt>
<pdfrwt beam="1">  1        1 0.32792302E+00 0.76578835E+03</pdfrwt>
<pdfrwt beam="2">  1       -1 0.46845269E-01 0.76578835E+03</pdfrwt>
<totfact> 0.11505299E+01</totfact>
</mgrwt>
</event>
<event>
 4    2  0.4681349E-007  0.6959391E+03  0.7818608E-02  0.1001448E+00
         -1   -1    0    0    0  501 -0.00000000000E+00  0.00000000000E+00  0.12123877492E+04  0.12123877492E+04  0.50400000000E-02 0.  1.
          1   -1    0    0  501    0  0.00000000000E+00 -0.00000000000E+00 -0.87619434711E+03  0.87619434712E+03  0.50400000000E-02 0. -1.
    8880023    1    1    2    0    0 -0.14721902920E+03 -0.16984573766E+03  0.10866473206E+04  0.12904005668E+04  0.65864270000E+03 0.  1.
    8880022    1    1    2    0    0  0.14721902920E+03  0.16984573766E+03 -0.75045391855E+03  0.79818152950E+03  0.15294330000E+03 0.  0.
<mgrwt>
<rscale>  0 0.55019709E+03</rscale>
<asrwt>0</asrwt>
<pdfrwt beam="1">  1        1 0.13479913E+00 0.69593909E+03</pdfrwt>
<pdfrwt beam="2">  1       -1 0.18652119E+00 0.69593909E+03</pdfrwt>
<totfact> 0.37301974E+00</totfact>
</mgrwt>
</event>
<event>
 4    2  0.4681349E-007  0.1153572E+04  0.7818608E-02  0.9203630E-01
         -1   -1    0    0    0  501 -0.00000000000E+00  0.00000000000E+00  0.54329077857E+03  0.54329077859E+03  0.50400000000E-02 0.  1.
          1   -1    0    0  501    0  0.00000000000E+00 -0.00000000000E+00 -0.26151073825E+04  0.26151073825E+04  0.50400000000E-02 0. -1.
    8880023    1    1    2    0    0  0.87061852500E+03  0.37274977546E+03 -0.38185138946E+03  0.12151294997E+04  0.65864270000E+03 0.  1.
    8880022    1    1    2    0    0 -0.87061852500E+03 -0.37274977546E+03 -0.16899652145E+04  0.19432686614E+04  0.15294330000E+03 0.  0.
<mgrwt>
<rscale>  0 0.11016038E+04</rscale>
<asrwt>0</asrwt>
<pdfrwt beam="1">  1        1 0.40232421E+00 0.11535724E+04</pdfrwt>
<pdfrwt beam="2">  1       -1 0.83583198E-01 0.11535724E+04</pdfrwt>
<totfact> 0.15969961E+00</totfact>
</mgrwt>
</event>
<event>
 4    2  0.4681349E-007  0.9318605E+03  0.7818608E-02  0.9476708E-01
          1   -1    0    0  501    0  0.00000000000E+00  0.00000000000E+00  0.11015867375E+04  0.11015867376E+04  0.50400000000E-02 0. -1.
         -1   -1    0    0    0  501 -0.00000000000E+00 -0.00000000000E+00 -0.12623601441E+04  0.12623601441E+04  0.50400000000E-02 0.  1.
    8880023    1    1    2    0    0 -0.65166556441E+03 -0.99427092149E+02 -0.94563790278E+03  0.13276275848E+04  0.65864270000E+03 0.  0.
    8880022    1    1    2    0    0  0.65166556441E+03  0.99427092149E+02  0.78486449626E+03  0.10363192968E+04  0.15294330000E+03 0.  0.
<mgrwt>
<rscale>  0 0.86023060E+03</rscale>
<asrwt>0</asrwt>
<pdfrwt beam="1">  1        1 0.16947488E+00 0.93186048E+03</pdfrwt>
<pdfrwt beam="2">  1       -1 0.19420925E+00 0.93186048E+03</pdfrwt>
<totfact> 0.21162770E+00</totfact>
</mgrwt>
</event>
<event>
 4    2  0.4681349E-007  0.1061938E+04  0.7818608E-02  0.9304666E-01
         -1   -1    0    0    0  501 -0.00000000000E+00  0.00000000000E+00  0.74017409830E+03  0.74017409832E+03  0.50400000000E-02 0.  1.
          1   -1    0    0  501    0  0.00000000000E+00 -0.00000000000E+00 -0.17796019980E+04  0.17796019980E+04  0.50400000000E-02 0. -1.
    8880023    1    1    2    0    0  0.57671382883E+03 -0.60108572802E+03  0.13642374007E+03  0.10706654640E+04  0.65864270000E+03 0.  1.
    8880022    1    1    2    0    0 -0.57671382883E+03  0.60108572802E+03 -0.11758516397E+04  0.14491106322E+04  0.15294330000E+03 0.  0.
<mgrwt>
<rscale>  0 0.10035446E+04</rscale>
<asrwt>0</asrwt>
<pdfrwt beam="1">  1        1 0.27378492E+00 0.10619384E+04</pdfrwt>
<pdfrwt beam="2">  1       -1 0.11387294E+00 0.10619384E+04</pdfrwt>
<totfact> 0.29566918E+00</totfact>
</mgrwt>
</event>
<event>
 4    2  0.4681349E-007  0.6632082E+03  0.7818608E-02  0.1021086E+00
         -1   -1    0    0    0  501 -0.00000000000E+00  0.00000000000E+00  0.23213693495E+03  0.23213693501E+03  0.50400000000E-02 0.  1.
          1   -1    0    0  501    0  0.00000000000E+00 -0.00000000000E+00 -0.84180866369E+03  0.84180866370E+03  0.50400000000E-02 0. -1.
    8880023    1    1    2    0    0 -0.55158042195E+02  0.54704253209E+02 -0.31785456120E+03  0.73544319514E+03  0.65864270000E+03 0.  1.
    8880022    1    1    2    0    0  0.55158042195E+02 -0.54704253209E+02 -0.29181716754E+03  0.33850240357E+03  0.15294330000E+03 0. -1.
<mgrwt>
<rscale>  0 0.47296606E+03</rscale>
<asrwt>0</asrwt>
<pdfrwt beam="1">  1        1 0.12950902E+00 0.66320824E+03</pdfrwt>
<pdfrwt beam="2">  1       -1 0.35713375E-01 0.66320824E+03</pdfrwt>
<totfact> 0.15555266E+02</totfact>
</mgrwt>
</event>
<event>
 4    2  0.4681349E-007  0.8804200E+03  0.7818608E-02  0.9558224E-01
          1   -1    0    0  501    0  0.00000000000E+00  0.00000000000E+00  0.11753447045E+04  0.11753447045E+04  0.50400000000E-02 0. -1.
         -1   -1    0    0    0  501 -0.00000000000E+00 -0.00000000000E+00 -0.89743216399E+03  0.89743216401E+03  0.50400000000E-02 0.  1.
    8880023    1    1    2    0    0  0.57445224640E+03  0.10646051134E+03 -0.55738687626E+03  0.10420266599E+04  0.65864270000E+03 0.  1.
    8880022    1    1    2    0    0 -0.57445224640E+03 -0.10646051134E+03  0.83529941674E+03  0.10307502086E+04  0.15294330000E+03 0.  0.
<mgrwt>
<rscale>  0 0.80123980E+03</rscale>
<asrwt>0</asrwt>
<pdfrwt beam="1">  1        1 0.18082226E+00 0.88042003E+03</pdfrwt>
<pdfrwt beam="2">  1       -1 0.13806649E+00 0.88042003E+03</pdfrwt>
<totfact> 0.49312832E+00</totfact>
</mgrwt>
</event>
<event>
 4    2  0.4681349E-007  0.9753162E+03  0.7818608E-02  0.9414589E-01
          1   -1    0    0  501    0  0.00000000000E+00  0.00000000000E+00  0.72686244110E+03  0.72686244112E+03  0.50400000000E-02 0. -1.
         -1   -1    0    0    0  501 -0.00000000000E+00 -0.00000000000E+00 -0.18080763543E+04  0.18080763543E+04  0.50400000000E-02 0.  1.
    8880023    1    1    2    0    0  0.26352135478E+03  0.66931906862E+03 -0.14220608120E+04  0.17243835650E+04  0.65864270000E+03 0.  0.
    8880022    1    1    2    0    0 -0.26352135478E+03 -0.66931906862E+03  0.34084689882E+03  0.81055523038E+03  0.15294330000E+03 0.  0.
<mgrwt>
<rscale>  0 0.90884746E+03</rscale>
<asrwt>0</asrwt>
<pdfrwt beam="1">  1        1 0.11182499E+00 0.97531622E+03</pdfrwt>
<pdfrwt beam="2">  1       -1 0.27816559E+00 0.97531622E+03</pdfrwt>
<totfact> 0.11934866E+00</totfact>
</mgrwt>
</event>
<event>
 4    2  0.4681349E-007  0.1208893E+04  0.7818608E-02  0.9148526E-01
          1   -1    0    0  501    0  0.00000000000E+00  0.00000000000E+00  0.14957697167E+04  0.14957697167E+04  0.50400000000E-02 0. -1.
         -1   -1    0    0    0  501 -0.00000000000E+00 -0.00000000000E+00 -0.97114236092E+03  0.97114236094E+03  0.50400000000E-02 0.  1.
    8880023    1    1    2    0    0  0.96860342824E+03  0.29903133327E+03  0.74267086547E+03  0.14187961658E+04  0.65864270000E+03 0.  1.
    8880022    1    1    2    0    0 -0.96860342824E+03 -0.29903133327E+03 -0.21804350970E+03  0.10481159118E+04  0.15294330000E+03 0.  0.
<mgrwt>
<rscale>  0 0.11600894E+04</rscale>
<asrwt>0</asrwt>
<pdfrwt beam="1">  1        1 0.23011842E+00 0.12088931E+04</pdfrwt>
<pdfrwt beam="2">  1       -1 0.14940652E+00 0.12088931E+04</pdfrwt>
<totfact> 0.22763461E+00</totfact>
</mgrwt>
</event>
<event>
 4    2  0.4681349E-007  0.6717022E+03  0.7818608E-02  0.1014471E+00
          1   -1    0    0  501    0  0.00000000000E+00  0.00000000000E+00  0.30286305674E+04  0.30286305674E+04  0.50400000000E-02 0. -1.
         -1   -1    0    0    0  501 -0.00000000000E+00 -0.00000000000E+00 -0.50101805904E+03  0.50101805906E+03  0.50400000000E-02 0.  1.
    8880023    1    1    2    0    0  0.10784941753E+03 -0.75777206880E+02 -0.27060074797E+03  0.72416065414E+03  0.65864270000E+03 0.  1.
    8880022    1    1    2    0    0 -0.10784941753E+03  0.75777206880E+02  0.27982132563E+04  0.28054879723E+04  0.15294330000E+03 0.  0.
<mgrwt>
<rscale>  0 0.49735784E+03</rscale>
<asrwt>0</asrwt>
<pdfrwt beam="1">  1        1 0.46594316E+00 0.67170223E+03</pdfrwt>
<pdfrwt beam="2">  1       -1 0.77079702E-01 0.67170223E+03</pdfrwt>
<totfact> 0.10572015E+00</totfact>
</mgrwt>
</event>
<event>
 4    2  0.4681349E-007  0.9003364E+03  0.7818608E-02  0.9525492E-01
         -1   -1    0    0    0  501 -0.00000000000E+00  0.00000000000E+00  0.58473357272E+03  0.58473357275E+03  0.50400000000E-02 0.  1.
          1   -1    0    0  501    0  0.00000000000E+00 -0.00000000000E+00 -0.11629463384E+04  0.11629463384E+04  0.50400000000E-02 0. -1.
    8880023    1    1    2    0    0  0.57566144345E+03  0.21309447332E+03 -0.14650783967E+02  0.90045555347E+03  0.65864270000E+03 0.  0.
    8880022    1    1    2    0    0 -0.57566144345E+03 -0.21309447332E+03 -0.56356198175E+03  0.84722435773E+03  0.15294330000E+03 0.  0.
<mgrwt>
<rscale>  0 0.82430221E+03</rscale>
<asrwt>0</asrwt>
<pdfrwt beam="1">  1        1 0.17891482E+00 0.90033636E+03</pdfrwt>
<pdfrwt beam="2">  1       -1 0.89959011E-01 0.90033636E+03</pdfrwt>
<totfact> 0.13949005E+01</totfact>
</mgrwt>
</event>
<event>
 4    2  0.4681349E-007  0.7317880E+03  0.7818608E-02  0.9884548E-01
         -1   -1    0    0    0  501 -0.00000000000E+00  0.00000000000E+00  0.29323815749E+03  0.29323815754E+03  0.50400000000E-02 0.  1.
          1   -1    0    0  501    0  0.00000000000E+00 -0.00000000000E+00 -0.13754199396E+04  0.13754199396E+04  0.50400000000E-02 0. -1.
    8880023    1    1    2    0    0 -0.25746794129E+03 -0.18818545471E+03 -0.26512624192E+03  0.77833516982E+03  0.65864270000E+03 0.  1.
    8880022    1    1    2    0    0  0.25746794129E+03  0.18818545471E+03 -0.81705554018E+03  0.89032292732E+03  0.15294330000E+03 0.  0.
<mgrwt>
<rscale>  0 0.61016043E+03</rscale>
<asrwt>0</asrwt>
<pdfrwt beam="1">  1        1 0.21160306E+00 0.73178802E+03</pdfrwt>
<pdfrwt beam="2">  1       -1 0.45113563E-01 0.73178802E+03</pdfrwt>
<totfact> 0.40168552E+01</totfact>
</mgrwt>
</event>
<event>
 4    2  0.4681349E-007  0.9159110E+03  0.7818608E-02  0.9500957E-01
         -1   -1    0    0    0  501 -0.00000000000E+00  0.00000000000E+00  0.11654774817E+04  0.11654774817E+04  0.50400000000E-02 0.  1.
          1   -1    0    0  501    0  0.00000000000E+00 -0.00000000000E+00 -0.15036926938E+04  0.15036926938E+04  0.50400000000E-02 0. -1.
    8880023    1    1    2    0    0 -0.59979999764E+03 -0.21289139801E+03  0.89019627016E+03  0.12772401459E+04  0.65864270000E+03 0.  1.
    8880022    1    1    2    0    0  0.59979999764E+03  0.21289139801E+03 -0.12284114823E+04  0.13919300296E+04  0.15294330000E+03 0.  0.
<mgrwt>
<rscale>  0 0.84213279E+03</rscale>
<asrwt>0</asrwt>
<pdfrwt beam="1">  1        1 0.23133734E+00 0.91591102E+03</pdfrwt>
<pdfrwt beam="2">  1       -1 0.17930423E+00 0.91591102E+03</pdfrwt>
<totfact> 0.13955126E+00</totfact>
</mgrwt>
</event>
<event>
 4    2  0.4681349E-007  0.7046416E+03  0.7818608E-02  0.9978465E-01
          1   -1    0    0  501    0  0.00000000000E+00  0.00000000000E+00  0.96011071893E+03  0.96011071894E+03  0.50400000000E-02 0. -1.
         -1   -1    0    0    0  501 -0.00000000000E+00 -0.00000000000E+00 -0.48852900635E+03  0.48852900638E+03  0.50400000000E-02 0.  1.
    8880023    1    1    2    0    0  0.22184164363E+03 -0.11617181289E+03 -0.18581422689E+03  0.72872953703E+03  0.65864270000E+03 0.  1.
    8880022    1    1    2    0    0 -0.22184164363E+03  0.11617181289E+03  0.65739593947E+03  0.71991018829E+03  0.15294330000E+03 0.  0.
<mgrwt>
<rscale>  0 0.56604689E+03</rscale>
<asrwt>0</asrwt>
<pdfrwt beam="1">  1        1 0.14770934E+00 0.70464162E+03</pdfrwt>
<pdfrwt beam="2">  1       -1 0.75158309E-01 0.70464162E+03</pdfrwt>
<totfact> 0.29888160E+01</totfact>
</mgrwt>
</event>
<event>
 4    2  0.4681349E-007  0.7708743E+03  0.7818608E-02  0.9777727E-01
          1   -1    0    0  501    0  0.00000000000E+00  0.00000000000E+00  0.46327250036E+03  0.46327250039E+03  0.50400000000E-02 0. -1.
         -1   -1    0    0    0  501 -0.00000000000E+00 -0.00000000000E+00 -0.15764245936E+04  0.15764245936E+04  0.50400000000E-02 0.  1.
    8880023    1    1    2    0    0 -0.32636628500E+03  0.23221102211E+03 -0.13465054475E+04  0.15515553607E+04  0.65864270000E+03 0.  0.
    8880022    1    1    2    0    0  0.32636628500E+03 -0.23221102211E+03  0.23335335433E+03  0.48814173327E+03  0.15294330000E+03 0.  0.
<mgrwt>
<rscale>  0 0.66571644E+03</rscale>
<asrwt>0</asrwt>
<pdfrwt beam="1">  1        1 0.71272693E-01 0.77087426E+03</pdfrwt>
<pdfrwt beam="2">  1       -1 0.24252686E+00 0.77087426E+03</pdfrwt>
<totfact> 0.39841865E+00</totfact>
</mgrwt>
</event>
<event>
 4    2  0.4681349E-007  0.6785804E+03  0.7818608E-02  0.1010138E+00
         -1   -1    0    0    0  501 -0.00000000000E+00  0.00000000000E+00  0.37504241429E+03  0.37504241432E+03  0.50400000000E-02 0.  1.
          1   -1    0    0  501    0  0.00000000000E+00 -0.00000000000E+00 -0.14244430911E+04  0.14244430911E+04  0.50400000000E-02 0. -1.
    8880023    1    1    2    0    0 -0.14612897441E+02  0.16262733486E+03  0.47272129730E+02  0.68022499758E+03  0.65864270000E+03 0.  1.
    8880022    1    1    2    0    0  0.14612897441E+02 -0.16262733486E+03 -0.10966728065E+04  0.11192605078E+04  0.15294330000E+03 0.  0.
<mgrwt>
<rscale>  0 0.51419706E+03</rscale>
<asrwt>0</asrwt>
<pdfrwt beam="1">  1        1 0.21914509E+00 0.67858042E+03</pdfrwt>
<pdfrwt beam="2">  1       -1 0.57698834E-01 0.67858042E+03</pdfrwt>
<totfact> 0.23428894E+01</totfact>
</mgrwt>
</event>
<event>
 4    2  0.4681349E-007  0.1112394E+04  0.7818608E-02  0.9247381E-01
         -1   -1    0    0    0  501 -0.00000000000E+00  0.00000000000E+00  0.24169178518E+04  0.24169178518E+04  0.50400000000E-02 0.  1.
          1   -1    0    0  501    0  0.00000000000E+00 -0.00000000000E+00 -0.16099384964E+04  0.16099384964E+04  0.50400000000E-02 0. -1.
    8880023    1    1    2    0    0  0.27949936703E+03 -0.85175736264E+03  0.21407771002E+04  0.24125395955E+04  0.65864270000E+03 0.  1.
    8880022    1    1    2    0    0 -0.27949936703E+03  0.85175736264E+03 -0.13337977448E+04  0.16143167527E+04  0.15294330000E+03 0.  0.
<mgrwt>
<rscale>  0 0.10577483E+04</rscale>
<asrwt>0</asrwt>
<pdfrwt beam="1">  1        1 0.24768285E+00 0.11123941E+04</pdfrwt>
<pdfrwt beam="2">  1       -1 0.37183351E+00 0.11123941E+04</pdfrwt>
<totfact> 0.61314726E-02</totfact>
</mgrwt>
</event>
<event>
 4    2  0.4681349E-007  0.7152869E+03  0.7818608E-02  0.9938869E-01
          1   -1    0    0  501    0  0.00000000000E+00  0.00000000000E+00  0.15456417469E+04  0.15456417469E+04  0.50400000000E-02 0. -1.
         -1   -1    0    0    0  501 -0.00000000000E+00 -0.00000000000E+00 -0.42510977762E+03  0.42510977765E+03  0.50400000000E-02 0.  1.
    8880023    1    1    2    0    0  0.26937627073E+03  0.72536468722E+02 -0.88335305269E+02  0.72072078293E+03  0.65864270000E+03 0.  1.
    8880022    1    1    2    0    0 -0.26937627073E+03 -0.72536468722E+02  0.12088672746E+04  0.12500307416E+04  0.15294330000E+03 0.  0.
<mgrwt>
<rscale>  0 0.58413974E+03</rscale>
<asrwt>0</asrwt>
<pdfrwt beam="1">  1        1 0.23779104E+00 0.71528688E+03</pdfrwt>
<pdfrwt beam="2">  1       -1 0.65401503E-01 0.71528688E+03</pdfrwt>
<totfact> 0.15021977E+01</totfact>
</mgrwt>
</event>
<event>
 4    2  0.4681349E-007  0.7281189E+03  0.7818608E-02  0.9896014E-01
         -1   -1    0    0    0  501 -0.00000000000E+00  0.00000000000E+00  0.31153371105E+03  0.31153371109E+03  0.50400000000E-02 0.  1.
          1   -1    0    0  501    0  0.00000000000E+00 -0.00000000000E+00 -0.14567781127E+04  0.14567781127E+04  0.50400000000E-02 0. -1.
    8880023    1    1    2    0    0 -0.13987315799E+03 -0.27709647398E+03 -0.19025630451E+03  0.75256536187E+03  0.65864270000E+03 0.  1.
    8880022    1    1    2    0    0  0.13987315799E+03  0.27709647398E+03 -0.95498809711E+03  0.10157464619E+04  0.15294330000E+03 0.  0.
<mgrwt>
<rscale>  0 0.60454831E+03</rscale>
<asrwt>0</asrwt>
<pdfrwt beam="1">  1        1 0.22411971E+00 0.72811892E+03</pdfrwt>
<pdfrwt beam="2">  1       -1 0.47928264E-01 0.72811892E+03</pdfrwt>
<totfact> 0.31526778E+01</totfact>
</mgrwt>
</event>
<event>
 4    2  0.4986887E-007  0.6997007E+03  0.7818608E-02  0.9998445E-01
          1   -1    0    0  501    0  0.00000000000E+00  0.00000000000E+00  0.16745391996E+04  0.16745391996E+04  0.50400000000E-02 0. -1.
         -1   -1    0    0    0  501 -0.00000000000E+00 -0.00000000000E+00 -0.94802572557E+03  0.94802572558E+03  0.50400000000E-02 0.  1.
    8880023    1    1    2    0    0 -0.23087845175E+03  0.49658643527E+02 -0.80432986922E+03  0.10660804778E+04  0.65864270000E+03 0.  1.
    8880022    1    1    2    0    0  0.23087845175E+03 -0.49658643527E+02  0.15308433433E+04  0.15564844474E+04  0.15294330000E+03 0.  0.
<mgrwt>
<rscale>  0 0.55718467E+03</rscale>
<asrwt>0</asrwt>
<pdfrwt beam="1">  1        1 0.25762142E+00 0.69970068E+03</pdfrwt>
<pdfrwt beam="2">  1       -1 0.14585011E+00 0.69970068E+03</pdfrwt>
<totfact> 0.19784997E+00</totfact>
</mgrwt>
</event>
<event>
 4    2  0.4681349E-007  0.6974575E+03  0.7818608E-02  0.1000792E+00
         -1   -1    0    0    0  501 -0.00000000000E+00  0.00000000000E+00  0.23084043189E+03  0.23084043195E+03  0.50400000000E-02 0.  1.
          1   -1    0    0  501    0  0.00000000000E+00 -0.00000000000E+00 -0.23741342202E+04  0.23741342202E+04  0.50400000000E-02 0. -1.
    8880023    1    1    2    0    0  0.34401543148E+01 -0.22940114241E+03 -0.33134011290E+03  0.77216137917E+03  0.65864270000E+03 0.  1.
    8880022    1    1    2    0    0 -0.34401543148E+01  0.22940114241E+03 -0.18119536754E+04  0.18328132730E+04  0.15294330000E+03 0.  0.
<mgrwt>
<rscale>  0 0.55304473E+03</rscale>
<asrwt>0</asrwt>
<pdfrwt beam="1">  1        1 0.36525140E+00 0.69745747E+03</pdfrwt>
<pdfrwt beam="2">  1       -1 0.35513914E-01 0.69745747E+03</pdfrwt>
<totfact> 0.13241520E+01</totfact>
</mgrwt>
</event>
<event>
 4    2  0.4681349E-007  0.7760697E+03  0.7818608E-02  0.9765152E-01
         -1   -1    0    0    0  501 -0.00000000000E+00  0.00000000000E+00  0.50700008705E+03  0.50700008708E+03  0.50400000000E-02 0.  1.
          1   -1    0    0  501    0  0.00000000000E+00 -0.00000000000E+00 -0.13860472724E+04  0.13860472724E+04  0.50400000000E-02 0. -1.
    8880023    1    1    2    0    0 -0.48193620934E+02 -0.40761670262E+03  0.13565693939E+03  0.78783692019E+03  0.65864270000E+03 0.  1.
    8880022    1    1    2    0    0  0.48193620934E+02  0.40761670262E+03 -0.10147041248E+04  0.11052104393E+04  0.15294330000E+03 0.  0.
<mgrwt>
<rscale>  0 0.67266713E+03</rscale>
<asrwt>0</asrwt>
<pdfrwt beam="1">  1        1 0.21323804E+00 0.77606972E+03</pdfrwt>
<pdfrwt beam="2">  1       -1 0.78000014E-01 0.77606972E+03</pdfrwt>
<totfact> 0.13346975E+01</totfact>
</mgrwt>
</event>
<event>
 4    2  0.4681349E-007  0.9352164E+03  0.7818608E-02  0.9471711E-01
          1   -1    0    0  501    0  0.00000000000E+00  0.00000000000E+00  0.11142204451E+04  0.11142204451E+04  0.50400000000E-02 0. -1.
         -1   -1    0    0    0  501 -0.00000000000E+00 -0.00000000000E+00 -0.66931419498E+03  0.66931419500E+03  0.50400000000E-02 0.  1.
    8880023    1    1    2    0    0  0.51472395429E+03 -0.41937899542E+03 -0.57524870167E+02  0.93698388880E+03  0.65864270000E+03 0.  0.
    8880022    1    1    2    0    0 -0.51472395429E+03  0.41937899542E+03  0.50243112029E+03  0.84655075133E+03  0.15294330000E+03 0.  0.
<mgrwt>
<rscale>  0 0.86401947E+03</rscale>
<asrwt>0</asrwt>
<pdfrwt beam="1">  1        1 0.17141853E+00 0.93521639E+03</pdfrwt>
<pdfrwt beam="2">  1       -1 0.10297142E+00 0.93521639E+03</pdfrwt>
<totfact> 0.11129840E+01</totfact>
</mgrwt>
</event>
<event>
 4    2  0.4681349E-007  0.9130420E+03  0.7818608E-02  0.9505411E-01
         -1   -1    0    0    0  501 -0.00000000000E+00  0.00000000000E+00  0.31372268070E+03  0.31372268074E+03  0.50400000000E-02 0.  1.
          1   -1    0    0  501    0  0.00000000000E+00 -0.00000000000E+00 -0.49490213502E+04  0.49490213502E+04  0.50400000000E-02 0. -1.
    8880023    1    1    2    0    0  0.46356289047E+03 -0.43005234509E+03 -0.45083977588E+04  0.45999234918E+04  0.65864270000E+03 0.  0.
    8880022    1    1    2    0    0 -0.46356289047E+03  0.43005234509E+03 -0.12690091072E+03  0.66282053913E+03  0.15294330000E+03 0.  0.
<mgrwt>
<rscale>  0 0.83886057E+03</rscale>
<asrwt>0</asrwt>
<pdfrwt beam="1">  1        1 0.76138784E+00 0.91304205E+03</pdfrwt>
<pdfrwt beam="2">  1       -1 0.48265031E-01 0.91304205E+03</pdfrwt>
<totfact> 0.48152449E-02</totfact>
</mgrwt>
</event>
<event>
 4    2  0.4681349E-007  0.7012239E+03  0.7818608E-02  0.9992161E-01
         -1   -1    0    0    0  501 -0.00000000000E+00  0.00000000000E+00  0.52332246570E+03  0.52332246572E+03  0.50400000000E-02 0.  1.
          1   -1    0    0  501    0  0.00000000000E+00 -0.00000000000E+00 -0.46736566476E+03  0.46736566479E+03  0.50400000000E-02 0. -1.
    8880023    1    1    2    0    0 -0.18781160505E+03  0.15043808553E+03  0.73246389682E+02  0.70503904603E+03  0.65864270000E+03 0.  0.
    8880022    1    1    2    0    0  0.18781160505E+03 -0.15043808553E+03 -0.17289588743E+02  0.28564908448E+03  0.15294330000E+03 0. -1.
<mgrwt>
<rscale>  0 0.55995292E+03</rscale>
<asrwt>0</asrwt>
<pdfrwt beam="1">  1        1 0.71902410E-01 0.70122395E+03</pdfrwt>
<pdfrwt beam="2">  1       -1 0.80511148E-01 0.70122395E+03</pdfrwt>
<totfact> 0.76542747E+01</totfact>
</mgrwt>
</event>
<event>
 4    2  0.4681349E-007  0.9433334E+03  0.7818608E-02  0.9459771E-01
         -1   -1    0    0    0  501 -0.00000000000E+00  0.00000000000E+00  0.77797445103E+03  0.77797445105E+03  0.50400000000E-02 0.  1.
          1   -1    0    0  501    0  0.00000000000E+00 -0.00000000000E+00 -0.22542056797E+04  0.22542056797E+04  0.50400000000E-02 0. -1.
    8880023    1    1    2    0    0  0.63428311149E+03 -0.23184599280E+03  0.40572393640E+03  0.10268835127E+04  0.65864270000E+03 0.  1.
    8880022    1    1    2    0    0 -0.63428311149E+03  0.23184599280E+03 -0.18819551651E+04  0.20052966180E+04  0.15294330000E+03 0.  0.
<mgrwt>
<rscale>  0 0.87315805E+03</rscale>
<asrwt>0</asrwt>
<pdfrwt beam="1">  1        1 0.34680087E+00 0.94333336E+03</pdfrwt>
<pdfrwt beam="2">  1       -1 0.11968838E+00 0.94333336E+03</pdfrwt>
<totfact> 0.12760635E+00</totfact>
</mgrwt>
</event>
<event>
 4    2  0.4681349E-007  0.6759321E+03  0.7818608E-02  0.1011725E+00
         -1   -1    0    0    0  501 -0.00000000000E+00  0.00000000000E+00  0.56920457059E+03  0.56920457062E+03  0.50400000000E-02 0.  1.
          1   -1    0    0  501    0  0.00000000000E+00 -0.00000000000E+00 -0.11446365726E+04  0.11446365726E+04  0.50400000000E-02 0. -1.
    8880023    1    1    2    0    0 -0.15090868641E+03  0.17336302413E+02  0.35171675181E+03  0.76196381724E+03  0.65864270000E+03 0.  1.
    8880022    1    1    2    0    0  0.15090868641E+03 -0.17336302413E+02 -0.92714875381E+03  0.95187732599E+03  0.15294330000E+03 0.  0.
<mgrwt>
<rscale>  0 0.50794744E+03</rscale>
<asrwt>0</asrwt>
<pdfrwt beam="1">  1        1 0.17609793E+00 0.67593209E+03</pdfrwt>
<pdfrwt beam="2">  1       -1 0.87569934E-01 0.67593209E+03</pdfrwt>
<totfact> 0.15700306E+01</totfact>
</mgrwt>
</event>
<event>
 4    2  0.4681349E-007  0.6609238E+03  0.7818608E-02  0.1023229E+00
          1   -1    0    0  501    0  0.00000000000E+00  0.00000000000E+00  0.21085409375E+03  0.21085409381E+03  0.50400000000E-02 0. -1.
         -1   -1    0    0    0  501 -0.00000000000E+00 -0.00000000000E+00 -0.10706666043E+04  0.10706666043E+04  0.50400000000E-02 0.  1.
    8880023    1    1    2    0    0  0.53955412231E+02  0.99410483000E+01 -0.89762058529E+03  0.11146940981E+04  0.65864270000E+03 0.  1.
    8880022    1    1    2    0    0 -0.53955412231E+02 -0.99410483000E+01  0.37808074720E+02  0.16682660004E+03  0.15294330000E+03 0.  0.
<mgrwt>
<rscale>  0 0.46539042E+03</rscale>
<asrwt>0</asrwt>
<pdfrwt beam="1">  1        1 0.32439092E-01 0.66092376E+03</pdfrwt>
<pdfrwt beam="2">  1       -1 0.16471794E+00 0.66092376E+03</pdfrwt>
<totfact> 0.38485942E+01</totfact>
</mgrwt>
</event>
<event>
 4    2  0.4681349E-007  0.8987109E+03  0.7818608E-02  0.9528104E-01
         -1   -1    0    0    0  501 -0.00000000000E+00  0.00000000000E+00  0.56978603572E+03  0.56978603574E+03  0.50400000000E-02 0.  1.
          1   -1    0    0  501    0  0.00000000000E+00 -0.00000000000E+00 -0.17240927815E+04  0.17240927815E+04  0.50400000000E-02 0. -1.
    8880023    1    1    2    0    0 -0.87524894921E+02  0.60515321460E+03  0.85792904148E+02  0.90279657124E+03  0.65864270000E+03 0.  0.
    8880022    1    1    2    0    0  0.87524894921E+02 -0.60515321460E+03 -0.12400996499E+04  0.13910822460E+04  0.15294330000E+03 0.  0.
<mgrwt>
<rscale>  0 0.82243146E+03</rscale>
<asrwt>0</asrwt>
<pdfrwt beam="1">  1        1 0.26524504E+00 0.89871087E+03</pdfrwt>
<pdfrwt beam="2">  1       -1 0.87659391E-01 0.89871087E+03</pdfrwt>
<totfact> 0.59988041E+00</totfact>
</mgrwt>
</event>
<event>
 4    2  0.4681349E-007  0.6824403E+03  0.7818608E-02  0.1007976E+00
          1   -1    0    0  501    0  0.00000000000E+00  0.00000000000E+00  0.16372796384E+04  0.16372796384E+04  0.50400000000E-02 0. -1.
         -1   -1    0    0    0  501 -0.00000000000E+00 -0.00000000000E+00 -0.21898487121E+03  0.21898487127E+03  0.50400000000E-02 0.  1.
    8880023    1    1    2    0    0 -0.80751848618E+02  0.15935379712E+03  0.35885953120E+03  0.77104141465E+03  0.65864270000E+03 0.  1.
    8880022    1    1    2    0    0  0.80751848618E+02 -0.15935379712E+03  0.10594352360E+04  0.10852230950E+04  0.15294330000E+03 0.  0.
<mgrwt>
<rscale>  0 0.52287172E+03</rscale>
<asrwt>0</asrwt>
<pdfrwt beam="1">  1        1 0.25188917E+00 0.68244025E+03</pdfrwt>
<pdfrwt beam="2">  1       -1 0.33689981E-01 0.68244025E+03</pdfrwt>
<totfact> 0.45390869E+01</totfact>
</mgrwt>
</event>
<event>
 4    2  0.4681349E-007  0.9554497E+03  0.7818608E-02  0.9442316E-01
          1   -1    0    0  501    0  0.00000000000E+00  0.00000000000E+00  0.23708360815E+04  0.23708360815E+04  0.50400000000E-02 0. -1.
         -1   -1    0    0    0  501 -0.00000000000E+00 -0.00000000000E+00 -0.47967005434E+03  0.47967005436E+03  0.50400000000E-02 0.  1.
    8880023    1    1    2    0    0 -0.30026815317E+03 -0.62362888208E+03  0.14556980477E+03  0.96647541132E+03  0.65864270000E+03 0.  1.
    8880022    1    1    2    0    0  0.30026815317E+03  0.62362888208E+03  0.17455962224E+04  0.18840307246E+04  0.15294330000E+03 0.  0.
<mgrwt>
<rscale>  0 0.88673565E+03</rscale>
<asrwt>0</asrwt>
<pdfrwt beam="1">  1        1 0.36474400E+00 0.95544971E+03</pdfrwt>
<pdfrwt beam="2">  1       -1 0.73795395E-01 0.95544971E+03</pdfrwt>
<totfact> 0.31490541E+00</totfact>
</mgrwt>
</event>
<event>
 4    2  0.4681349E-007  0.1027923E+04  0.7818608E-02  0.9345904E-01
         -1   -1    0    0    0  501 -0.00000000000E+00  0.00000000000E+00  0.11459308418E+04  0.11459308418E+04  0.50400000000E-02 0.  1.
          1   -1    0    0  501    0  0.00000000000E+00 -0.00000000000E+00 -0.95250718332E+03  0.95250718333E+03  0.50400000000E-02 0. -1.
    8880023    1    1    2    0    0 -0.78244498326E+03  0.10293225129E+03  0.60767583886E+03  0.11941085929E+04  0.65864270000E+03 0.  1.
    8880022    1    1    2    0    0  0.78244498326E+03 -0.10293225129E+03 -0.41425218035E+03  0.90432943230E+03  0.15294330000E+03 0.  0.
<mgrwt>
<rscale>  0 0.96664462E+03</rscale>
<asrwt>0</asrwt>
<pdfrwt beam="1">  1        1 0.14653957E+00 0.10279229E+04</pdfrwt>
<pdfrwt beam="2">  1       -1 0.17629705E+00 0.10279229E+04</pdfrwt>
<totfact> 0.36508722E+00</totfact>
</mgrwt>
</event>
<event>
 4    2  0.4681349E-007  0.1337868E+04  0.7818608E-02  0.9033529E-01
          1   -1    0    0  501    0  0.00000000000E+00  0.00000000000E+00  0.22625076247E+04  0.22625076247E+04  0.50400000000E-02 0. -1.
         -1   -1    0    0    0  501 -0.00000000000E+00 -0.00000000000E+00 -0.94568074295E+03  0.94568074296E+03  0.50400000000E-02 0.  1.
    8880023    1    1    2    0    0  0.76607434907E+03  0.87704678535E+03 -0.13054871220E+03  0.13442225056E+04  0.65864270000E+03 0.  1.
    8880022    1    1    2    0    0 -0.76607434907E+03 -0.87704678535E+03  0.14473755939E+04  0.18639658620E+04  0.15294330000E+03 0.  0.
<mgrwt>
<rscale>  0 0.12950130E+04</rscale>
<asrwt>0</asrwt>
<pdfrwt beam="1">  1        1 0.34807809E+00 0.13378681E+04</pdfrwt>
<pdfrwt beam="2">  1       -1 0.14548935E+00 0.13378681E+04</pdfrwt>
<totfact> 0.72360050E-01</totfact>
</mgrwt>
</event>
<event>
 4    2  0.4681349E-007  0.9062547E+03  0.7818608E-02  0.9516065E-01
          1   -1    0    0  501    0  0.00000000000E+00  0.00000000000E+00  0.30281321461E+04  0.30281321461E+04  0.50400000000E-02 0. -1.
         -1   -1    0    0    0  501 -0.00000000000E+00 -0.00000000000E+00 -0.52558917775E+03  0.52558917778E+03  0.50400000000E-02 0.  1.
    8880023    1    1    2    0    0  0.54846857564E+03  0.29439692500E+03 -0.63838712903E+02  0.90850036623E+03  0.65864270000E+03 0.  0.
    8880022    1    1    2    0    0 -0.54846857564E+03 -0.29439692500E+03  0.25663816812E+04  0.26452209576E+04  0.15294330000E+03 0.  0.
<mgrwt>
<rscale>  0 0.83109742E+03</rscale>
<asrwt>0</asrwt>
<pdfrwt beam="1">  1        1 0.46586649E+00 0.90625467E+03</pdfrwt>
<pdfrwt beam="2">  1       -1 0.80859872E-01 0.90625467E+03</pdfrwt>
<totfact> 0.90900988E-01</totfact>
</mgrwt>
</event>
<event>
 4    2  0.4681349E-007  0.7205234E+03  0.7818608E-02  0.9920819E-01
          1   -1    0    0  501    0  0.00000000000E+00  0.00000000000E+00  0.82137389280E+03  0.82137389281E+03  0.50400000000E-02 0. -1.
         -1   -1    0    0    0  501 -0.00000000000E+00 -0.00000000000E+00 -0.74010805721E+03  0.74010805723E+03  0.50400000000E-02 0.  1.
    8880023    1    1    2    0    0 -0.85564049946E+02 -0.27932514623E+03 -0.51118965529E+03  0.88344146037E+03  0.65864270000E+03 0.  1.
    8880022    1    1    2    0    0  0.85564049946E+02  0.27932514623E+03  0.59245549087E+03  0.67804048967E+03  0.15294330000E+03 0.  0.
<mgrwt>
<rscale>  0 0.59262836E+03</rscale>
<asrwt>0</asrwt>
<pdfrwt beam="1">  1        1 0.12636521E+00 0.72052339E+03</pdfrwt>
<pdfrwt beam="2">  1       -1 0.11386278E+00 0.72052339E+03</pdfrwt>
<totfact> 0.15381366E+01</totfact>
</mgrwt>
</event>
<event>
 4    2  0.4681349E-007  0.7245016E+03  0.7818608E-02  0.9907638E-01
          1   -1    0    0  501    0  0.00000000000E+00  0.00000000000E+00  0.14026748243E+04  0.14026748243E+04  0.50400000000E-02 0. -1.
         -1   -1    0    0    0  501 -0.00000000000E+00 -0.00000000000E+00 -0.25544212322E+03  0.25544212327E+03  0.50400000000E-02 0.  1.
    8880023    1    1    2    0    0 -0.25421194343E+03  0.16269183117E+03  0.37672985652E+03  0.81659533134E+03  0.65864270000E+03 0.  1.
    8880022    1    1    2    0    0  0.25421194343E+03 -0.16269183117E+03  0.77050284457E+03  0.84152161626E+03  0.15294330000E+03 0.  0.
<mgrwt>
<rscale>  0 0.59892522E+03</rscale>
<asrwt>0</asrwt>
<pdfrwt beam="1">  1        1 0.21579612E+00 0.72450159E+03</pdfrwt>
<pdfrwt beam="2">  1       -1 0.39298789E-01 0.72450159E+03</pdfrwt>
<totfact> 0.49573177E+01</totfact>
</mgrwt>
</event>
<event>
 4    2  0.4681349E-007  0.7530068E+03  0.7818608E-02  0.9823561E-01
          1   -1    0    0  501    0  0.00000000000E+00  0.00000000000E+00  0.14803215324E+04  0.14803215324E+04  0.50400000000E-02 0. -1.
         -1   -1    0    0    0  501 -0.00000000000E+00 -0.00000000000E+00 -0.38607596055E+03  0.38607596058E+03  0.50400000000E-02 0.  1.
    8880023    1    1    2    0    0 -0.30369340906E+03 -0.20243353391E+03  0.55760406932E+02  0.75506850789E+03  0.65864270000E+03 0.  1.
    8880022    1    1    2    0    0  0.30369340906E+03  0.20243353391E+03  0.10384851649E+04  0.11113289851E+04  0.15294330000E+03 0.  0.
<mgrwt>
<rscale>  0 0.64113336E+03</rscale>
<asrwt>0</asrwt>
<pdfrwt beam="1">  1        1 0.22774177E+00 0.75300679E+03</pdfrwt>
<pdfrwt beam="2">  1       -1 0.59396302E-01 0.75300679E+03</pdfrwt>
<totfact> 0.20056620E+01</totfact>
</mgrwt>
</event>
<event>
 4    2  0.4681349E-007  0.1245996E+04  0.7818608E-02  0.9113658E-01
         -1   -1    0    0    0  501 -0.00000000000E+00  0.00000000000E+00  0.11155520082E+04  0.11155520082E+04  0.50400000000E-02 0.  1.
          1   -1    0    0  501    0  0.00000000000E+00 -0.00000000000E+00 -0.15849755439E+04  0.15849755440E+04  0.50400000000E-02 0. -1.
    8880023    1    1    2    0    0 -0.26307641045E+03 -0.10244446170E+04 -0.91171527242E+03  0.15439335852E+04  0.65864270000E+03 0.  1.
    8880022    1    1    2    0    0  0.26307641045E+03  0.10244446170E+04  0.44229173665E+03  0.11565939670E+04  0.15294330000E+03 0.  0.
<mgrwt>
<rscale>  0 0.11990849E+04</rscale>
<asrwt>0</asrwt>
<pdfrwt beam="1">  1        1 0.24384239E+00 0.12459961E+04</pdfrwt>
<pdfrwt beam="2">  1       -1 0.17162338E+00 0.12459961E+04</pdfrwt>
<totfact> 0.13338711E+00</totfact>
</mgrwt>
</event>
<event>
 4    2  0.4681349E-007  0.7095308E+03  0.7818608E-02  0.9959747E-01
         -1   -1    0    0    0  501 -0.00000000000E+00  0.00000000000E+00  0.53944731793E+03  0.53944731795E+03  0.50400000000E-02 0.  1.
          1   -1    0    0  501    0  0.00000000000E+00 -0.00000000000E+00 -0.15291412164E+04  0.15291412164E+04  0.50400000000E-02 0. -1.
    8880023    1    1    2    0    0 -0.22239298972E+03  0.14200383701E+03  0.27999911512E+03  0.76278007468E+03  0.65864270000E+03 0.  1.
    8880022    1    1    2    0    0  0.22239298972E+03 -0.14200383701E+03 -0.12696930136E+04  0.13058084597E+04  0.15294330000E+03 0.  0.
<mgrwt>
<rscale>  0 0.57451025E+03</rscale>
<asrwt>0</asrwt>
<pdfrwt beam="1">  1        1 0.23525249E+00 0.70953079E+03</pdfrwt>
<pdfrwt beam="2">  1       -1 0.82991896E-01 0.70953079E+03</pdfrwt>
<totfact> 0.94151569E+00</totfact>
</mgrwt>
</event>
<event>
 4    2  0.4681349E-007  0.7134113E+03  0.7818608E-02  0.9945545E-01
         -1   -1    0    0    0  501 -0.00000000000E+00  0.00000000000E+00  0.46053078963E+03  0.46053078966E+03  0.50400000000E-02 0.  1.
          1   -1    0    0  501    0  0.00000000000E+00 -0.00000000000E+00 -0.69508560229E+03  0.69508560231E+03  0.50400000000E-02 0. -1.
    8880023    1    1    2    0    0  0.32349797764E+02  0.27221114416E+03  0.71772341079E+02  0.71701247662E+03  0.65864270000E+03 0.  0.
    8880022    1    1    2    0    0 -0.32349797764E+02 -0.27221114416E+03 -0.30632715374E+03  0.43860391535E+03  0.15294330000E+03 0.  0.
<mgrwt>
<rscale>  0 0.58103852E+03</rscale>
<asrwt>0</asrwt>
<pdfrwt beam="1">  1        1 0.10693625E+00 0.71341126E+03</pdfrwt>
<pdfrwt beam="2">  1       -1 0.70850891E-01 0.71341126E+03</pdfrwt>
<totfact> 0.56803141E+01</totfact>
</mgrwt>
</event>
<event>
 4    2  0.4681349E-007  0.9671427E+03  0.7818608E-02  0.9425867E-01
         -1   -1    0    0    0  501 -0.00000000000E+00  0.00000000000E+00  0.75962784796E+03  0.75962784797E+03  0.50400000000E-02 0.  1.
          1   -1    0    0  501    0  0.00000000000E+00 -0.00000000000E+00 -0.17836089198E+04  0.17836089198E+04  0.50400000000E-02 0. -1.
    8880023    1    1    2    0    0  0.56998701991E+03  0.42032089898E+03  0.31806604228E+03  0.10181017015E+04  0.65864270000E+03 0.  1.
    8880022    1    1    2    0    0 -0.56998701991E+03 -0.42032089898E+03 -0.13420471141E+04  0.15251350663E+04  0.15294330000E+03 0.  0.
<mgrwt>
<rscale>  0 0.89977166E+03</rscale>
<asrwt>0</asrwt>
<pdfrwt beam="1">  1        1 0.27440137E+00 0.96714273E+03</pdfrwt>
<pdfrwt beam="2">  1       -1 0.11686582E+00 0.96714273E+03</pdfrwt>
<totfact> 0.27957598E+00</totfact>
</mgrwt>
</event>
<event>
 4    2  0.4681349E-007  0.7945654E+03  0.7818608E-02  0.9722672E-01
         -1   -1    0    0    0  501 -0.00000000000E+00  0.00000000000E+00  0.71448442692E+03  0.71448442694E+03  0.50400000000E-02 0.  1.
          1   -1    0    0  501    0  0.00000000000E+00 -0.00000000000E+00 -0.62449393844E+03  0.62449393846E+03  0.50400000000E-02 0. -1.
    8880023    1    1    2    0    0  0.24266878023E+02  0.44377362530E+03 -0.15408340013E+03  0.80936753847E+03  0.65864270000E+03 0.  0.
    8880022    1    1    2    0    0 -0.24266878023E+02 -0.44377362530E+03  0.24407388861E+03  0.52961082692E+03  0.15294330000E+03 0.  0.
<mgrwt>
<rscale>  0 0.69682787E+03</rscale>
<asrwt>0</asrwt>
<pdfrwt beam="1">  1        1 0.96075991E-01 0.79456536E+03</pdfrwt>
<pdfrwt beam="2">  1       -1 0.10992068E+00 0.79456536E+03</pdfrwt>
<totfact> 0.25211345E+01</totfact>
</mgrwt>
</event>
<event>
 4    2  0.4681349E-007  0.6775534E+03  0.7818608E-02  0.1010743E+00
         -1   -1    0    0    0  501 -0.00000000000E+00  0.00000000000E+00  0.53968505638E+03  0.53968505640E+03  0.50400000000E-02 0.  1.
          1   -1    0    0  501    0  0.00000000000E+00 -0.00000000000E+00 -0.38335319219E+03  0.38335319222E+03  0.50400000000E-02 0. -1.
    8880023    1    1    2    0    0  0.43525957044E+02  0.15288544327E+03  0.18034672342E+03  0.70114450338E+03  0.65864270000E+03 0.  1.
    8880022    1    1    2    0    0 -0.43525957044E+02 -0.15288544327E+03 -0.24014859231E+02  0.22189374525E+03  0.15294330000E+03 0.  1.
<mgrwt>
<rscale>  0 0.51180476E+03</rscale>
<asrwt>0</asrwt>
<pdfrwt beam="1">  1        1 0.58977415E-01 0.67755345E+03</pdfrwt>
<pdfrwt beam="2">  1       -1 0.83028470E-01 0.67755345E+03</pdfrwt>
<totfact> 0.93526451E+01</totfact>
</mgrwt>
</event>
<event>
 4    2  0.4681349E-007  0.1008164E+04  0.7818608E-02  0.9370954E-01
         -1   -1    0    0    0  501 -0.00000000000E+00  0.00000000000E+00  0.13239307879E+04  0.13239307879E+04  0.50400000000E-02 0.  1.
          1   -1    0    0  501    0  0.00000000000E+00 -0.00000000000E+00 -0.13951352924E+04  0.13951352924E+04  0.50400000000E-02 0. -1.
    8880023    1    1    2    0    0  0.58777406728E+03  0.48693543091E+03 -0.10585068175E+04  0.14617904628E+04  0.65864270000E+03 0.  0.
    8880022    1    1    2    0    0 -0.58777406728E+03 -0.48693543091E+03  0.98730231309E+03  0.12572756176E+04  0.15294330000E+03 0.  0.
<mgrwt>
<rscale>  0 0.94505119E+03</rscale>
<asrwt>0</asrwt>
<pdfrwt beam="1">  1        1 0.21463620E+00 0.10081640E+04</pdfrwt>
<pdfrwt beam="2">  1       -1 0.20368166E+00 0.10081640E+04</pdfrwt>
<totfact> 0.11052979E+00</totfact>
</mgrwt>
</event>
<event>
 4    2  0.4681349E-007  0.7709394E+03  0.7818608E-02  0.9777568E-01
         -1   -1    0    0    0  501 -0.00000000000E+00  0.00000000000E+00  0.74342179085E+03  0.74342179087E+03  0.50400000000E-02 0.  1.
          1   -1    0    0  501    0  0.00000000000E+00 -0.00000000000E+00 -0.27184752965E+04  0.27184752965E+04  0.50400000000E-02 0. -1.
    8880023    1    1    2    0    0 -0.22981223694E+03 -0.32821284543E+03  0.52021693701E+03  0.93003935614E+03  0.65864270000E+03 0.  1.
    8880022    1    1    2    0    0  0.22981223694E+03  0.32821284543E+03 -0.24952704427E+04  0.25318577312E+04  0.15294330000E+03 0.  0.
<mgrwt>
<rscale>  0 0.66580408E+03</rscale>
<asrwt>0</asrwt>
<pdfrwt beam="1">  1        1 0.41822696E+00 0.77093939E+03</pdfrwt>
<pdfrwt beam="2">  1       -1 0.11437258E+00 0.77093939E+03</pdfrwt>
<totfact> 0.70798321E-01</totfact>
</mgrwt>
</event>
<event>
 4    2  0.4681349E-007  0.9440542E+03  0.7818608E-02  0.9458721E-01
          1   -1    0    0  501    0  0.00000000000E+00  0.00000000000E+00  0.81978299283E+03  0.81978299285E+03  0.50400000000E-02 0. -1.
         -1   -1    0    0    0  501 -0.00000000000E+00 -0.00000000000E+00 -0.21710934413E+04  0.21710934413E+04  0.50400000000E-02 0.  1.
    8880023    1    1    2    0    0  0.60176327778E+03 -0.30872157701E+03 -0.18900964528E+04  0.21127477043E+04  0.65864270000E+03 0.  1.
    8880022    1    1    2    0    0 -0.60176327778E+03  0.30872157701E+03  0.53878600442E+03  0.87812872984E+03  0.15294330000E+03 0.  0.
<mgrwt>
<rscale>  0 0.87396787E+03</rscale>
<asrwt>0</asrwt>
<pdfrwt beam="1">  1        1 0.12612046E+00 0.94405416E+03</pdfrwt>
<pdfrwt beam="2">  1       -1 0.33401437E+00 0.94405416E+03</pdfrwt>
<totfact> 0.43274716E-01</totfact>
</mgrwt>
</event>
<event>
 4    2  0.4681349E-007  0.7161093E+03  0.7818608E-02  0.9935977E-01
          1   -1    0    0  501    0  0.00000000000E+00  0.00000000000E+00  0.12930101523E+04  0.12930101523E+04  0.50400000000E-02 0. -1.
         -1   -1    0    0    0  501 -0.00000000000E+00 -0.00000000000E+00 -0.20810248813E+03  0.20810248819E+03  0.50400000000E-02 0.  1.
    8880023    1    1    2    0    0 -0.28033787383E+03  0.20323174256E+02  0.78475490051E+03  0.10623807298E+04  0.65864270000E+03 0.  0.
    8880022    1    1    2    0    0  0.28033787383E+03 -0.20323174256E+02  0.30015276367E+03  0.43873191070E+03  0.15294330000E+03 0.  1.
<mgrwt>
<rscale>  0 0.58548910E+03</rscale>
<asrwt>0</asrwt>
<pdfrwt beam="1">  1        1 0.19892464E+00 0.71610932E+03</pdfrwt>
<pdfrwt beam="2">  1       -1 0.32015767E-01 0.71610932E+03</pdfrwt>
<totfact> 0.85342001E+01</totfact>
</mgrwt>
</event>
<event>
 4    2  0.4681349E-007  0.1021574E+04  0.7818608E-02  0.9353861E-01
          1   -1    0    0  501    0  0.00000000000E+00  0.00000000000E+00  0.13633763641E+04  0.13633763641E+04  0.50400000000E-02 0. -1.
         -1   -1    0    0    0  501 -0.00000000000E+00 -0.00000000000E+00 -0.91497030690E+03  0.91497030691E+03  0.50400000000E-02 0.  1.
    8880023    1    1    2    0    0  0.61584812497E+03  0.48013990813E+03 -0.41637563127E+03  0.11031691244E+04  0.65864270000E+03 0.  0.
    8880022    1    1    2    0    0 -0.61584812497E+03 -0.48013990813E+03  0.86478168846E+03  0.11751775466E+04  0.15294330000E+03 0.  0.
<mgrwt>
<rscale>  0 0.95972001E+03</rscale>
<asrwt>0</asrwt>
<pdfrwt beam="1">  1        1 0.20975021E+00 0.10215740E+04</pdfrwt>
<pdfrwt beam="2">  1       -1 0.14076466E+00 0.10215740E+04</pdfrwt>
<totfact> 0.33746555E+00</totfact>
</mgrwt>
</event>
<event>
 4    2  0.4681349E-007  0.1066618E+04  0.7818608E-02  0.9299166E-01
         -1   -1    0    0    0  501 -0.00000000000E+00  0.00000000000E+00  0.49027602768E+03  0.49027602771E+03  0.50400000000E-02 0.  1.
          1   -1    0    0  501    0  0.00000000000E+00 -0.00000000000E+00 -0.22637763625E+04  0.22637763625E+04  0.50400000000E-02 0. -1.
    8880023    1    1    2    0    0  0.83892418009E+03 -0.84180642671E+01 -0.40365504082E+03  0.11404438794E+04  0.65864270000E+03 0.  0.
    8880022    1    1    2    0    0 -0.83892418009E+03  0.84180642671E+01 -0.13698452940E+04  0.16136085108E+04  0.15294330000E+03 0.  0.
<mgrwt>
<rscale>  0 0.10085972E+04</rscale>
<asrwt>0</asrwt>
<pdfrwt beam="1">  1        1 0.34827328E+00 0.10666184E+04</pdfrwt>
<pdfrwt beam="2">  1       -1 0.75427083E-01 0.10666184E+04</pdfrwt>
<totfact> 0.35030088E+00</totfact>
</mgrwt>
</event>
<event>
 4    2  0.4681349E-007  0.9477958E+03  0.7818608E-02  0.9453293E-01
          1   -1    0    0  501    0  0.00000000000E+00  0.00000000000E+00  0.65240862647E+03  0.65240862649E+03  0.50400000000E-02 0. -1.
         -1   -1    0    0    0  501 -0.00000000000E+00 -0.00000000000E+00 -0.16192868914E+04  0.16192868914E+04  0.50400000000E-02 0.  1.
    8880023    1    1    2    0    0 -0.48817217838E+03 -0.47559913016E+03 -0.12055795032E+04  0.15335379856E+04  0.65864270000E+03 0.  0.
    8880022    1    1    2    0    0  0.48817217838E+03  0.47559913016E+03  0.23870123828E+03  0.73815753232E+03  0.15294330000E+03 0.  0.
<mgrwt>
<rscale>  0 0.87816724E+03</rscale>
<asrwt>0</asrwt>
<pdfrwt beam="1">  1        1 0.10037056E+00 0.94779577E+03</pdfrwt>
<pdfrwt beam="2">  1       -1 0.24912106E+00 0.94779577E+03</pdfrwt>
<totfact> 0.21716697E+00</totfact>
</mgrwt>
</event>
<event>
 4    2  0.4681349E-007  0.1183398E+04  0.7818608E-02  0.9173432E-01
         -1   -1    0    0    0  501 -0.00000000000E+00  0.00000000000E+00  0.11094765549E+04  0.11094765550E+04  0.50400000000E-02 0.  1.
          1   -1    0    0  501    0  0.00000000000E+00 -0.00000000000E+00 -0.16478674188E+04  0.16478674188E+04  0.50400000000E-02 0. -1.
    8880023    1    1    2    0    0  0.98258311602E+03  0.33919622269E+02  0.53063724194E+03  0.12969218209E+04  0.65864270000E+03 0.  0.
    8880022    1    1    2    0    0 -0.98258311602E+03 -0.33919622269E+02 -0.10690281058E+04  0.14604221529E+04  0.15294330000E+03 0.  0.
<mgrwt>
<rscale>  0 0.11331910E+04</rscale>
<asrwt>0</asrwt>
<pdfrwt beam="1">  1        1 0.25351806E+00 0.11833978E+04</pdfrwt>
<pdfrwt beam="2">  1       -1 0.17068870E+00 0.11833978E+04</pdfrwt>
<totfact> 0.12363810E+00</totfact>
</mgrwt>
</event>
<event>
 4    2  0.4681349E-007  0.7687402E+03  0.7818608E-02  0.9782984E-01
          1   -1    0    0  501    0  0.00000000000E+00  0.00000000000E+00  0.20839184254E+04  0.20839184254E+04  0.50400000000E-02 0. -1.
         -1   -1    0    0    0  501 -0.00000000000E+00 -0.00000000000E+00 -0.70452667494E+03  0.70452667496E+03  0.50400000000E-02 0.  1.
    8880023    1    1    2    0    0  0.29513704337E+03 -0.26466096283E+03 -0.46319397804E+03  0.89750218227E+03  0.65864270000E+03 0.  1.
    8880022    1    1    2    0    0 -0.29513704337E+03  0.26466096283E+03  0.18425857285E+04  0.18909429181E+04  0.15294330000E+03 0.  0.
<mgrwt>
<rscale>  0 0.66283780E+03</rscale>
<asrwt>0</asrwt>
<pdfrwt beam="1">  1        1 0.32060283E+00 0.76874021E+03</pdfrwt>
<pdfrwt beam="2">  1       -1 0.10838872E+00 0.76874021E+03</pdfrwt>
<totfact> 0.21722685E+00</totfact>
</mgrwt>
</event>
<event>
 4    2  0.4681349E-007  0.1017183E+04  0.7818608E-02  0.9359414E-01
          1   -1    0    0  501    0  0.00000000000E+00  0.00000000000E+00  0.43108570764E+03  0.43108570767E+03  0.50400000000E-02 0. -1.
         -1   -1    0    0    0  501 -0.00000000000E+00 -0.00000000000E+00 -0.19817739753E+04  0.19817739753E+04  0.50400000000E-02 0.  1.
    8880023    1    1    2    0    0 -0.23286762697E+03 -0.73934017000E+03 -0.11201617089E+04  0.15130841612E+04  0.65864270000E+03 0.  0.
    8880022    1    1    2    0    0  0.23286762697E+03  0.73934017000E+03 -0.43052655872E+03  0.89977552170E+03  0.15294330000E+03 0.  0.
<mgrwt>
<rscale>  0 0.95492342E+03</rscale>
<asrwt>0</asrwt>
<pdfrwt beam="1">  1        1 0.66320879E-01 0.10171831E+04</pdfrwt>
<pdfrwt beam="2">  1       -1 0.30488830E+00 0.10171831E+04</pdfrwt>
<totfact> 0.16875083E+00</totfact>
</mgrwt>
</event>
<event>
 4    2  0.4681349E-007  0.8959962E+03  0.7818608E-02  0.9532490E-01
          1   -1    0    0  501    0  0.00000000000E+00  0.00000000000E+00  0.17244999713E+04  0.17244999713E+04  0.50400000000E-02 0. -1.
         -1   -1    0    0    0  501 -0.00000000000E+00 -0.00000000000E+00 -0.37882948168E+03  0.37882948172E+03  0.50400000000E-02 0.  1.
    8880023    1    1    2    0    0 -0.42831630241E+03  0.43074837567E+03  0.42984685868E+03  0.99376936270E+03  0.65864270000E+03 0.  0.
    8880022    1    1    2    0    0  0.42831630241E+03 -0.43074837567E+03  0.91582363094E+03  0.11095600903E+04  0.15294330000E+03 0.  0.
<mgrwt>
<rscale>  0 0.81930285E+03</rscale>
<asrwt>0</asrwt>
<pdfrwt beam="1">  1        1 0.26530769E+00 0.89599622E+03</pdfrwt>
<pdfrwt beam="2">  1       -1 0.58281459E-01 0.89599622E+03</pdfrwt>
<totfact> 0.13951792E+01</totfact>
</mgrwt>
</event>
<event>
 4    2  0.4681349E-007  0.6946481E+03  0.7818608E-02  0.1002017E+00
         -1   -1    0    0    0  501 -0.00000000000E+00  0.00000000000E+00  0.17149748546E+03  0.17149748553E+03  0.50400000000E-02 0.  1.
          1   -1    0    0  501    0  0.00000000000E+00 -0.00000000000E+00 -0.13525509513E+04  0.13525509513E+04  0.50400000000E-02 0. -1.
    8880023    1    1    2    0    0 -0.18993917295E+03 -0.11246715829E+03 -0.84493862819E+03  0.10938268797E+04  0.65864270000E+03 0.  1.
    8880022    1    1    2    0    0  0.18993917295E+03  0.11246715829E+03 -0.33611483767E+03  0.43022155714E+03  0.15294330000E+03 0.  0.
<mgrwt>
<rscale>  0 0.54774528E+03</rscale>
<asrwt>0</asrwt>
<pdfrwt beam="1">  1        1 0.20808475E+00 0.69464808E+03</pdfrwt>
<pdfrwt beam="2">  1       -1 0.26384229E-01 0.69464808E+03</pdfrwt>
<totfact> 0.10863626E+02</totfact>
</mgrwt>
</event>
<event>
 4    2  0.4681349E-007  0.6596233E+03  0.7818608E-02  0.1024546E+00
          1   -1    0    0  501    0  0.00000000000E+00  0.00000000000E+00  0.26483634049E+03  0.26483634053E+03  0.50400000000E-02 0. -1.
         -1   -1    0    0    0  501 -0.00000000000E+00 -0.00000000000E+00 -0.15330100556E+04  0.15330100556E+04  0.50400000000E-02 0.  1.
    8880023    1    1    2    0    0  0.60068659208E+01  0.35449084558E+02 -0.14284575497E+04  0.15734020140E+04  0.65864270000E+03 0.  1.
    8880022    1    1    2    0    0 -0.60068659208E+01 -0.35449084558E+02  0.16028383459E+03  0.22444438216E+03  0.15294330000E+03 0.  0.
<mgrwt>
<rscale>  0 0.46081304E+03</rscale>
<asrwt>0</asrwt>
<pdfrwt beam="1">  1        1 0.40744053E-01 0.65962332E+03</pdfrwt>
<pdfrwt beam="2">  1       -1 0.23584770E+00 0.65962332E+03</pdfrwt>
<totfact> 0.93191705E+00</totfact>
</mgrwt>
</event>
<event>
 4    2  0.4681349E-007  0.7024698E+03  0.7818608E-02  0.9987106E-01
          1   -1    0    0  501    0  0.00000000000E+00  0.00000000000E+00  0.65294292021E+03  0.65294292023E+03  0.50400000000E-02 0. -1.
         -1   -1    0    0    0  501 -0.00000000000E+00 -0.00000000000E+00 -0.38254065140E+03  0.38254065143E+03  0.50400000000E-02 0.  1.
    8880023    1    1    2    0    0 -0.27476559447E+02  0.24269033442E+03  0.12797192271E+03  0.71403121711E+03  0.65864270000E+03 0. -1.
    8880022    1    1    2    0    0  0.27476559447E+02 -0.24269033442E+03  0.14243034610E+03  0.32145235455E+03  0.15294330000E+03 0.  0.
<mgrwt>
<rscale>  0 0.56219250E+03</rscale>
<asrwt>0</asrwt>
<pdfrwt beam="1">  1        1 0.10045276E+00 0.70246976E+03</pdfrwt>
<pdfrwt beam="2">  1       -1 0.58852408E-01 0.70246976E+03</pdfrwt>
<totfact> 0.90518989E+01</totfact>
</mgrwt>
</event>
<event>
 4    2  0.4681349E-007  0.7272640E+03  0.7818608E-02  0.9898732E-01
         -1   -1    0    0    0  501 -0.00000000000E+00  0.00000000000E+00  0.45844462239E+03  0.45844462242E+03  0.50400000000E-02 0.  1.
          1   -1    0    0  501    0  0.00000000000E+00 -0.00000000000E+00 -0.13201881454E+04  0.13201881454E+04  0.50400000000E-02 0. -1.
    8880023    1    1    2    0    0  0.26703105926E+03  0.15426329958E+03  0.12107613151E+03  0.73727361820E+03  0.65864270000E+03 0.  1.
    8880022    1    1    2    0    0 -0.26703105926E+03 -0.15426329958E+03 -0.98281965450E+03  0.10413591496E+04  0.15294330000E+03 0.  0.
<mgrwt>
<rscale>  0 0.60322775E+03</rscale>
<asrwt>0</asrwt>
<pdfrwt beam="1">  1        1 0.20310587E+00 0.72726402E+03</pdfrwt>
<pdfrwt beam="2">  1       -1 0.70529942E-01 0.72726402E+03</pdfrwt>
<totfact> 0.18415914E+01</totfact>
</mgrwt>
</event>
<event>
 4    2  0.4870648E-007  0.7861951E+03  0.7818608E-02  0.9741481E-01
          1   -1    0    0  501    0  0.00000000000E+00  0.00000000000E+00  0.14038663374E+04  0.14038663374E+04  0.50400000000E-02 0. -1.
         -1   -1    0    0    0  501 -0.00000000000E+00 -0.00000000000E+00 -0.94875382021E+03  0.94875382023E+03  0.50400000000E-02 0.  1.
    8880023    1    1    2    0    0  0.36512148045E+03  0.22578480495E+03 -0.73622490621E+03  0.10770932144E+04  0.65864270000E+03 0.  0.
    8880022    1    1    2    0    0 -0.36512148045E+03 -0.22578480495E+03  0.11913374233E+04  0.12755269432E+04  0.15294330000E+03 0.  0.
<mgrwt>
<rscale>  0 0.68599847E+03</rscale>
<asrwt>0</asrwt>
<pdfrwt beam="1">  1        1 0.21597944E+00 0.78619506E+03</pdfrwt>
<pdfrwt beam="2">  1       -1 0.14596213E+00 0.78619506E+03</pdfrwt>
<totfact> 0.29724262E+00</totfact>
</mgrwt>
</event>
<event>
 4    2  0.4681349E-007  0.8174125E+03  0.7818608E-02  0.9674339E-01
          1   -1    0    0  501    0  0.00000000000E+00  0.00000000000E+00  0.10955031322E+04  0.10955031322E+04  0.50400000000E-02 0. -1.
         -1   -1    0    0    0  501 -0.00000000000E+00 -0.00000000000E+00 -0.55979491859E+03  0.55979491861E+03  0.50400000000E-02 0.  1.
    8880023    1    1    2    0    0 -0.23853851682E+03  0.42125104355E+03 -0.11983821619E+03  0.82615039189E+03  0.65864270000E+03 0.  0.
    8880022    1    1    2    0    0  0.23853851682E+03 -0.42125104355E+03  0.65554642983E+03  0.82914765897E+03  0.15294330000E+03 0.  0.
<mgrwt>
<rscale>  0 0.72565417E+03</rscale>
<asrwt>0</asrwt>
<pdfrwt beam="1">  1        1 0.16853894E+00 0.81741255E+03</pdfrwt>
<pdfrwt beam="2">  1       -1 0.86122296E-01 0.81741255E+03</pdfrwt>
<totfact> 0.17382523E+01</totfact>
</mgrwt>
</event>
<event>
 4    2  0.4681349E-007  0.6609010E+03  0.7818608E-02  0.1023252E+00
         -1   -1    0    0    0  501 -0.00000000000E+00  0.00000000000E+00  0.79183957511E+03  0.79183957512E+03  0.50400000000E-02 0.  1.
          1   -1    0    0  501    0  0.00000000000E+00 -0.00000000000E+00 -0.38515986551E+03  0.38515986554E+03  0.50400000000E-02 0. -1.
    8880023    1    1    2    0    0 -0.54251314531E+02  0.60644214908E+01  0.62182554777E+03  0.90744542561E+03  0.65864270000E+03 0.  1.
    8880022    1    1    2    0    0  0.54251314531E+02 -0.60644214908E+01 -0.21514583817E+03  0.26955401506E+03  0.15294330000E+03 0.  0.
<mgrwt>
<rscale>  0 0.46531222E+03</rscale>
<asrwt>0</asrwt>
<pdfrwt beam="1">  1        1 0.59255364E-01 0.66090104E+03</pdfrwt>
<pdfrwt beam="2">  1       -1 0.12182147E+00 0.66090104E+03</pdfrwt>
<totfact> 0.38787016E+01</totfact>
</mgrwt>
</event>
<event>
 4    2  0.4681349E-007  0.7165525E+03  0.7818608E-02  0.9934428E-01
          1   -1    0    0  501    0  0.00000000000E+00  0.00000000000E+00  0.86804675276E+03  0.86804675278E+03  0.50400000000E-02 0. -1.
         -1   -1    0    0    0  501 -0.00000000000E+00 -0.00000000000E+00 -0.56398831332E+03  0.56398831335E+03  0.50400000000E-02 0.  1.
    8880023    1    1    2    0    0  0.28110326629E+03  0.24864967886E+02 -0.27698780644E+03  0.76822507387E+03  0.65864270000E+03 0.  1.
    8880022    1    1    2    0    0 -0.28110326629E+03 -0.24864967886E+02  0.58104624588E+03  0.66380999225E+03  0.15294330000E+03 0.  0.
<mgrwt>
<rscale>  0 0.58621367E+03</rscale>
<asrwt>0</asrwt>
<pdfrwt beam="1">  1        1 0.13354565E+00 0.71655252E+03</pdfrwt>
<pdfrwt beam="2">  1       -1 0.86767432E-01 0.71655252E+03</pdfrwt>
<totfact> 0.26092889E+01</totfact>
</mgrwt>
</event>
<event>
 4    2  0.4681349E-007  0.7417824E+03  0.7818608E-02  0.9854785E-01
          1   -1    0    0  501    0  0.00000000000E+00  0.00000000000E+00  0.16988850955E+04  0.16988850955E+04  0.50400000000E-02 0. -1.
         -1   -1    0    0    0  501 -0.00000000000E+00 -0.00000000000E+00 -0.31227164901E+03  0.31227164905E+03  0.50400000000E-02 0.  1.
    8880023    1    1    2    0    0 -0.10865603020E+03 -0.32345749712E+03  0.20180649581E+03  0.76874375012E+03  0.65864270000E+03 0.  1.
    8880022    1    1    2    0    0  0.10865603020E+03  0.32345749712E+03  0.11848069507E+04  0.12424129945E+04  0.15294330000E+03 0.  0.
<mgrwt>
<rscale>  0 0.62503528E+03</rscale>
<asrwt>0</asrwt>
<pdfrwt beam="1">  1        1 0.26136693E+00 0.74178237E+03</pdfrwt>
<pdfrwt beam="2">  1       -1 0.48041793E-01 0.74178237E+03</pdfrwt>
<totfact> 0.21454063E+01</totfact>
</mgrwt>
</event>
<event>
 4    2  0.4681349E-007  0.7480002E+03  0.7818608E-02  0.9837227E-01
         -1   -1    0    0    0  501 -0.00000000000E+00  0.00000000000E+00  0.12244127568E+03  0.12244127578E+03  0.50400000000E-02 0.  1.
          1   -1    0    0  501    0  0.00000000000E+00 -0.00000000000E+00 -0.28270385408E+04  0.28270385408E+04  0.50400000000E-02 0. -1.
    8880023    1    1    2    0    0  0.11714501381E+03  0.33462085032E+03 -0.13791227871E+04  0.15689117043E+04  0.65864270000E+03 0.  1.
    8880022    1    1    2    0    0 -0.11714501381E+03 -0.33462085032E+03 -0.13254744780E+04  0.13805681123E+04  0.15294330000E+03 0.  1.
<mgrwt>
<rscale>  0 0.63402413E+03</rscale>
<asrwt>0</asrwt>
<pdfrwt beam="1">  1        1 0.43492896E+00 0.74800018E+03</pdfrwt>
<pdfrwt beam="2">  1       -1 0.18837121E-01 0.74800018E+03</pdfrwt>
<totfact> 0.19002041E+01</totfact>
</mgrwt>
</event>
<event>
 4    2  0.4681349E-007  0.8933231E+03  0.7818608E-02  0.9536836E-01
         -1   -1    0    0    0  501 -0.00000000000E+00  0.00000000000E+00  0.75432859951E+03  0.75432859952E+03  0.50400000000E-02 0.  1.
          1   -1    0    0  501    0  0.00000000000E+00 -0.00000000000E+00 -0.88950736115E+03  0.88950736116E+03  0.50400000000E-02 0. -1.
    8880023    1    1    2    0    0  0.27581271465E+03  0.53678975561E+03  0.22947224443E+03  0.92232511216E+03  0.65864270000E+03 0.  0.
    8880022    1    1    2    0    0 -0.27581271465E+03 -0.53678975561E+03 -0.36465100607E+03  0.72151084852E+03  0.15294330000E+03 0.  0.
<mgrwt>
<rscale>  0 0.81621663E+03</rscale>
<asrwt>0</asrwt>
<pdfrwt beam="1">  1        1 0.13684729E+00 0.89332307E+03</pdfrwt>
<pdfrwt beam="2">  1       -1 0.11605055E+00 0.89332307E+03</pdfrwt>
<totfact> 0.12629864E+01</totfact>
</mgrwt>
</event>
<event>
 4    2  0.4681349E-007  0.9487608E+03  0.7818608E-02  0.9451899E-01
          1   -1    0    0  501    0  0.00000000000E+00  0.00000000000E+00  0.12355226919E+04  0.12355226919E+04  0.50400000000E-02 0. -1.
         -1   -1    0    0    0  501 -0.00000000000E+00 -0.00000000000E+00 -0.10029919949E+04  0.10029919949E+04  0.50400000000E-02 0.  1.
    8880023    1    1    2    0    0 -0.27593528912E+03 -0.62465716578E+03 -0.62164195654E+03  0.11342776498E+04  0.65864270000E+03 0.  1.
    8880022    1    1    2    0    0  0.27593528912E+03  0.62465716578E+03  0.85417265355E+03  0.11042370369E+04  0.15294330000E+03 0.  0.
<mgrwt>
<rscale>  0 0.87924919E+03</rscale>
<asrwt>0</asrwt>
<pdfrwt beam="1">  1        1 0.19008041E+00 0.94876080E+03</pdfrwt>
<pdfrwt beam="2">  1       -1 0.15430646E+00 0.94876080E+03</pdfrwt>
<totfact> 0.32860887E+00</totfact>
</mgrwt>
</event>
<event>
 4    2  0.4681349E-007  0.8343991E+03  0.7818608E-02  0.9640833E-01
          1   -1    0    0  501    0  0.00000000000E+00  0.00000000000E+00  0.18750084658E+04  0.18750084658E+04  0.50400000000E-02 0. -1.
         -1   -1    0    0    0  501 -0.00000000000E+00 -0.00000000000E+00 -0.44876692431E+03  0.44876692434E+03  0.50400000000E-02 0.  1.
    8880023    1    1    2    0    0 -0.20879307148E+03 -0.46777895151E+03  0.36998299486E+02  0.83521899799E+03  0.65864270000E+03 0.  1.
    8880022    1    1    2    0    0  0.20879307148E+03  0.46777895151E+03  0.13892432420E+04  0.14885563921E+04  0.15294330000E+03 0.  0.
<mgrwt>
<rscale>  0 0.74651544E+03</rscale>
<asrwt>0</asrwt>
<pdfrwt beam="1">  1        1 0.28846284E+00 0.83439913E+03</pdfrwt>
<pdfrwt beam="2">  1       -1 0.69041066E-01 0.83439913E+03</pdfrwt>
<totfact> 0.79348855E+00</totfact>
</mgrwt>
</event>
<event>
 4    2  0.4681349E-007  0.8341693E+03  0.7818608E-02  0.9641274E-01
         -1   -1    0    0    0  501 -0.00000000000E+00  0.00000000000E+00  0.59170026619E+03  0.59170026621E+03  0.50400000000E-02 0.  1.
          1   -1    0    0  501    0  0.00000000000E+00 -0.00000000000E+00 -0.16609548921E+04  0.16609548922E+04  0.50400000000E-02 0. -1.
    8880023    1    1    2    0    0 -0.44520226451E+03 -0.25263233892E+03  0.21523744619E+03  0.86149028985E+03  0.65864270000E+03 0.  1.
    8880022    1    1    2    0    0  0.44520226451E+03  0.25263233892E+03 -0.12844920721E+04  0.13911648685E+04  0.15294330000E+03 0.  0.
<mgrwt>
<rscale>  0 0.74623592E+03</rscale>
<asrwt>0</asrwt>
<pdfrwt beam="1">  1        1 0.25553152E+00 0.83416926E+03</pdfrwt>
<pdfrwt beam="2">  1       -1 0.91030811E-01 0.83416926E+03</pdfrwt>
<totfact> 0.61467336E+00</totfact>
</mgrwt>
</event>
<event>
 4    2  0.4681349E-007  0.6868779E+03  0.7818608E-02  0.1005673E+00
         -1   -1    0    0    0  501 -0.00000000000E+00  0.00000000000E+00  0.10098743996E+04  0.10098743996E+04  0.50400000000E-02 0.  1.
          1   -1    0    0  501    0  0.00000000000E+00 -0.00000000000E+00 -0.35060404628E+03  0.35060404632E+03  0.50400000000E-02 0. -1.
    8880023    1    1    2    0    0 -0.14003320274E+03 -0.13557954251E+03  0.81653917788E+03  0.10670227483E+04  0.65864270000E+03 0.  0.
    8880022    1    1    2    0    0  0.14003320274E+03  0.13557954251E+03 -0.15726882460E+03  0.29345569755E+03  0.15294330000E+03 0.  0.
<mgrwt>
<rscale>  0 0.53231105E+03</rscale>
<asrwt>0</asrwt>
<pdfrwt beam="1">  1        1 0.53939084E-01 0.68687795E+03</pdfrwt>
<pdfrwt beam="2">  1       -1 0.15536529E+00 0.68687795E+03</pdfrwt>
<totfact> 0.23369974E+01</totfact>
</mgrwt>
</event>
<event>
 4    2  0.4681349E-007  0.1012663E+04  0.7818608E-02  0.9365174E-01
          1   -1    0    0  501    0  0.00000000000E+00  0.00000000000E+00  0.28724247260E+04  0.28724247260E+04  0.50400000000E-02 0. -1.
         -1   -1    0    0    0  501 -0.00000000000E+00 -0.00000000000E+00 -0.28651213169E+03  0.28651213173E+03  0.50400000000E-02 0.  1.
    8880023    1    1    2    0    0  0.76559449412E+03  0.74445824932E+02  0.12374029618E+04  0.15989538475E+04  0.65864270000E+03 0. -1.
    8880022    1    1    2    0    0 -0.76559449412E+03 -0.74445824932E+02  0.13485096325E+04  0.15599830102E+04  0.15294330000E+03 0.  0.
<mgrwt>
<rscale>  0 0.94997969E+03</rscale>
<asrwt>0</asrwt>
<pdfrwt beam="1">  1        1 0.44191147E+00 0.10126635E+04</pdfrwt>
<pdfrwt beam="2">  1       -1 0.44078792E-01 0.10126635E+04</pdfrwt>
<totfact> 0.38511249E+00</totfact>
</mgrwt>
</event>
<event>
 4    2  0.4681349E-007  0.6981408E+03  0.7818608E-02  0.1000500E+00
          1   -1    0    0  501    0  0.00000000000E+00  0.00000000000E+00  0.10736391325E+04  0.10736391325E+04  0.50400000000E-02 0. -1.
         -1   -1    0    0    0  501 -0.00000000000E+00 -0.00000000000E+00 -0.52255538562E+03  0.52255538564E+03  0.50400000000E-02 0.  1.
    8880023    1    1    2    0    0  0.13363252408E+03  0.18903108328E+03 -0.25534370796E+03  0.74337138591E+03  0.65864270000E+03 0.  1.
    8880022    1    1    2    0    0 -0.13363252408E+03 -0.18903108328E+03  0.80642745485E+03  0.85282313224E+03  0.15294330000E+03 0.  0.
<mgrwt>
<rscale>  0 0.55431415E+03</rscale>
<asrwt>0</asrwt>
<pdfrwt beam="1">  1        1 0.16517525E+00 0.69814082E+03</pdfrwt>
<pdfrwt beam="2">  1       -1 0.80393137E-01 0.69814082E+03</pdfrwt>
<totfact> 0.21236435E+01</totfact>
</mgrwt>
</event>
<event>
 4    2  0.4681349E-007  0.9974818E+03  0.7818608E-02  0.9384860E-01
          1   -1    0    0  501    0  0.00000000000E+00  0.00000000000E+00  0.14610514435E+04  0.14610514435E+04  0.50400000000E-02 0. -1.
         -1   -1    0    0    0  501 -0.00000000000E+00 -0.00000000000E+00 -0.81443470292E+03  0.81443470294E+03  0.50400000000E-02 0.  1.
    8880023    1    1    2    0    0  0.68882018554E+03  0.29442572400E+03  0.10182301752E+04  0.14253991199E+04  0.65864270000E+03 0.  0.
    8880022    1    1    2    0    0 -0.68882018554E+03 -0.29442572400E+03 -0.37161343463E+03  0.85008702659E+03  0.15294330000E+03 0.  0.
<mgrwt>
<rscale>  0 0.93332216E+03</rscale>
<asrwt>0</asrwt>
<pdfrwt beam="1">  1        1 0.22477714E+00 0.99748181E+03</pdfrwt>
<pdfrwt beam="2">  1       -1 0.12529765E+00 0.99748181E+03</pdfrwt>
<totfact> 0.38944884E+00</totfact>
</mgrwt>
</event>
<event>
 4    2  0.4681349E-007  0.8224542E+03  0.7818608E-02  0.9664196E-01
          1   -1    0    0  501    0  0.00000000000E+00  0.00000000000E+00  0.10110181507E+04  0.10110181507E+04  0.50400000000E-02 0. -1.
         -1   -1    0    0    0  501 -0.00000000000E+00 -0.00000000000E+00 -0.10919838742E+04  0.10919838742E+04  0.50400000000E-02 0.  1.
    8880023    1    1    2    0    0  0.87350093365E+02  0.48475840212E+03 -0.84629461182E+03  0.11801040308E+04  0.65864270000E+03 0.  0.
    8880022    1    1    2    0    0 -0.87350093365E+02 -0.48475840212E+03  0.76532888827E+03  0.92289799408E+03  0.15294330000E+03 0.  0.
<mgrwt>
<rscale>  0 0.73189122E+03</rscale>
<asrwt>0</asrwt>
<pdfrwt beam="1">  1        1 0.15554125E+00 0.82245423E+03</pdfrwt>
<pdfrwt beam="2">  1       -1 0.16799752E+00 0.82245423E+03</pdfrwt>
<totfact> 0.38778742E+00</totfact>
</mgrwt>
</event>
<event>
 4    2  0.4681349E-007  0.8738697E+03  0.7818608E-02  0.9569353E-01
         -1   -1    0    0    0  501 -0.00000000000E+00  0.00000000000E+00  0.20682287497E+03  0.20682287503E+03  0.50400000000E-02 0.  1.
          1   -1    0    0  501    0  0.00000000000E+00 -0.00000000000E+00 -0.34097575081E+04  0.34097575081E+04  0.50400000000E-02 0. -1.
    8880023    1    1    2    0    0  0.55939334233E+03 -0.13006621511E+03 -0.96856858427E+03  0.13045203871E+04  0.65864270000E+03 0.  0.
    8880022    1    1    2    0    0 -0.55939334233E+03  0.13006621511E+03 -0.22343660489E+04  0.23120599960E+04  0.15294330000E+03 0.  0.
<mgrwt>
<rscale>  0 0.79358270E+03</rscale>
<asrwt>0</asrwt>
<pdfrwt beam="1">  1        1 0.52457804E+00 0.87386975E+03</pdfrwt>
<pdfrwt beam="2">  1       -1 0.31818906E-01 0.87386975E+03</pdfrwt>
<totfact> 0.28558503E+00</totfact>
</mgrwt>
</event>
<event>
 4    2  0.4681349E-007  0.8189549E+03  0.7818608E-02  0.9671217E-01
         -1   -1    0    0    0  501 -0.00000000000E+00  0.00000000000E+00  0.66110787116E+03  0.66110787118E+03  0.50400000000E-02 0.  1.
          1   -1    0    0  501    0  0.00000000000E+00 -0.00000000000E+00 -0.11733142438E+04  0.11733142438E+04  0.50400000000E-02 0. -1.
    8880023    1    1    2    0    0 -0.33146650763E+03  0.35638025988E+03  0.30260737296E+03  0.87307408835E+03  0.65864270000E+03 0.  1.
    8880022    1    1    2    0    0  0.33146650763E+03 -0.35638025988E+03 -0.81481374561E+03  0.96134802666E+03  0.15294330000E+03 0.  0.
<mgrwt>
<rscale>  0 0.72756653E+03</rscale>
<asrwt>0</asrwt>
<pdfrwt beam="1">  1        1 0.18050988E+00 0.81895491E+03</pdfrwt>
<pdfrwt beam="2">  1       -1 0.10170890E+00 0.81895491E+03</pdfrwt>
<totfact> 0.10498947E+01</totfact>
</mgrwt>
</event>
<event>
 4    2  0.4681349E-007  0.7265500E+03  0.7818608E-02  0.9901016E-01
         -1   -1    0    0    0  501 -0.00000000000E+00  0.00000000000E+00  0.29764091846E+03  0.29764091850E+03  0.50400000000E-02 0.  1.
          1   -1    0    0  501    0  0.00000000000E+00 -0.00000000000E+00 -0.26152526618E+04  0.26152526618E+04  0.50400000000E-02 0. -1.
    8880023    1    1    2    0    0  0.30576091327E+03  0.23977359122E+02 -0.18071358873E+03  0.74868702223E+03  0.65864270000E+03 0.  0.
    8880022    1    1    2    0    0 -0.30576091327E+03 -0.23977359122E+02 -0.21368981546E+04  0.21642065581E+04  0.15294330000E+03 0. -1.
<mgrwt>
<rscale>  0 0.60212084E+03</rscale>
<asrwt>0</asrwt>
<pdfrwt beam="1">  1        1 0.40234655E+00 0.72654997E+03</pdfrwt>
<pdfrwt beam="2">  1       -1 0.45790912E-01 0.72654997E+03</pdfrwt>
<totfact> 0.56799076E+00</totfact>
</mgrwt>
</event>
<event>
 4    2  0.4681349E-007  0.7932789E+03  0.7818608E-02  0.9725521E-01
         -1   -1    0    0    0  501 -0.00000000000E+00  0.00000000000E+00  0.48140655178E+03  0.48140655181E+03  0.50400000000E-02 0.  1.
          1   -1    0    0  501    0  0.00000000000E+00 -0.00000000000E+00 -0.10575769192E+04  0.10575769193E+04  0.50400000000E-02 0. -1.
    8880023    1    1    2    0    0  0.18988665962E+03 -0.39927970060E+03  0.45045354722E+01  0.79329169913E+03  0.65864270000E+03 0.  1.
    8880022    1    1    2    0    0 -0.18988665962E+03  0.39927970060E+03 -0.58067490293E+03  0.74569177193E+03  0.15294330000E+03 0.  0.
<mgrwt>
<rscale>  0 0.69517385E+03</rscale>
<asrwt>0</asrwt>
<pdfrwt beam="1">  1        1 0.16270414E+00 0.79327891E+03</pdfrwt>
<pdfrwt beam="2">  1       -1 0.74062546E-01 0.79327891E+03</pdfrwt>
<totfact> 0.25651404E+01</totfact>
</mgrwt>
</event>
<event>
 4    2  0.4681349E-007  0.9516833E+03  0.7818608E-02  0.9447696E-01
         -1   -1    0    0    0  501 -0.00000000000E+00  0.00000000000E+00  0.97674815755E+03  0.97674815757E+03  0.50400000000E-02 0.  1.
          1   -1    0    0  501    0  0.00000000000E+00 -0.00000000000E+00 -0.13592269439E+04  0.13592269440E+04  0.50400000000E-02 0. -1.
    8880023    1    1    2    0    0 -0.35999023459E+03  0.58506225600E+03  0.60178932179E+03  0.11259890792E+04  0.65864270000E+03 0.  1.
    8880022    1    1    2    0    0  0.35999023459E+03 -0.58506225600E+03 -0.98426810818E+03  0.12099860223E+04  0.15294330000E+03 0.  0.
<mgrwt>
<rscale>  0 0.88252281E+03</rscale>
<asrwt>0</asrwt>
<pdfrwt beam="1">  1        1 0.20911184E+00 0.95168326E+03</pdfrwt>
<pdfrwt beam="2">  1       -1 0.15026895E+00 0.95168326E+03</pdfrwt>
<totfact> 0.28814817E+00</totfact>
</mgrwt>
</event>
<event>
 4    2  0.4681349E-007  0.7130864E+03  0.7818608E-02  0.9946714E-01
          1   -1    0    0  501    0  0.00000000000E+00  0.00000000000E+00  0.13230707058E+04  0.13230707058E+04  0.50400000000E-02 0. -1.
         -1   -1    0    0    0  501 -0.00000000000E+00 -0.00000000000E+00 -0.26113901323E+03  0.26113901328E+03  0.50400000000E-02 0.  1.
    8880023    1    1    2    0    0 -0.20834683811E+03 -0.17684324423E+03  0.32531641471E+03  0.78378754387E+03  0.65864270000E+03 0.  1.
    8880022    1    1    2    0    0  0.20834683811E+03  0.17684324423E+03  0.73661527784E+03  0.80042217520E+03  0.15294330000E+03 0. -1.
<mgrwt>
<rscale>  0 0.58049783E+03</rscale>
<asrwt>0</asrwt>
<pdfrwt beam="1">  1        1 0.20354934E+00 0.71308635E+03</pdfrwt>
<pdfrwt beam="2">  1       -1 0.40175233E-01 0.71308635E+03</pdfrwt>
<totfact> 0.54194436E+01</totfact>
</mgrwt>
</event>
<event>
 4    2  0.4681349E-007  0.7105675E+03  0.7818608E-02  0.9955900E-01
          1   -1    0    0  501    0  0.00000000000E+00  0.00000000000E+00  0.15248951526E+04  0.15248951526E+04  0.50400000000E-02 0. -1.
         -1   -1    0    0    0  501 -0.00000000000E+00 -0.00000000000E+00 -0.30889052242E+03  0.30889052247E+03  0.50400000000E-02 0.  1.
    8880023    1    1    2    0    0  0.23259544611E+03  0.13036588206E+03  0.15249807121E+03  0.72674739266E+03  0.65864270000E+03 0.  1.
    8880022    1    1    2    0    0 -0.23259544611E+03 -0.13036588206E+03  0.10635065590E+04  0.11070382824E+04  0.15294330000E+03 0.  0.
<mgrwt>
<rscale>  0 0.57626974E+03</rscale>
<asrwt>0</asrwt>
<pdfrwt beam="1">  1        1 0.23459925E+00 0.71056746E+03</pdfrwt>
<pdfrwt beam="2">  1       -1 0.47521619E-01 0.71056746E+03</pdfrwt>
<totfact> 0.28836512E+01</totfact>
</mgrwt>
</event>
<event>
 4    2  0.4681349E-007  0.7242312E+03  0.7818608E-02  0.9908521E-01
         -1   -1    0    0    0  501 -0.00000000000E+00  0.00000000000E+00  0.47002018905E+03  0.47002018907E+03  0.50400000000E-02 0.  1.
          1   -1    0    0  501    0  0.00000000000E+00 -0.00000000000E+00 -0.62771599445E+03  0.62771599447E+03  0.50400000000E-02 0. -1.
    8880023    1    1    2    0    0 -0.61622068988E+02 -0.29479382779E+03  0.17159016806E+01  0.72423327103E+03  0.65864270000E+03 0.  0.
    8880022    1    1    2    0    0  0.61622068988E+02  0.29479382779E+03 -0.15941170709E+03  0.37350291252E+03  0.15294330000E+03 0.  0.
<mgrwt>
<rscale>  0 0.59850116E+03</rscale>
<asrwt>0</asrwt>
<pdfrwt beam="1">  1        1 0.96571691E-01 0.72423124E+03</pdfrwt>
<pdfrwt beam="2">  1       -1 0.72310798E-01 0.72423124E+03</pdfrwt>
<totfact> 0.63285270E+01</totfact>
</mgrwt>
</event>
<event>
 4    2  0.4681349E-007  0.7316891E+03  0.7818608E-02  0.9884853E-01
          1   -1    0    0  501    0  0.00000000000E+00  0.00000000000E+00  0.61724801931E+03  0.61724801934E+03  0.50400000000E-02 0. -1.
         -1   -1    0    0    0  501 -0.00000000000E+00 -0.00000000000E+00 -0.24022456739E+04  0.24022456739E+04  0.50400000000E-02 0.  1.
    8880023    1    1    2    0    0  0.28307762607E+03  0.14637532231E+03 -0.22894455921E+04  0.24035244960E+04  0.65864270000E+03 0.  1.
    8880022    1    1    2    0    0 -0.28307762607E+03 -0.14637532231E+03  0.50444793748E+03  0.61596919729E+03  0.15294330000E+03 0.  0.
<mgrwt>
<rscale>  0 0.61001020E+03</rscale>
<asrwt>0</asrwt>
<pdfrwt beam="1">  1        1 0.94961235E-01 0.73168906E+03</pdfrwt>
<pdfrwt beam="2">  1       -1 0.36957625E+00 0.73168906E+03</pdfrwt>
<totfact> 0.40625241E-01</totfact>
</mgrwt>
</event>
<event>
 4    2  0.4681349E-007  0.6693505E+03  0.7818608E-02  0.1016133E+00
          1   -1    0    0  501    0  0.00000000000E+00  0.00000000000E+00  0.94790687288E+03  0.94790687290E+03  0.50400000000E-02 0. -1.
         -1   -1    0    0    0  501 -0.00000000000E+00 -0.00000000000E+00 -0.19737349431E+03  0.19737349438E+03  0.50400000000E-02 0.  1.
    8880023    1    1    2    0    0  0.41012566602E+02  0.11197242198E+03  0.55027011975E+03  0.86650289374E+03  0.65864270000E+03 0.  1.
    8880022    1    1    2    0    0 -0.41012566602E+02 -0.11197242198E+03  0.20026325882E+03  0.27877747354E+03  0.15294330000E+03 0. -1.
<mgrwt>
<rscale>  0 0.49108342E+03</rscale>
<asrwt>0</asrwt>
<pdfrwt beam="1">  1        1 0.14583182E+00 0.66935048E+03</pdfrwt>
<pdfrwt beam="2">  1       -1 0.30365153E-01 0.66935048E+03</pdfrwt>
<totfact> 0.16960922E+02</totfact>
</mgrwt>
</event>
<event>
 4    2  0.4681349E-007  0.7009301E+03  0.7818608E-02  0.9993364E-01
          1   -1    0    0  501    0  0.00000000000E+00  0.00000000000E+00  0.30459860034E+04  0.30459860034E+04  0.50400000000E-02 0. -1.
         -1   -1    0    0    0  501 -0.00000000000E+00 -0.00000000000E+00 -0.96207708467E+02  0.96207708599E+02  0.50400000000E-02 0.  1.
    8880023    1    1    2    0    0 -0.68280580704E+02 -0.22984904001E+03  0.13903202081E+04  0.15570142280E+04  0.65864270000E+03 0.  0.
    8880022    1    1    2    0    0  0.68280580704E+02  0.22984904001E+03  0.15594580868E+04  0.15851794839E+04  0.15294330000E+03 0.  0.
<mgrwt>
<rscale>  0 0.55942154E+03</rscale>
<asrwt>0</asrwt>
<pdfrwt beam="1">  1        1 0.46861317E+00 0.70093011E+03</pdfrwt>
<pdfrwt beam="2">  1       -1 0.14801188E-01 0.70093011E+03</pdfrwt>
<totfact> 0.19858315E+01</totfact>
</mgrwt>
</event>
<event>
 4    2  0.4681349E-007  0.1070241E+04  0.7818608E-02  0.9294936E-01
          1   -1    0    0  501    0  0.00000000000E+00  0.00000000000E+00  0.10528287322E+04  0.10528287322E+04  0.50400000000E-02 0. -1.
         -1   -1    0    0    0  501 -0.00000000000E+00 -0.00000000000E+00 -0.14345514606E+04  0.14345514606E+04  0.50400000000E-02 0.  1.
    8880023    1    1    2    0    0  0.84354523439E+03 -0.60229035053E+01 -0.97260633803E+03  0.14461597882E+04  0.65864270000E+03 0.  0.
    8880022    1    1    2    0    0 -0.84354523439E+03  0.60229035053E+01  0.59088360963E+03  0.10412204046E+04  0.15294330000E+03 0.  0.
<mgrwt>
<rscale>  0 0.10125040E+04</rscale>
<asrwt>0</asrwt>
<pdfrwt beam="1">  1        1 0.16197365E+00 0.10702406E+04</pdfrwt>
<pdfrwt beam="2">  1       -1 0.22070022E+00 0.10702406E+04</pdfrwt>
<totfact> 0.14937896E+00</totfact>
</mgrwt>
</event>
<event>
 4    2  0.4681349E-007  0.7298220E+03  0.7818608E-02  0.9890653E-01
          1   -1    0    0  501    0  0.00000000000E+00  0.00000000000E+00  0.95117503608E+03  0.95117503610E+03  0.50400000000E-02 0. -1.
         -1   -1    0    0    0  501 -0.00000000000E+00 -0.00000000000E+00 -0.72250684785E+03  0.72250684787E+03  0.50400000000E-02 0.  1.
    8880023    1    1    2    0    0  0.80161574573E+02 -0.30398047883E+03 -0.48686254484E+03  0.87731143466E+03  0.65864270000E+03 0.  1.
    8880022    1    1    2    0    0 -0.80161574573E+02  0.30398047883E+03  0.71553073307E+03  0.79637044931E+03  0.15294330000E+03 0.  0.
<mgrwt>
<rscale>  0 0.60716434E+03</rscale>
<asrwt>0</asrwt>
<pdfrwt beam="1">  1        1 0.14633462E+00 0.72982204E+03</pdfrwt>
<pdfrwt beam="2">  1       -1 0.11115490E+00 0.72982204E+03</pdfrwt>
<totfact> 0.12728513E+01</totfact>
</mgrwt>
</event>
<event>
 4    2  0.4681349E-007  0.7499369E+03  0.7818608E-02  0.9831893E-01
         -1   -1    0    0    0  501 -0.00000000000E+00  0.00000000000E+00  0.12253905909E+04  0.12253905910E+04  0.50400000000E-02 0.  1.
          1   -1    0    0  501    0  0.00000000000E+00 -0.00000000000E+00 -0.46953193659E+03  0.46953193662E+03  0.50400000000E-02 0. -1.
    8880023    1    1    2    0    0  0.83364922807E+02  0.34877701740E+03  0.98861415920E+03  0.12408719838E+04  0.65864270000E+03 0.  0.
    8880022    1    1    2    0    0 -0.83364922807E+02 -0.34877701740E+03 -0.23275550484E+03  0.45405054374E+03  0.15294330000E+03 0.  0.
<mgrwt>
<rscale>  0 0.63678710E+03</rscale>
<asrwt>0</asrwt>
<pdfrwt beam="1">  1        1 0.72235682E-01 0.74993688E+03</pdfrwt>
<pdfrwt beam="2">  1       -1 0.18852163E+00 0.74993688E+03</pdfrwt>
<totfact> 0.90232519E+00</totfact>
</mgrwt>
</event>
<event>
 4    2  0.4681349E-007  0.6897895E+03  0.7818608E-02  0.1004253E+00
         -1   -1    0    0    0  501 -0.00000000000E+00  0.00000000000E+00  0.20721033271E+03  0.20721033277E+03  0.50400000000E-02 0.  1.
          1   -1    0    0  501    0  0.00000000000E+00 -0.00000000000E+00 -0.14898758724E+04  0.14898758724E+04  0.50400000000E-02 0. -1.
    8880023    1    1    2    0    0  0.10300108437E+03 -0.17717262945E+03 -0.44407418229E+03  0.82037275043E+03  0.65864270000E+03 0.  1.
    8880022    1    1    2    0    0 -0.10300108437E+03  0.17717262945E+03 -0.83859135738E+03  0.87671345472E+03  0.15294330000E+03 0.  0.
<mgrwt>
<rscale>  0 0.53824153E+03</rscale>
<asrwt>0</asrwt>
<pdfrwt beam="1">  1        1 0.22921167E+00 0.68978951E+03</pdfrwt>
<pdfrwt beam="2">  1       -1 0.31878514E-01 0.68978951E+03</pdfrwt>
<totfact> 0.62936307E+01</totfact>
</mgrwt>
</event>
<event>
 4    2  0.4681349E-007  0.7505397E+03  0.7818608E-02  0.9830245E-01
         -1   -1    0    0    0  501 -0.00000000000E+00  0.00000000000E+00  0.21441150279E+03  0.21441150285E+03  0.50400000000E-02 0.  1.
          1   -1    0    0  501    0  0.00000000000E+00 -0.00000000000E+00 -0.23194558416E+04  0.23194558416E+04  0.50400000000E-02 0. -1.
    8880023    1    1    2    0    0  0.17354332791E+03 -0.31524966018E+03 -0.55019120422E+03  0.93060206445E+03  0.65864270000E+03 0.  1.
    8880022    1    1    2    0    0 -0.17354332791E+03  0.31524966018E+03 -0.15548531346E+04  0.16032652800E+04  0.15294330000E+03 0.  0.
<mgrwt>
<rscale>  0 0.63764373E+03</rscale>
<asrwt>0</asrwt>
<pdfrwt beam="1">  1        1 0.35683934E+00 0.75053970E+03</pdfrwt>
<pdfrwt beam="2">  1       -1 0.32986387E-01 0.75053970E+03</pdfrwt>
<totfact> 0.16297316E+01</totfact>
</mgrwt>
</event>
<event>
 4    2  0.4681349E-007  0.7231686E+03  0.7818608E-02  0.9912007E-01
         -1   -1    0    0    0  501 -0.00000000000E+00  0.00000000000E+00  0.45375375125E+03  0.45375375128E+03  0.50400000000E-02 0.  1.
          1   -1    0    0  501    0  0.00000000000E+00 -0.00000000000E+00 -0.81160978703E+03  0.81160978704E+03  0.50400000000E-02 0. -1.
    8880023    1    1    2    0    0 -0.13807515712E+03 -0.26476001614E+03  0.64427415034E+02  0.72603285961E+03  0.65864270000E+03 0.  0.
    8880022    1    1    2    0    0  0.13807515712E+03  0.26476001614E+03 -0.42228345081E+03  0.53933067871E+03  0.15294330000E+03 0.  0.
<mgrwt>
<rscale>  0 0.59682900E+03</rscale>
<asrwt>0</asrwt>
<pdfrwt beam="1">  1        1 0.12486304E+00 0.72316860E+03</pdfrwt>
<pdfrwt beam="2">  1       -1 0.69808270E-01 0.72316860E+03</pdfrwt>
<totfact> 0.45988275E+01</totfact>
</mgrwt>
</event>
<event>
 4    2  0.6362301E-007  0.6649896E+03  0.7818608E-02  0.1019542E+00
         -1   -1    0    0    0  501 -0.00000000000E+00  0.00000000000E+00  0.98542852701E+03  0.98542852703E+03  0.50400000000E-02 0.  1.
          1   -1    0    0  501    0  0.00000000000E+00 -0.00000000000E+00 -0.13929451005E+04  0.13929451005E+04  0.50400000000E-02 0. -1.
    8880023    1    1    2    0    0 -0.91024955752E+02  0.10745906301E+02  0.86632031428E+03  0.10921181760E+04  0.65864270000E+03 0.  1.
    8880022    1    1    2    0    0  0.91024955752E+02 -0.10745906301E+02 -0.12738368877E+04  0.12862554515E+04  0.15294330000E+03 0.  0.
<mgrwt>
<rscale>  0 0.47852214E+03</rscale>
<asrwt>0</asrwt>
<pdfrwt beam="1">  1        1 0.21429925E+00 0.66498964E+03</pdfrwt>
<pdfrwt beam="2">  1       -1 0.15160439E+00 0.66498964E+03</pdfrwt>
<totfact> 0.27953217E+00</totfact>
</mgrwt>
</event>
<event>
 4    2  0.4681349E-007  0.9835269E+03  0.7818608E-02  0.9403434E-01
         -1   -1    0    0    0  501 -0.00000000000E+00  0.00000000000E+00  0.78598368295E+03  0.78598368296E+03  0.50400000000E-02 0.  1.
          1   -1    0    0  501    0  0.00000000000E+00 -0.00000000000E+00 -0.11196870409E+04  0.11196870409E+04  0.50400000000E-02 0. -1.
    8880023    1    1    2    0    0  0.70038815239E+03  0.20729534530E+03  0.17977143225E+03  0.99982143321E+03  0.65864270000E+03 0. -1.
    8880022    1    1    2    0    0 -0.70038815239E+03 -0.20729534530E+03 -0.51347479019E+03  0.90584929065E+03  0.15294330000E+03 0.  0.
<mgrwt>
<rscale>  0 0.91793614E+03</rscale>
<asrwt>0</asrwt>
<pdfrwt beam="1">  1        1 0.17225954E+00 0.98352688E+03</pdfrwt>
<pdfrwt beam="2">  1       -1 0.12092057E+00 0.98352688E+03</pdfrwt>
<totfact> 0.74804193E+00</totfact>
</mgrwt>
</event>
<event>
 4    2  0.4681349E-007  0.6696435E+03  0.7818608E-02  0.1015920E+00
          1   -1    0    0  501    0  0.00000000000E+00  0.00000000000E+00  0.23441907852E+04  0.23441907853E+04  0.50400000000E-02 0. -1.
         -1   -1    0    0    0  501 -0.00000000000E+00 -0.00000000000E+00 -0.80984432755E+02  0.80984432912E+02  0.50400000000E-02 0.  1.
    8880023    1    1    2    0    0 -0.52678619880E+02 -0.10879872053E+03  0.16161342868E+04  0.17493748706E+04  0.65864270000E+03 0.  1.
    8880022    1    1    2    0    0  0.52678619880E+02  0.10879872053E+03  0.64707206569E+03  0.67580034758E+03  0.15294330000E+03 0. -1.
<mgrwt>
<rscale>  0 0.49188229E+03</rscale>
<asrwt>0</asrwt>
<pdfrwt beam="1">  1        1 0.36064469E+00 0.66964349E+03</pdfrwt>
<pdfrwt beam="2">  1       -1 0.12459145E-01 0.66964349E+03</pdfrwt>
<totfact> 0.80826088E+01</totfact>
</mgrwt>
</event>
<event>
 4    2  0.4681349E-007  0.7713356E+03  0.7818608E-02  0.9776598E-01
         -1   -1    0    0    0  501 -0.00000000000E+00  0.00000000000E+00  0.95428307740E+03  0.95428307741E+03  0.50400000000E-02 0.  1.
          1   -1    0    0  501    0  0.00000000000E+00 -0.00000000000E+00 -0.11002719401E+04  0.11002719401E+04  0.50400000000E-02 0. -1.
    8880023    1    1    2    0    0  0.12079782336E+03 -0.38282670582E+03  0.74063397258E+03  0.10693443264E+04  0.65864270000E+03 0.  1.
    8880022    1    1    2    0    0 -0.12079782336E+03  0.38282670582E+03 -0.88662283529E+03  0.98521069112E+03  0.15294330000E+03 0.  0.
<mgrwt>
<rscale>  0 0.66633690E+03</rscale>
<asrwt>0</asrwt>
<pdfrwt beam="1">  1        1 0.16927261E+00 0.77133560E+03</pdfrwt>
<pdfrwt beam="2">  1       -1 0.14681278E+00 0.77133560E+03</pdfrwt>
<totfact> 0.48438731E+00</totfact>
</mgrwt>
</event>
<event>
 4    2  0.4681349E-007  0.9006885E+03  0.7818608E-02  0.9524927E-01
         -1   -1    0    0    0  501 -0.00000000000E+00  0.00000000000E+00  0.88530897619E+03  0.88530897620E+03  0.50400000000E-02 0.  1.
          1   -1    0    0  501    0  0.00000000000E+00 -0.00000000000E+00 -0.77824578635E+03  0.77824578637E+03  0.50400000000E-02 0. -1.
    8880023    1    1    2    0    0 -0.24544605912E+03 -0.56319256418E+03  0.37558312378E+03  0.97585988821E+03  0.65864270000E+03 0.  0.
    8880022    1    1    2    0    0  0.24544605912E+03  0.56319256418E+03 -0.26851993395E+03  0.68769487436E+03  0.15294330000E+03 0.  0.
<mgrwt>
<rscale>  0 0.82470727E+03</rscale>
<asrwt>0</asrwt>
<pdfrwt beam="1">  1        1 0.11973012E+00 0.90068854E+03</pdfrwt>
<pdfrwt beam="2">  1       -1 0.13620138E+00 0.90068854E+03</pdfrwt>
<totfact> 0.10532994E+01</totfact>
</mgrwt>
</event>
<event>
 4    2  0.4681349E-007  0.6616309E+03  0.7818608E-02  0.1022544E+00
         -1   -1    0    0    0  501 -0.00000000000E+00  0.00000000000E+00  0.35442617897E+03  0.35442617901E+03  0.50400000000E-02 0.  1.
          1   -1    0    0  501    0  0.00000000000E+00 -0.00000000000E+00 -0.49895763507E+03  0.49895763509E+03  0.50400000000E-02 0. -1.
    8880023    1    1    2    0    0 -0.55030301918E+02  0.30281384860E+02 -0.51411578606E+02  0.66362538610E+03  0.65864270000E+03 0.  0.
    8880022    1    1    2    0    0  0.55030301918E+02 -0.30281384860E+02 -0.93119877490E+02  0.18975842800E+03  0.15294330000E+03 0.  0.
<mgrwt>
<rscale>  0 0.46779504E+03</rscale>
<asrwt>0</asrwt>
<pdfrwt beam="1">  1        1 0.76762713E-01 0.66163094E+03</pdfrwt>
<pdfrwt beam="2">  1       -1 0.54527105E-01 0.66163094E+03</pdfrwt>
<totfact> 0.15413196E+02</totfact>
</mgrwt>
</event>
<event>
 4    2  0.4681349E-007  0.9215929E+03  0.7818608E-02  0.9492221E-01
          1   -1    0    0  501    0  0.00000000000E+00  0.00000000000E+00  0.24704328171E+04  0.24704328171E+04  0.50400000000E-02 0. -1.
         -1   -1    0    0    0  501 -0.00000000000E+00 -0.00000000000E+00 -0.40272232438E+03  0.40272232441E+03  0.50400000000E-02 0.  1.
    8880023    1    1    2    0    0 -0.33606782524E+03 -0.55007417422E+03  0.27469790814E+03  0.96166123313E+03  0.65864270000E+03 0.  1.
    8880022    1    1    2    0    0  0.33606782524E+03  0.55007417422E+03  0.17930125846E+04  0.19114939084E+04  0.15294330000E+03 0. -1.
<mgrwt>
<rscale>  0 0.84859771E+03</rscale>
<asrwt>0</asrwt>
<pdfrwt beam="1">  1        1 0.38006659E+00 0.92159285E+03</pdfrwt>
<pdfrwt beam="2">  1       -1 0.61957280E-01 0.92159285E+03</pdfrwt>
<totfact> 0.38645218E+00</totfact>
</mgrwt>
</event>
<event>
 4    2  0.4681349E-007  0.6784501E+03  0.7818608E-02  0.1010214E+00
         -1   -1    0    0    0  501 -0.00000000000E+00  0.00000000000E+00  0.15968744191E+03  0.15968744199E+03  0.50400000000E-02 0.  1.
          1   -1    0    0  501    0  0.00000000000E+00 -0.00000000000E+00 -0.14670701314E+04  0.14670701314E+04  0.50400000000E-02 0. -1.
    8880023    1    1    2    0    0 -0.16218631876E+03 -0.13414826122E+02 -0.67897275004E+03  0.95984298774E+03  0.65864270000E+03 0.  1.
    8880022    1    1    2    0    0  0.16218631876E+03  0.13414826122E+02 -0.62840993940E+03  0.66691458562E+03  0.15294330000E+03 0.  0.
<mgrwt>
<rscale>  0 0.51389561E+03</rscale>
<asrwt>0</asrwt>
<pdfrwt beam="1">  1        1 0.22570309E+00 0.67845012E+03</pdfrwt>
<pdfrwt beam="2">  1       -1 0.24567300E-01 0.67845012E+03</pdfrwt>
<totfact> 0.10240095E+02</totfact>
</mgrwt>
</event>
<event>
 4    2  0.4681349E-007  0.7725953E+03  0.7818608E-02  0.9773527E-01
          1   -1    0    0  501    0  0.00000000000E+00  0.00000000000E+00  0.25047657114E+04  0.25047657114E+04  0.50400000000E-02 0. -1.
         -1   -1    0    0    0  501 -0.00000000000E+00 -0.00000000000E+00 -0.16942471613E+03  0.16942471620E+03  0.50400000000E-02 0.  1.
    8880023    1    1    2    0    0  0.35328538054E+03  0.19565960854E+03  0.95788421079E+03  0.12306281364E+04  0.65864270000E+03 0.  1.
    8880022    1    1    2    0    0 -0.35328538054E+03 -0.19565960854E+03  0.13774567844E+04  0.14435622912E+04  0.15294330000E+03 0.  0.
<mgrwt>
<rscale>  0 0.66802773E+03</rscale>
<asrwt>0</asrwt>
<pdfrwt beam="1">  1        1 0.38534856E+00 0.77259527E+03</pdfrwt>
<pdfrwt beam="2">  1       -1 0.26065342E-01 0.77259527E+03</pdfrwt>
<totfact> 0.18314940E+01</totfact>
</mgrwt>
</event>
<event>
 4    2  0.4681349E-007  0.7021693E+03  0.7818608E-02  0.9988318E-01
         -1   -1    0    0    0  501 -0.00000000000E+00  0.00000000000E+00  0.54759737090E+03  0.54759737093E+03  0.50400000000E-02 0.  1.
          1   -1    0    0  501    0  0.00000000000E+00 -0.00000000000E+00 -0.56990591129E+03  0.56990591132E+03  0.50400000000E-02 0. -1.
    8880023    1    1    2    0    0 -0.91590818314E+02 -0.22548321303E+03  0.22601809669E+03  0.73764892981E+03  0.65864270000E+03 0.  0.
    8880022    1    1    2    0    0  0.91590818314E+02  0.22548321303E+03 -0.24832663709E+03  0.37985435243E+03  0.15294330000E+03 0.  0.
<mgrwt>
<rscale>  0 0.56165438E+03</rscale>
<asrwt>0</asrwt>
<pdfrwt beam="1">  1        1 0.87677833E-01 0.70216933E+03</pdfrwt>
<pdfrwt beam="2">  1       -1 0.84245749E-01 0.70216933E+03</pdfrwt>
<totfact> 0.52800125E+01</totfact>
</mgrwt>
</event>
<event>
 4    2  0.4891352E-007  0.6734692E+03  0.7818608E-02  0.1013289E+00
          1   -1    0    0  501    0  0.00000000000E+00  0.00000000000E+00  0.10870230822E+04  0.10870230822E+04  0.50400000000E-02 0. -1.
         -1   -1    0    0    0  501 -0.00000000000E+00 -0.00000000000E+00 -0.12862317812E+04  0.12862317812E+04  0.50400000000E-02 0.  1.
    8880023    1    1    2    0    0 -0.80402429931E+02 -0.11526499561E+03 -0.11865221148E+04  0.13643296907E+04  0.65864270000E+03 0.  1.
    8880022    1    1    2    0    0  0.80402429931E+02  0.11526499561E+03  0.98731341578E+03  0.10089251726E+04  0.15294330000E+03 0.  0.
<mgrwt>
<rscale>  0 0.50188143E+03</rscale>
<asrwt>0</asrwt>
<pdfrwt beam="1">  1        1 0.16723432E+00 0.67346921E+03</pdfrwt>
<pdfrwt beam="2">  1       -1 0.19788181E+00 0.67346921E+03</pdfrwt>
<totfact> 0.21383925E+00</totfact>
</mgrwt>
</event>
<event>
 4    2  0.4681349E-007  0.7057601E+03  0.7818608E-02  0.9974096E-01
          1   -1    0    0  501    0  0.00000000000E+00  0.00000000000E+00  0.23564876396E+04  0.23564876396E+04  0.50400000000E-02 0. -1.
         -1   -1    0    0    0  501 -0.00000000000E+00 -0.00000000000E+00 -0.24801050599E+03  0.24801050604E+03  0.50400000000E-02 0.  1.
    8880023    1    1    2    0    0 -0.11161970742E+03 -0.22765800935E+03  0.29156356371E+03  0.76361419988E+03  0.65864270000E+03 0.  1.
    8880022    1    1    2    0    0  0.11161970742E+03  0.22765800935E+03  0.18169135699E+04  0.18408839458E+04  0.15294330000E+03 0.  0.
<mgrwt>
<rscale>  0 0.56800825E+03</rscale>
<asrwt>0</asrwt>
<pdfrwt beam="1">  1        1 0.36253656E+00 0.70576011E+03</pdfrwt>
<pdfrwt beam="2">  1       -1 0.38155462E-01 0.70576011E+03</pdfrwt>
<totfact> 0.11950884E+01</totfact>
</mgrwt>
</event>
<event>
 4    2  0.4681349E-007  0.8697975E+03  0.7818608E-02  0.9576368E-01
          1   -1    0    0  501    0  0.00000000000E+00  0.00000000000E+00  0.41457903040E+04  0.41457903040E+04  0.50400000000E-02 0. -1.
         -1   -1    0    0    0  501 -0.00000000000E+00 -0.00000000000E+00 -0.24476520279E+03  0.24476520284E+03  0.50400000000E-02 0.  1.
    8880023    1    1    2    0    0  0.56670292188E+03 -0.39815322398E+02  0.64770574278E+03  0.10844677944E+04  0.65864270000E+03 0.  0.
    8880022    1    1    2    0    0 -0.56670292188E+03  0.39815322398E+02  0.32533193584E+04  0.33060877125E+04  0.15294330000E+03 0.  0.
<mgrwt>
<rscale>  0 0.78880268E+03</rscale>
<asrwt>0</asrwt>
<pdfrwt beam="1">  1        1 0.63781388E+00 0.86979749E+03</pdfrwt>
<pdfrwt beam="2">  1       -1 0.37656186E-01 0.86979749E+03</pdfrwt>
<totfact> 0.52373508E-01</totfact>
</mgrwt>
</event>
<event>
 4    2  0.4681349E-007  0.7690026E+03  0.7818608E-02  0.9782334E-01
         -1   -1    0    0    0  501 -0.00000000000E+00  0.00000000000E+00  0.28263691380E+03  0.28263691384E+03  0.50400000000E-02 0.  1.
          1   -1    0    0  501    0  0.00000000000E+00 -0.00000000000E+00 -0.14456901416E+04  0.14456901416E+04  0.50400000000E-02 0. -1.
    8880023    1    1    2    0    0 -0.39475232470E+03  0.41537953206E+02 -0.43070587303E+03  0.88140374105E+03  0.65864270000E+03 0. -1.
    8880022    1    1    2    0    0  0.39475232470E+03 -0.41537953206E+02 -0.73234735473E+03  0.84692331436E+03  0.15294330000E+03 0.  0.
<mgrwt>
<rscale>  0 0.66319252E+03</rscale>
<asrwt>0</asrwt>
<pdfrwt beam="1">  1        1 0.22241386E+00 0.76900260E+03</pdfrwt>
<pdfrwt beam="2">  1       -1 0.43482603E-01 0.76900260E+03</pdfrwt>
<totfact> 0.38279408E+01</totfact>
</mgrwt>
</event>
<event>
 4    2  0.4681349E-007  0.6632651E+03  0.7818608E-02  0.1021036E+00
          1   -1    0    0  501    0  0.00000000000E+00  0.00000000000E+00  0.62646574364E+03  0.62646574366E+03  0.50400000000E-02 0. -1.
         -1   -1    0    0    0  501 -0.00000000000E+00 -0.00000000000E+00 -0.77472818054E+03  0.77472818055E+03  0.50400000000E-02 0.  1.
    8880023    1    1    2    0    0 -0.38714320422E+02  0.67908395916E+02 -0.61459280201E+03  0.90423717430E+03  0.65864270000E+03 0.  1.
    8880022    1    1    2    0    0  0.38714320422E+02 -0.67908395916E+02  0.46633036512E+03  0.49695674992E+03  0.15294330000E+03 0.  0.
<mgrwt>
<rscale>  0 0.47314775E+03</rscale>
<asrwt>0</asrwt>
<pdfrwt beam="1">  1        1 0.96379345E-01 0.66326507E+03</pdfrwt>
<pdfrwt beam="2">  1       -1 0.11918895E+00 0.66326507E+03</pdfrwt>
<totfact> 0.20987489E+01</totfact>
</mgrwt>
</event>
<event>
 4    2  0.4681349E-007  0.6881846E+03  0.7818608E-02  0.1005028E+00
          1   -1    0    0  501    0  0.00000000000E+00  0.00000000000E+00  0.18451489919E+04  0.18451489919E+04  0.50400000000E-02 0. -1.
         -1   -1    0    0    0  501 -0.00000000000E+00 -0.00000000000E+00 -0.10597116696E+04  0.10597116696E+04  0.50400000000E-02 0.  1.
    8880023    1    1    2    0    0  0.11321272931E+03 -0.16422781157E+03 -0.93789696120E+03  0.11632922300E+04  0.65864270000E+03 0.  1.
    8880022    1    1    2    0    0 -0.11321272931E+03  0.16422781157E+03  0.17233342835E+04  0.17415684316E+04  0.15294330000E+03 0.  0.
<mgrwt>
<rscale>  0 0.53499632E+03</rscale>
<asrwt>0</asrwt>
<pdfrwt beam="1">  1        1 0.28386907E+00 0.68818464E+03</pdfrwt>
<pdfrwt beam="2">  1       -1 0.16303257E+00 0.68818464E+03</pdfrwt>
<totfact> 0.11262858E+00</totfact>
</mgrwt>
</event>
<event>
 4    2  0.4681349E-007  0.8430705E+03  0.7818608E-02  0.9624418E-01
         -1   -1    0    0    0  501 -0.00000000000E+00  0.00000000000E+00  0.24675551648E+03  0.24675551653E+03  0.50400000000E-02 0.  1.
          1   -1    0    0  501    0  0.00000000000E+00 -0.00000000000E+00 -0.21520983835E+04  0.21520983835E+04  0.50400000000E-02 0. -1.
    8880023    1    1    2    0    0  0.51890039536E+03  0.87749646921E+02 -0.78639410949E+03  0.11529022173E+04  0.65864270000E+03 0.  0.
    8880022    1    1    2    0    0 -0.51890039536E+03 -0.87749646921E+02 -0.11189487576E+04  0.12459516828E+04  0.15294330000E+03 0.  0.
<mgrwt>
<rscale>  0 0.75700933E+03</rscale>
<asrwt>0</asrwt>
<pdfrwt beam="1">  1        1 0.33109205E+00 0.84307048E+03</pdfrwt>
<pdfrwt beam="2">  1       -1 0.37962389E-01 0.84307048E+03</pdfrwt>
<totfact> 0.16226633E+01</totfact>
</mgrwt>
</event>
<event>
 4    2  0.4681349E-007  0.8613817E+03  0.7818608E-02  0.9591110E-01
         -1   -1    0    0    0  501 -0.00000000000E+00  0.00000000000E+00  0.22488954294E+04  0.22488954294E+04  0.50400000000E-02 0.  1.
          1   -1    0    0  501    0  0.00000000000E+00 -0.00000000000E+00 -0.51686156054E+03  0.51686156056E+03  0.50400000000E-02 0. -1.
    8880023    1    1    2    0    0  0.49325575485E+03 -0.25468998790E+03  0.19642983655E+04  0.21448651483E+04  0.65864270000E+03 0.  1.
    8880022    1    1    2    0    0 -0.49325575485E+03  0.25468998790E+03 -0.23226449661E+03  0.62089184165E+03  0.15294330000E+03 0.  0.
<mgrwt>
<rscale>  0 0.77887359E+03</rscale>
<asrwt>0</asrwt>
<pdfrwt beam="1">  1        1 0.79517164E-01 0.86138170E+03</pdfrwt>
<pdfrwt beam="2">  1       -1 0.34598391E+00 0.86138170E+03</pdfrwt>
<totfact> 0.72897440E-01</totfact>
</mgrwt>
</event>
<event>
 4    2  0.4681349E-007  0.7296268E+03  0.7818608E-02  0.9891264E-01
          1   -1    0    0  501    0  0.00000000000E+00  0.00000000000E+00  0.13911368315E+04  0.13911368315E+04  0.50400000000E-02 0. -1.
         -1   -1    0    0    0  501 -0.00000000000E+00 -0.00000000000E+00 -0.21011202752E+03  0.21011202758E+03  0.50400000000E-02 0.  1.
    8880023    1    1    2    0    0 -0.31386028225E+03 -0.60639201434E+01  0.84836960325E+03  0.11189665937E+04  0.65864270000E+03 0. -1.
    8880022    1    1    2    0    0  0.31386028225E+03  0.60639201434E+01  0.33265520076E+03  0.48228226539E+03  0.15294330000E+03 0.  1.
<mgrwt>
<rscale>  0 0.60686541E+03</rscale>
<asrwt>0</asrwt>
<pdfrwt beam="1">  1        1 0.21402104E+00 0.72962679E+03</pdfrwt>
<pdfrwt beam="2">  1       -1 0.32324928E-01 0.72962679E+03</pdfrwt>
<totfact> 0.71529794E+01</totfact>
</mgrwt>
</event>
<event>
 4    2  0.4681349E-007  0.7838475E+03  0.7818608E-02  0.9746875E-01
          1   -1    0    0  501    0  0.00000000000E+00  0.00000000000E+00  0.66999817015E+03  0.66999817017E+03  0.50400000000E-02 0. -1.
         -1   -1    0    0    0  501 -0.00000000000E+00 -0.00000000000E+00 -0.16034132608E+04  0.16034132608E+04  0.50400000000E-02 0.  1.
    8880023    1    1    2    0    0 -0.58126718311E+02 -0.42098457382E+03 -0.14122323045E+04  0.16151832760E+04  0.65864270000E+03 0.  1.
    8880022    1    1    2    0    0  0.58126718311E+02  0.42098457382E+03  0.47881721385E+03  0.65822815503E+03  0.15294330000E+03 0.  0.
<mgrwt>
<rscale>  0 0.68293132E+03</rscale>
<asrwt>0</asrwt>
<pdfrwt beam="1">  1        1 0.10307664E+00 0.78384752E+03</pdfrwt>
<pdfrwt beam="2">  1       -1 0.24667896E+00 0.78384752E+03</pdfrwt>
<totfact> 0.22172362E+00</totfact>
</mgrwt>
</event>
<event>
 4    2  0.4681349E-007  0.8718881E+03  0.7818608E-02  0.9572757E-01
          1   -1    0    0  501    0  0.00000000000E+00  0.00000000000E+00  0.29280572147E+04  0.29280572147E+04  0.50400000000E-02 0. -1.
         -1   -1    0    0    0  501 -0.00000000000E+00 -0.00000000000E+00 -0.27656892509E+03  0.27656892513E+03  0.50400000000E-02 0.  1.
    8880023    1    1    2    0    0  0.46712470665E+03  0.32889690657E+03  0.57223918405E+03  0.10429029469E+04  0.65864270000E+03 0.  0.
    8880022    1    1    2    0    0 -0.46712470665E+03 -0.32889690657E+03  0.20792491055E+04  0.21617231929E+04  0.15294330000E+03 0.  0.
<mgrwt>
<rscale>  0 0.79125858E+03</rscale>
<asrwt>0</asrwt>
<pdfrwt beam="1">  1        1 0.45047033E+00 0.87188811E+03</pdfrwt>
<pdfrwt beam="2">  1       -1 0.42549067E-01 0.87188811E+03</pdfrwt>
<totfact> 0.38323648E+00</totfact>
</mgrwt>
</event>
<event>
 4    2  0.4681349E-007  0.7400757E+03  0.7818608E-02  0.9859727E-01
          1   -1    0    0  501    0  0.00000000000E+00  0.00000000000E+00  0.17888118717E+04  0.17888118717E+04  0.50400000000E-02 0. -1.
         -1   -1    0    0    0  501 -0.00000000000E+00 -0.00000000000E+00 -0.20499873172E+03  0.20499873178E+03  0.50400000000E-02 0.  1.
    8880023    1    1    2    0    0  0.32309530774E+03  0.97526003896E+02  0.63480910480E+03  0.97503574556E+03  0.65864270000E+03 0.  1.
    8880022    1    1    2    0    0 -0.32309530774E+03 -0.97526003896E+02  0.94900403517E+03  0.10187748579E+04  0.15294330000E+03 0.  0.
<mgrwt>
<rscale>  0 0.62253446E+03</rscale>
<asrwt>0</asrwt>
<pdfrwt beam="1">  1        1 0.27520182E+00 0.74007574E+03</pdfrwt>
<pdfrwt beam="2">  1       -1 0.31538267E-01 0.74007574E+03</pdfrwt>
<totfact> 0.40046632E+01</totfact>
</mgrwt>
</event>
<event>
 4    2  0.4681349E-007  0.7533697E+03  0.7818608E-02  0.9822585E-01
          1   -1    0    0  501    0  0.00000000000E+00  0.00000000000E+00  0.29791804458E+04  0.29791804458E+04  0.50400000000E-02 0. -1.
         -1   -1    0    0    0  501 -0.00000000000E+00 -0.00000000000E+00 -0.25357519101E+03  0.25357519106E+03  0.50400000000E-02 0.  1.
    8880023    1    1    2    0    0 -0.31085493123E+03 -0.19267840270E+03  0.36144188084E+03  0.83558733513E+03  0.65864270000E+03 0.  1.
    8880022    1    1    2    0    0  0.31085493123E+03  0.19267840270E+03  0.23641633739E+04  0.23971683017E+04  0.15294330000E+03 0.  0.
<mgrwt>
<rscale>  0 0.64164458E+03</rscale>
<asrwt>0</asrwt>
<pdfrwt beam="1">  1        1 0.45833545E+00 0.75336974E+03</pdfrwt>
<pdfrwt beam="2">  1       -1 0.39011568E-01 0.75336974E+03</pdfrwt>
<totfact> 0.42156107E+00</totfact>
</mgrwt>
</event>
<event>
 4    2  0.4681349E-007  0.9539345E+03  0.7818608E-02  0.9444476E-01
         -1   -1    0    0    0  501 -0.00000000000E+00  0.00000000000E+00  0.71030336217E+03  0.71030336218E+03  0.50400000000E-02 0.  1.
          1   -1    0    0  501    0  0.00000000000E+00 -0.00000000000E+00 -0.23641125786E+04  0.23641125786E+04  0.50400000000E-02 0. -1.
    8880023    1    1    2    0    0  0.94693348969E+02  0.68353050111E+03  0.29733271249E+03  0.99919854107E+03  0.65864270000E+03 0.  1.
    8880022    1    1    2    0    0 -0.94693348969E+02 -0.68353050111E+03 -0.19511419289E+04  0.20752173997E+04  0.15294330000E+03 0.  0.
<mgrwt>
<rscale>  0 0.88504166E+03</rscale>
<asrwt>0</asrwt>
<pdfrwt beam="1">  1        1 0.36370962E+00 0.95393447E+03</pdfrwt>
<pdfrwt beam="2">  1       -1 0.10927744E+00 0.95393447E+03</pdfrwt>
<totfact> 0.13347015E+00</totfact>
</mgrwt>
</event>
<event>
 4    2  0.4681349E-007  0.7421548E+03  0.7818608E-02  0.9853714E-01
          1   -1    0    0  501    0  0.00000000000E+00  0.00000000000E+00  0.37466691069E+03  0.37466691073E+03  0.50400000000E-02 0. -1.
         -1   -1    0    0    0  501 -0.00000000000E+00 -0.00000000000E+00 -0.15837010158E+04  0.15837010158E+04  0.50400000000E-02 0.  1.
    8880023    1    1    2    0    0  0.31770371556E+03 -0.12668042437E+03 -0.13640675426E+04  0.15528921559E+04  0.65864270000E+03 0.  1.
    8880022    1    1    2    0    0 -0.31770371556E+03  0.12668042437E+03  0.15503343751E+03  0.40547577062E+03  0.15294330000E+03 0.  0.
<mgrwt>
<rscale>  0 0.62557905E+03</rscale>
<asrwt>0</asrwt>
<pdfrwt beam="1">  1        1 0.57641064E-01 0.74215483E+03</pdfrwt>
<pdfrwt beam="2">  1       -1 0.24364631E+00 0.74215483E+03</pdfrwt>
<totfact> 0.52221848E+00</totfact>
</mgrwt>
</event>
<event>
 4    2  0.6685715E-007  0.8875421E+03  0.7818608E-02  0.9546334E-01
          1   -1    0    0  501    0  0.00000000000E+00  0.00000000000E+00  0.49867461955E+04  0.49867461955E+04  0.50400000000E-02 0. -1.
         -1   -1    0    0    0  501 -0.00000000000E+00 -0.00000000000E+00 -0.20265539994E+04  0.20265539994E+04  0.50400000000E-02 0.  1.
    8880023    1    1    2    0    0  0.23625406876E+02  0.59444314060E+03 -0.19091483094E+04  0.21053689180E+04  0.65864270000E+03 0.  1.
    8880022    1    1    2    0    0 -0.23625406876E+02 -0.59444314060E+03  0.48693405055E+04  0.49079312769E+04  0.15294330000E+03 0.  0.
<mgrwt>
<rscale>  0 0.80952334E+03</rscale>
<asrwt>0</asrwt>
<pdfrwt beam="1">  1        1 0.76719172E+00 0.88754212E+03</pdfrwt>
<pdfrwt beam="2">  1       -1 0.31177754E+00 0.88754212E+03</pdfrwt>
<totfact> 0.28775975E-04</totfact>
</mgrwt>
</event>
<event>
 4    2  0.4681349E-007  0.6625633E+03  0.7818608E-02  0.1021671E+00
          1   -1    0    0  501    0  0.00000000000E+00  0.00000000000E+00  0.16243140917E+04  0.16243140917E+04  0.50400000000E-02 0. -1.
         -1   -1    0    0    0  501 -0.00000000000E+00 -0.00000000000E+00 -0.12079492549E+03  0.12079492559E+03  0.50400000000E-02 0.  1.
    8880023    1    1    2    0    0 -0.57726711672E+02  0.42983838010E+02  0.89506274658E+03  0.11136101248E+04  0.65864270000E+03 0.  1.
    8880022    1    1    2    0    0  0.57726711672E+02 -0.42983838010E+02  0.60845641958E+03  0.63149889241E+03  0.15294330000E+03 0. -1.
<mgrwt>
<rscale>  0 0.47088239E+03</rscale>
<asrwt>0</asrwt>
<pdfrwt beam="1">  1        1 0.24989445E+00 0.66256335E+03</pdfrwt>
<pdfrwt beam="2">  1       -1 0.18583837E-01 0.66256335E+03</pdfrwt>
<totfact> 0.12797468E+02</totfact>
</mgrwt>
</event>
<event>
 4    2  0.4681349E-007  0.8813914E+03  0.7818608E-02  0.9556590E-01
          1   -1    0    0  501    0  0.00000000000E+00  0.00000000000E+00  0.16630212075E+04  0.16630212075E+04  0.50400000000E-02 0. -1.
         -1   -1    0    0    0  501 -0.00000000000E+00 -0.00000000000E+00 -0.10935984072E+04  0.10935984072E+04  0.50400000000E-02 0.  1.
    8880023    1    1    2    0    0  0.23748707562E+03 -0.53538809820E+03 -0.84319469724E+03  0.12197655637E+04  0.65864270000E+03 0.  1.
    8880022    1    1    2    0    0 -0.23748707562E+03  0.53538809820E+03  0.14126174975E+04  0.15368540510E+04  0.15294330000E+03 0.  0.
<mgrwt>
<rscale>  0 0.80237205E+03</rscale>
<asrwt>0</asrwt>
<pdfrwt beam="1">  1        1 0.25584942E+00 0.88139136E+03</pdfrwt>
<pdfrwt beam="2">  1       -1 0.16824591E+00 0.88139136E+03</pdfrwt>
<totfact> 0.13147071E+00</totfact>
</mgrwt>
</event>
<event>
 4    2  0.4681349E-007  0.6643336E+03  0.7818608E-02  0.1020099E+00
          1   -1    0    0  501    0  0.00000000000E+00  0.00000000000E+00  0.25782732776E+03  0.25782732781E+03  0.50400000000E-02 0. -1.
         -1   -1    0    0    0  501 -0.00000000000E+00 -0.00000000000E+00 -0.70118079278E+03  0.70118079280E+03  0.50400000000E-02 0.  1.
    8880023    1    1    2    0    0  0.11665970861E+01 -0.86761599002E+02 -0.28689042506E+03  0.72363337282E+03  0.65864270000E+03 0.  0.
    8880022    1    1    2    0    0 -0.11665970861E+01  0.86761599002E+02 -0.15646303996E+03  0.23537474779E+03  0.15294330000E+03 0.  0.
<mgrwt>
<rscale>  0 0.47650848E+03</rscale>
<asrwt>0</asrwt>
<pdfrwt beam="1">  1        1 0.39665743E-01 0.66433361E+03</pdfrwt>
<pdfrwt beam="2">  1       -1 0.10787397E+00 0.66433361E+03</pdfrwt>
<totfact> 0.87306984E+01</totfact>
</mgrwt>
</event>
<event>
 4    2  0.4681349E-007  0.9696324E+03  0.7818608E-02  0.9422413E-01
          1   -1    0    0  501    0  0.00000000000E+00  0.00000000000E+00  0.15606545144E+04  0.15606545144E+04  0.50400000000E-02 0. -1.
         -1   -1    0    0    0  501 -0.00000000000E+00 -0.00000000000E+00 -0.68786148365E+03  0.68786148367E+03  0.50400000000E-02 0.  1.
    8880023    1    1    2    0    0  0.14029911262E+03  0.69763384815E+03 -0.16231471353E+03  0.98312415268E+03  0.65864270000E+03 0.  1.
    8880022    1    1    2    0    0 -0.14029911262E+03 -0.69763384815E+03  0.10351077442E+04  0.12653918454E+04  0.15294330000E+03 0.  0.
<mgrwt>
<rscale>  0 0.90253928E+03</rscale>
<asrwt>0</asrwt>
<pdfrwt beam="1">  1        1 0.24010069E+00 0.96963242E+03</pdfrwt>
<pdfrwt beam="2">  1       -1 0.10582484E+00 0.96963242E+03</pdfrwt>
<totfact> 0.50143224E+00</totfact>
</mgrwt>
</event>
<event>
 4    2  0.4681349E-007  0.7804304E+03  0.7818608E-02  0.9754827E-01
         -1   -1    0    0    0  501 -0.00000000000E+00  0.00000000000E+00  0.18478407106E+03  0.18478407113E+03  0.50400000000E-02 0.  1.
          1   -1    0    0  501    0  0.00000000000E+00 -0.00000000000E+00 -0.24180896447E+04  0.24180896447E+04  0.50400000000E-02 0. -1.
    8880023    1    1    2    0    0 -0.12748617049E+03  0.39875883231E+03 -0.87091102716E+03  0.11694261642E+04  0.65864270000E+03 0.  1.
    8880022    1    1    2    0    0  0.12748617049E+03 -0.39875883231E+03 -0.13623945465E+04  0.14334475517E+04  0.15294330000E+03 0.  0.
<mgrwt>
<rscale>  0 0.67844165E+03</rscale>
<asrwt>0</asrwt>
<pdfrwt beam="1">  1        1 0.37201377E+00 0.78043035E+03</pdfrwt>
<pdfrwt beam="2">  1       -1 0.28428320E-01 0.78043035E+03</pdfrwt>
<totfact> 0.18047810E+01</totfact>
</mgrwt>
</event>
<event>
 4    2  0.4681349E-007  0.6870564E+03  0.7818608E-02  0.1005584E+00
         -1   -1    0    0    0  501 -0.00000000000E+00  0.00000000000E+00  0.40199604164E+03  0.40199604167E+03  0.50400000000E-02 0.  1.
          1   -1    0    0  501    0  0.00000000000E+00 -0.00000000000E+00 -0.21319468853E+04  0.21319468854E+04  0.50400000000E-02 0. -1.
    8880023    1    1    2    0    0  0.15431371375E+03 -0.12009810912E+03  0.93750160364E+02  0.69342308650E+03  0.65864270000E+03 0.  1.
    8880022    1    1    2    0    0 -0.15431371375E+03  0.12009810912E+03 -0.18237010041E+04  0.18405198405E+04  0.15294330000E+03 0.  0.
<mgrwt>
<rscale>  0 0.53268012E+03</rscale>
<asrwt>0</asrwt>
<pdfrwt beam="1">  1        1 0.32799182E+00 0.68705639E+03</pdfrwt>
<pdfrwt beam="2">  1       -1 0.61845546E-01 0.68705639E+03</pdfrwt>
<totfact> 0.68279873E+00</totfact>
</mgrwt>
</event>
<event>
 4    2  0.4681349E-007  0.8576702E+03  0.7818608E-02  0.9597721E-01
         -1   -1    0    0    0  501 -0.00000000000E+00  0.00000000000E+00  0.94754542923E+03  0.94754542924E+03  0.50400000000E-02 0.  1.
          1   -1    0    0  501    0  0.00000000000E+00 -0.00000000000E+00 -0.89420775240E+03  0.89420775241E+03  0.50400000000E-02 0. -1.
    8880023    1    1    2    0    0 -0.12183696670E+03 -0.53567132514E+03  0.60401933886E+03  0.10490174369E+04  0.65864270000E+03 0.  1.
    8880022    1    1    2    0    0  0.12183696670E+03  0.53567132514E+03 -0.55068166203E+03  0.79273574471E+03  0.15294330000E+03 0.  0.
<mgrwt>
<rscale>  0 0.77447192E+03</rscale>
<asrwt>0</asrwt>
<pdfrwt beam="1">  1        1 0.13757042E+00 0.85767023E+03</pdfrwt>
<pdfrwt beam="2">  1       -1 0.14577622E+00 0.85767023E+03</pdfrwt>
<totfact> 0.70607980E+00</totfact>
</mgrwt>
</event>
<event>
 4    2  0.4681349E-007  0.8452376E+03  0.7818608E-02  0.9620382E-01
         -1   -1    0    0    0  501 -0.00000000000E+00  0.00000000000E+00  0.41540963631E+03  0.41540963634E+03  0.50400000000E-02 0.  1.
          1   -1    0    0  501    0  0.00000000000E+00 -0.00000000000E+00 -0.20825749363E+04  0.20825749363E+04  0.50400000000E-02 0. -1.
    8880023    1    1    2    0    0 -0.52492032920E+03  0.71239403993E+02 -0.11776422767E+03  0.85340202968E+03  0.65864270000E+03 0.  1.
    8880022    1    1    2    0    0  0.52492032920E+03 -0.71239403993E+02 -0.15494010723E+04  0.16445825429E+04  0.15294330000E+03 0.  0.
<mgrwt>
<rscale>  0 0.75961712E+03</rscale>
<asrwt>0</asrwt>
<pdfrwt beam="1">  1        1 0.32039614E+00 0.84523761E+03</pdfrwt>
<pdfrwt beam="2">  1       -1 0.63909176E-01 0.84523761E+03</pdfrwt>
<totfact> 0.67230498E+00</totfact>
</mgrwt>
</event>
<event>
 4    2  0.4681349E-007  0.7075133E+03  0.7818608E-02  0.9967353E-01
          1   -1    0    0  501    0  0.00000000000E+00  0.00000000000E+00  0.15276598822E+04  0.15276598822E+04  0.50400000000E-02 0. -1.
         -1   -1    0    0    0  501 -0.00000000000E+00 -0.00000000000E+00 -0.53124606846E+03  0.53124606849E+03  0.50400000000E-02 0.  1.
    8880023    1    1    2    0    0  0.10405230071E+03 -0.23651223821E+03 -0.27007683451E+03  0.75730880287E+03  0.65864270000E+03 0.  0.
    8880022    1    1    2    0    0 -0.10405230071E+03  0.23651223821E+03  0.12664906483E+04  0.13015971479E+04  0.15294330000E+03 0.  0.
<mgrwt>
<rscale>  0 0.57105199E+03</rscale>
<asrwt>0</asrwt>
<pdfrwt beam="1">  1        1 0.23502459E+00 0.70751334E+03</pdfrwt>
<pdfrwt beam="2">  1       -1 0.81730166E-01 0.70751334E+03</pdfrwt>
<totfact> 0.97545089E+00</totfact>
</mgrwt>
</event>
<event>
 4    2  0.4681349E-007  0.7681872E+03  0.7818608E-02  0.9784355E-01
         -1   -1    0    0    0  501 -0.00000000000E+00  0.00000000000E+00  0.19869385705E+03  0.19869385711E+03  0.50400000000E-02 0.  1.
          1   -1    0    0  501    0  0.00000000000E+00 -0.00000000000E+00 -0.41404675905E+04  0.41404675905E+04  0.50400000000E-02 0. -1.
    8880023    1    1    2    0    0 -0.94831186491E+02  0.38380773170E+03 -0.61106653979E+03  0.98158741391E+03  0.65864270000E+03 0.  1.
    8880022    1    1    2    0    0  0.94831186491E+02 -0.38380773170E+03 -0.33307071937E+04  0.33575740337E+04  0.15294330000E+03 0.  0.
<mgrwt>
<rscale>  0 0.66208947E+03</rscale>
<asrwt>0</asrwt>
<pdfrwt beam="1">  1        1 0.63699495E+00 0.76818717E+03</pdfrwt>
<pdfrwt beam="2">  1       -1 0.30568289E-01 0.76818717E+03</pdfrwt>
<totfact> 0.78445702E-01</totfact>
</mgrwt>
</event>
<event>
 4    2  0.4681349E-007  0.7384380E+03  0.7818608E-02  0.9864521E-01
          1   -1    0    0  501    0  0.00000000000E+00  0.00000000000E+00  0.91236389394E+03  0.91236389395E+03  0.50400000000E-02 0. -1.
         -1   -1    0    0    0  501 -0.00000000000E+00 -0.00000000000E+00 -0.69131134866E+03  0.69131134868E+03  0.50400000000E-02 0.  1.
    8880023    1    1    2    0    0 -0.32882295668E+03  0.57930536850E+02 -0.43121687697E+03  0.85512495297E+03  0.65864270000E+03 0.  1.
    8880022    1    1    2    0    0  0.32882295668E+03 -0.57930536850E+02  0.65226942225E+03  0.74855028967E+03  0.15294330000E+03 0.  0.
<mgrwt>
<rscale>  0 0.62012010E+03</rscale>
<asrwt>0</asrwt>
<pdfrwt beam="1">  1        1 0.14036368E+00 0.73843801E+03</pdfrwt>
<pdfrwt beam="2">  1       -1 0.10635559E+00 0.73843801E+03</pdfrwt>
<totfact> 0.15147170E+01</totfact>
</mgrwt>
</event>
<event>
 4    2  0.4681349E-007  0.7093711E+03  0.7818608E-02  0.9960344E-01
         -1   -1    0    0    0  501 -0.00000000000E+00  0.00000000000E+00  0.49455747971E+03  0.49455747973E+03  0.50400000000E-02 0.  1.
          1   -1    0    0  501    0  0.00000000000E+00 -0.00000000000E+00 -0.20362640202E+04  0.20362640202E+04  0.50400000000E-02 0. -1.
    8880023    1    1    2    0    0 -0.56737989317E+02 -0.25725070506E+03  0.22021164539E+03  0.74276544057E+03  0.65864270000E+03 0.  1.
    8880022    1    1    2    0    0  0.56737989317E+02  0.25725070506E+03 -0.17619181859E+04  0.17880560594E+04  0.15294330000E+03 0.  0.
<mgrwt>
<rscale>  0 0.57423815E+03</rscale>
<asrwt>0</asrwt>
<pdfrwt beam="1">  1        1 0.31327138E+00 0.70937108E+03</pdfrwt>
<pdfrwt beam="2">  1       -1 0.76085767E-01 0.70937108E+03</pdfrwt>
<totfact> 0.51681062E+00</totfact>
</mgrwt>
</event>
<event>
 4    2  0.4681349E-007  0.6664689E+03  0.7818608E-02  0.1018332E+00
         -1   -1    0    0    0  501 -0.00000000000E+00  0.00000000000E+00  0.17997005163E+03  0.17997005170E+03  0.50400000000E-02 0.  1.
          1   -1    0    0  501    0  0.00000000000E+00 -0.00000000000E+00 -0.12906638982E+04  0.12906638982E+04  0.50400000000E-02 0. -1.
    8880023    1    1    2    0    0  0.64087831689E+02  0.79141576106E+02 -0.50078073785E+03  0.83364392453E+03  0.65864270000E+03 0.  1.
    8880022    1    1    2    0    0 -0.64087831689E+02 -0.79141576106E+02 -0.60991310873E+03  0.63699002540E+03  0.15294330000E+03 0.  0.
<mgrwt>
<rscale>  0 0.48293527E+03</rscale>
<asrwt>0</asrwt>
<pdfrwt beam="1">  1        1 0.19856367E+00 0.66646894E+03</pdfrwt>
<pdfrwt beam="2">  1       -1 0.27687701E-01 0.66646894E+03</pdfrwt>
<totfact> 0.11081974E+02</totfact>
</mgrwt>
</event>
<event>
 4    2  0.4681349E-007  0.6642617E+03  0.7818608E-02  0.1020161E+00
         -1   -1    0    0    0  501 -0.00000000000E+00  0.00000000000E+00  0.81591021088E+03  0.81591021090E+03  0.50400000000E-02 0.  1.
          1   -1    0    0  501    0  0.00000000000E+00 -0.00000000000E+00 -0.13098707893E+04  0.13098707893E+04  0.50400000000E-02 0. -1.
    8880023    1    1    2    0    0 -0.85634009989E+02  0.10011294705E+02  0.67304698583E+03  0.94564045022E+03  0.65864270000E+03 0.  1.
    8880022    1    1    2    0    0  0.85634009989E+02 -0.10011294705E+02 -0.11670075642E+04  0.11801405500E+04  0.15294330000E+03 0.  0.
<mgrwt>
<rscale>  0 0.47628555E+03</rscale>
<asrwt>0</asrwt>
<pdfrwt beam="1">  1        1 0.20151858E+00 0.66426171E+03</pdfrwt>
<pdfrwt beam="2">  1       -1 0.12552465E+00 0.66426171E+03</pdfrwt>
<totfact> 0.51992328E+00</totfact>
</mgrwt>
</event>
<event>
 4    2  0.4681349E-007  0.6904805E+03  0.7818608E-02  0.1003925E+00
          1   -1    0    0  501    0  0.00000000000E+00  0.00000000000E+00  0.62309992731E+03  0.62309992733E+03  0.50400000000E-02 0. -1.
         -1   -1    0    0    0  501 -0.00000000000E+00 -0.00000000000E+00 -0.59362692335E+03  0.59362692337E+03  0.50400000000E-02 0.  1.
    8880023    1    1    2    0    0 -0.18402970662E+03 -0.95321126606E+02 -0.33736550016E+03  0.76849120819E+03  0.65864270000E+03 0.  1.
    8880022    1    1    2    0    0  0.18402970662E+03  0.95321126606E+02  0.36683850412E+03  0.44823564251E+03  0.15294330000E+03 0.  0.
<mgrwt>
<rscale>  0 0.53962160E+03</rscale>
<asrwt>0</asrwt>
<pdfrwt beam="1">  1        1 0.95861527E-01 0.69048045E+03</pdfrwt>
<pdfrwt beam="2">  1       -1 0.91327219E-01 0.69048045E+03</pdfrwt>
<totfact> 0.39012329E+01</totfact>
</mgrwt>
</event>
<event>
 4    2  0.4681349E-007  0.1199212E+04  0.7818608E-02  0.9157889E-01
          1   -1    0    0  501    0  0.00000000000E+00  0.00000000000E+00  0.11813474259E+04  0.11813474259E+04  0.50400000000E-02 0. -1.
         -1   -1    0    0    0  501 -0.00000000000E+00 -0.00000000000E+00 -0.14615252800E+04  0.14615252801E+04  0.50400000000E-02 0.  1.
    8880023    1    1    2    0    0  0.40389228238E+03  0.91715283284E+03 -0.85936259886E+03  0.14753347339E+04  0.65864270000E+03 0.  0.
    8880022    1    1    2    0    0 -0.40389228238E+03 -0.91715283284E+03  0.57918474467E+03  0.11675379720E+04  0.15294330000E+03 0.  0.
<mgrwt>
<rscale>  0 0.11498856E+04</rscale>
<asrwt>0</asrwt>
<pdfrwt beam="1">  1        1 0.18174576E+00 0.11992116E+04</pdfrwt>
<pdfrwt beam="2">  1       -1 0.22485004E+00 0.11992116E+04</pdfrwt>
<totfact> 0.11044952E+00</totfact>
</mgrwt>
</event>
<event>
 4    2  0.4681349E-007  0.6665406E+03  0.7818608E-02  0.1018274E+00
          1   -1    0    0  501    0  0.00000000000E+00  0.00000000000E+00  0.42342635110E+03  0.42342635113E+03  0.50400000000E-02 0. -1.
         -1   -1    0    0    0  501 -0.00000000000E+00 -0.00000000000E+00 -0.86277257541E+03  0.86277257542E+03  0.50400000000E-02 0.  1.
    8880023    1    1    2    0    0  0.71266583139E+02  0.73398026329E+02 -0.70036382968E+03  0.96684326358E+03  0.65864270000E+03 0.  1.
    8880022    1    1    2    0    0 -0.71266583139E+02 -0.73398026329E+02  0.26101760537E+03  0.31935566297E+03  0.15294330000E+03 0.  0.
<mgrwt>
<rscale>  0 0.48314489E+03</rscale>
<asrwt>0</asrwt>
<pdfrwt beam="1">  1        1 0.65142516E-01 0.66654062E+03</pdfrwt>
<pdfrwt beam="2">  1       -1 0.13273424E+00 0.66654062E+03</pdfrwt>
<totfact> 0.27619523E+01</totfact>
</mgrwt>
</event>
<event>
 4    2  0.4681349E-007  0.7471019E+03  0.7818608E-02  0.9839723E-01
          1   -1    0    0  501    0  0.00000000000E+00  0.00000000000E+00  0.11384054566E+04  0.11384054566E+04  0.50400000000E-02 0. -1.
         -1   -1    0    0    0  501 -0.00000000000E+00 -0.00000000000E+00 -0.13766733867E+04  0.13766733867E+04  0.50400000000E-02 0.  1.
    8880023    1    1    2    0    0 -0.17144923322E+03 -0.30814957591E+03 -0.12369045052E+04  0.14450238621E+04  0.65864270000E+03 0.  0.
    8880022    1    1    2    0    0  0.17144923322E+03  0.30814957591E+03  0.99863657510E+03  0.10700549812E+04  0.15294330000E+03 0.  0.
<mgrwt>
<rscale>  0 0.63273682E+03</rscale>
<asrwt>0</asrwt>
<pdfrwt beam="1">  1        1 0.17513930E+00 0.74710187E+03</pdfrwt>
<pdfrwt beam="2">  1       -1 0.21179590E+00 0.74710187E+03</pdfrwt>
<totfact> 0.15538561E+00</totfact>
</mgrwt>
</event>
<event>
 4    2  0.4681349E-007  0.8473105E+03  0.7818608E-02  0.9616547E-01
          1   -1    0    0  501    0  0.00000000000E+00  0.00000000000E+00  0.15858394429E+04  0.15858394429E+04  0.50400000000E-02 0. -1.
         -1   -1    0    0    0  501 -0.00000000000E+00 -0.00000000000E+00 -0.12260181745E+04  0.12260181745E+04  0.50400000000E-02 0.  1.
    8880023    1    1    2    0    0 -0.27116322636E+03  0.45890671949E+03 -0.10192632909E+04  0.13254556707E+04  0.65864270000E+03 0.  0.
    8880022    1    1    2    0    0  0.27116322636E+03 -0.45890671949E+03  0.13790845593E+04  0.14864019467E+04  0.15294330000E+03 0.  0.
<mgrwt>
<rscale>  0 0.76210620E+03</rscale>
<asrwt>0</asrwt>
<pdfrwt beam="1">  1        1 0.24397530E+00 0.84731050E+03</pdfrwt>
<pdfrwt beam="2">  1       -1 0.18861818E+00 0.84731050E+03</pdfrwt>
<totfact> 0.10655049E+00</totfact>
</mgrwt>
</event>
<event>
 4    2  0.4681349E-007  0.8387481E+03  0.7818608E-02  0.9632545E-01
         -1   -1    0    0    0  501 -0.00000000000E+00  0.00000000000E+00  0.14853224996E+04  0.14853224996E+04  0.50400000000E-02 0.  1.
          1   -1    0    0  501    0  0.00000000000E+00 -0.00000000000E+00 -0.38595285924E+03  0.38595285928E+03  0.50400000000E-02 0. -1.
    8880023    1    1    2    0    0 -0.47106361995E+03  0.21860288628E+03  0.10256098187E+04  0.13249052277E+04  0.65864270000E+03 0.  0.
    8880022    1    1    2    0    0  0.47106361995E+03 -0.21860288628E+03  0.73759821647E+02  0.54637013117E+03  0.15294330000E+03 0.  0.
<mgrwt>
<rscale>  0 0.75179061E+03</rscale>
<asrwt>0</asrwt>
<pdfrwt beam="1">  1        1 0.59377363E-01 0.83874809E+03</pdfrwt>
<pdfrwt beam="2">  1       -1 0.22851115E+00 0.83874809E+03</pdfrwt>
<totfact> 0.62259725E+00</totfact>
</mgrwt>
</event>
<event>
 4    2  0.4681349E-007  0.1334983E+04  0.7818608E-02  0.9035924E-01
         -1   -1    0    0    0  501 -0.00000000000E+00  0.00000000000E+00  0.91047302909E+03  0.91047302910E+03  0.50400000000E-02 0.  1.
          1   -1    0    0  501    0  0.00000000000E+00 -0.00000000000E+00 -0.28235424254E+04  0.28235424254E+04  0.50400000000E-02 0. -1.
    8880023    1    1    2    0    0  0.11291655821E+04  0.27083789999E+03 -0.21579157192E+04  0.25374748348E+04  0.65864270000E+03 0.  0.
    8880022    1    1    2    0    0 -0.11291655821E+04 -0.27083789999E+03  0.24484632288E+03  0.11965406197E+04  0.15294330000E+03 0.  0.
<mgrwt>
<rscale>  0 0.12920117E+04</rscale>
<asrwt>0</asrwt>
<pdfrwt beam="1">  1        1 0.43439114E+00 0.13349825E+04</pdfrwt>
<pdfrwt beam="2">  1       -1 0.14007278E+00 0.13349825E+04</pdfrwt>
<totfact> 0.32627458E-01</totfact>
</mgrwt>
</event>
<event>
 4    2  0.4681349E-007  0.6767124E+03  0.7818608E-02  0.1011248E+00
          1   -1    0    0  501    0  0.00000000000E+00  0.00000000000E+00  0.17280517814E+04  0.17280517814E+04  0.50400000000E-02 0. -1.
         -1   -1    0    0    0  501 -0.00000000000E+00 -0.00000000000E+00 -0.30973160332E+03  0.30973160336E+03  0.50400000000E-02 0.  1.
    8880023    1    1    2    0    0 -0.18059779290E+02 -0.15428327042E+03  0.79539435761E+02  0.68137083241E+03  0.65864270000E+03 0.  1.
    8880022    1    1    2    0    0  0.18059779290E+02  0.15428327042E+03  0.13387807423E+04  0.13564125523E+04  0.15294330000E+03 0.  0.
<mgrwt>
<rscale>  0 0.50981658E+03</rscale>
<asrwt>0</asrwt>
<pdfrwt beam="1">  1        1 0.26585412E+00 0.67671241E+03</pdfrwt>
<pdfrwt beam="2">  1       -1 0.47651017E-01 0.67671241E+03</pdfrwt>
<totfact> 0.21019175E+01</totfact>
</mgrwt>
</event>
<event>
 4    2  0.4681349E-007  0.8512141E+03  0.7818608E-02  0.9609387E-01
          1   -1    0    0  501    0  0.00000000000E+00  0.00000000000E+00  0.55209672538E+03  0.55209672540E+03  0.50400000000E-02 0. -1.
         -1   -1    0    0    0  501 -0.00000000000E+00 -0.00000000000E+00 -0.13154025101E+04  0.13154025101E+04  0.50400000000E-02 0.  1.
    8880023    1    1    2    0    0 -0.34902211010E+03  0.41102162995E+03 -0.95110274527E+03  0.12763862472E+04  0.65864270000E+03 0.  1.
    8880022    1    1    2    0    0  0.34902211010E+03 -0.41102162995E+03  0.18779696053E+03  0.59111298837E+03  0.15294330000E+03 0. -1.
<mgrwt>
<rscale>  0 0.76677985E+03</rscale>
<asrwt>0</asrwt>
<pdfrwt beam="1">  1        1 0.84937958E-01 0.85121409E+03</pdfrwt>
<pdfrwt beam="2">  1       -1 0.20236962E+00 0.85121409E+03</pdfrwt>
<totfact> 0.57131265E+00</totfact>
</mgrwt>
</event>
<event>
 4    2  0.4681349E-007  0.7220832E+03  0.7818608E-02  0.9915599E-01
          1   -1    0    0  501    0  0.00000000000E+00  0.00000000000E+00  0.10827230696E+04  0.10827230696E+04  0.50400000000E-02 0. -1.
         -1   -1    0    0    0  501 -0.00000000000E+00 -0.00000000000E+00 -0.30198117564E+03  0.30198117568E+03  0.50400000000E-02 0.  1.
    8880023    1    1    2    0    0 -0.91944415591E+02  0.28131849821E+03  0.76385440346E+03  0.10511315945E+04  0.65864270000E+03 0.  0.
    8880022    1    1    2    0    0  0.91944415591E+02 -0.28131849821E+03  0.16887490465E+02  0.33357265077E+03  0.15294330000E+03 0.  0.
<mgrwt>
<rscale>  0 0.59511199E+03</rscale>
<asrwt>0</asrwt>
<pdfrwt beam="1">  1        1 0.16657278E+00 0.72208315E+03</pdfrwt>
<pdfrwt beam="2">  1       -1 0.46458642E-01 0.72208315E+03</pdfrwt>
<totfact> 0.61837580E+01</totfact>
</mgrwt>
</event>
<event>
 4    2  0.4681349E-007  0.6859238E+03  0.7818608E-02  0.1006153E+00
          1   -1    0    0  501    0  0.00000000000E+00  0.00000000000E+00  0.17208144539E+04  0.17208144539E+04  0.50400000000E-02 0. -1.
         -1   -1    0    0    0  501 -0.00000000000E+00 -0.00000000000E+00 -0.23634119997E+03  0.23634120003E+03  0.50400000000E-02 0.  1.
    8880023    1    1    2    0    0 -0.15562406384E+03 -0.11163526855E+03  0.30185309658E+03  0.74940428382E+03  0.65864270000E+03 0.  1.
    8880022    1    1    2    0    0  0.15562406384E+03  0.11163526855E+03  0.11826201574E+04  0.12077513701E+04  0.15294330000E+03 0.  0.
<mgrwt>
<rscale>  0 0.53032460E+03</rscale>
<asrwt>0</asrwt>
<pdfrwt beam="1">  1        1 0.26474067E+00 0.68592382E+03</pdfrwt>
<pdfrwt beam="2">  1       -1 0.36360186E-01 0.68592382E+03</pdfrwt>
<totfact> 0.34810712E+01</totfact>
</mgrwt>
</event>
<event>
 4    2  0.4681349E-007  0.7675738E+03  0.7818608E-02  0.9785880E-01
          1   -1    0    0  501    0  0.00000000000E+00  0.00000000000E+00  0.79401509831E+03  0.79401509832E+03  0.50400000000E-02 0. -1.
         -1   -1    0    0    0  501 -0.00000000000E+00 -0.00000000000E+00 -0.56665491015E+03  0.56665491017E+03  0.50400000000E-02 0.  1.
    8880023    1    1    2    0    0 -0.39274146103E+03 -0.33368001946E+02 -0.16360811381E+03  0.78481660274E+03  0.65864270000E+03 0.  1.
    8880022    1    1    2    0    0  0.39274146103E+03  0.33368001946E+02  0.39096830197E+03  0.57585340576E+03  0.15294330000E+03 0.  0.
<mgrwt>
<rscale>  0 0.66125829E+03</rscale>
<asrwt>0</asrwt>
<pdfrwt beam="1">  1        1 0.12215617E+00 0.76757377E+03</pdfrwt>
<pdfrwt beam="2">  1       -1 0.87177679E-01 0.76757377E+03</pdfrwt>
<totfact> 0.29679374E+01</totfact>
</mgrwt>
</event>
<event>
 4    2  0.4681349E-007  0.7011913E+03  0.7818608E-02  0.9992295E-01
         -1   -1    0    0    0  501 -0.00000000000E+00  0.00000000000E+00  0.80664795184E+02  0.80664795341E+02  0.50400000000E-02 0.  1.
          1   -1    0    0  501    0  0.00000000000E+00 -0.00000000000E+00 -0.30660478143E+04  0.30660478144E+04  0.50400000000E-02 0. -1.
    8880023    1    1    2    0    0 -0.11423600013E+03 -0.21168179904E+03 -0.19266955240E+04  0.20503231200E+04  0.65864270000E+03 0.  1.
    8880022    1    1    2    0    0  0.11423600013E+03  0.21168179904E+03 -0.10586874951E+04  0.10963894897E+04  0.15294330000E+03 0.  0.
<mgrwt>
<rscale>  0 0.55989396E+03</rscale>
<asrwt>0</asrwt>
<pdfrwt beam="1">  1        1 0.47169957E+00 0.70119131E+03</pdfrwt>
<pdfrwt beam="2">  1       -1 0.12409971E-01 0.70119131E+03</pdfrwt>
<totfact> 0.25520729E+01</totfact>
</mgrwt>
</event>
<event>
 4    2  0.4681349E-007  0.8863278E+03  0.7818608E-02  0.9548346E-01
         -1   -1    0    0    0  501 -0.00000000000E+00  0.00000000000E+00  0.51549072858E+03  0.51549072861E+03  0.50400000000E-02 0.  1.
          1   -1    0    0  501    0  0.00000000000E+00 -0.00000000000E+00 -0.19421274013E+04  0.19421274013E+04  0.50400000000E-02 0. -1.
    8880023    1    1    2    0    0 -0.20958767150E+03 -0.55483310718E+03  0.20110719065E+02  0.88655592951E+03  0.65864270000E+03 0.  1.
    8880022    1    1    2    0    0  0.20958767150E+03  0.55483310718E+03 -0.14467473917E+04  0.15710622004E+04  0.15294330000E+03 0.  0.
<mgrwt>
<rscale>  0 0.80811398E+03</rscale>
<asrwt>0</asrwt>
<pdfrwt beam="1">  1        1 0.29878883E+00 0.88632780E+03</pdfrwt>
<pdfrwt beam="2">  1       -1 0.79306267E-01 0.88632780E+03</pdfrwt>
<totfact> 0.53196958E+00</totfact>
</mgrwt>
</event>
<event>
 4    2  0.4681349E-007  0.6666664E+03  0.7818608E-02  0.1018175E+00
         -1   -1    0    0    0  501 -0.00000000000E+00  0.00000000000E+00  0.89992514019E+03  0.89992514020E+03  0.50400000000E-02 0.  1.
          1   -1    0    0  501    0  0.00000000000E+00 -0.00000000000E+00 -0.75018486447E+03  0.75018486449E+03  0.50400000000E-02 0. -1.
    8880023    1    1    2    0    0  0.10035709836E+02  0.10263092269E+03  0.76094761635E+03  0.10116745044E+04  0.65864270000E+03 0.  1.
    8880022    1    1    2    0    0 -0.10035709836E+02 -0.10263092269E+03 -0.61120734064E+03  0.63843550029E+03  0.15294330000E+03 0.  0.
<mgrwt>
<rscale>  0 0.48351163E+03</rscale>
<asrwt>0</asrwt>
<pdfrwt beam="1">  1        1 0.11541306E+00 0.66666635E+03</pdfrwt>
<pdfrwt beam="2">  1       -1 0.13845002E+00 0.66666635E+03</pdfrwt>
<totfact> 0.11012128E+01</totfact>
</mgrwt>
</event>
<event>
 4    2  0.4681349E-007  0.6723999E+03  0.7818608E-02  0.1013998E+00
          1   -1    0    0  501    0  0.00000000000E+00  0.00000000000E+00  0.19921045567E+04  0.19921045567E+04  0.50400000000E-02 0. -1.
         -1   -1    0    0    0  501 -0.00000000000E+00 -0.00000000000E+00 -0.11248530310E+03  0.11248530321E+03  0.50400000000E-02 0.  1.
    8880023    1    1    2    0    0 -0.78341761281E+02 -0.11033604797E+03  0.10246708347E+04  0.12255904703E+04  0.65864270000E+03 0.  1.
    8880022    1    1    2    0    0  0.78341761281E+02  0.11033604797E+03  0.85494841887E+03  0.87899938964E+03  0.15294330000E+03 0.  0.
<mgrwt>
<rscale>  0 0.49916236E+03</rscale>
<asrwt>0</asrwt>
<pdfrwt beam="1">  1        1 0.30647760E+00 0.67239994E+03</pdfrwt>
<pdfrwt beam="2">  1       -1 0.17305433E-01 0.67239994E+03</pdfrwt>
<totfact> 0.81602619E+01</totfact>
</mgrwt>
</event>
<event>
 4    2  0.4681349E-007  0.7380154E+03  0.7818608E-02  0.9865766E-01
         -1   -1    0    0    0  501 -0.00000000000E+00  0.00000000000E+00  0.48334921144E+03  0.48334921146E+03  0.50400000000E-02 0.  1.
          1   -1    0    0  501    0  0.00000000000E+00 -0.00000000000E+00 -0.15012329118E+04  0.15012329118E+04  0.50400000000E-02 0. -1.
    8880023    1    1    2    0    0  0.15940082709E+03 -0.29231463187E+03  0.15645045353E+03  0.75441594519E+03  0.65864270000E+03 0.  1.
    8880022    1    1    2    0    0 -0.15940082709E+03  0.29231463187E+03 -0.11743341539E+04  0.12301661781E+04  0.15294330000E+03 0.  0.
<mgrwt>
<rscale>  0 0.61949468E+03</rscale>
<asrwt>0</asrwt>
<pdfrwt beam="1">  1        1 0.23095891E+00 0.73801536E+03</pdfrwt>
<pdfrwt beam="2">  1       -1 0.74361418E-01 0.73801536E+03</pdfrwt>
<totfact> 0.12349034E+01</totfact>
</mgrwt>
</event>
<event>
 4    2  0.4681349E-007  0.8935064E+03  0.7818608E-02  0.9536537E-01
         -1   -1    0    0    0  501 -0.00000000000E+00  0.00000000000E+00  0.24885453279E+04  0.24885453279E+04  0.50400000000E-02 0.  1.
          1   -1    0    0  501    0  0.00000000000E+00 -0.00000000000E+00 -0.34670625788E+03  0.34670625791E+03  0.50400000000E-02 0. -1.
    8880023    1    1    2    0    0 -0.58791719874E+03 -0.13746571922E+03  0.20085234094E+04  0.21982993310E+04  0.65864270000E+03 0.  0.
    8880022    1    1    2    0    0  0.58791719874E+03  0.13746571922E+03  0.13331566070E+03  0.63695225484E+03  0.15294330000E+03 0. -1.
<mgrwt>
<rscale>  0 0.81642845E+03</rscale>
<asrwt>0</asrwt>
<pdfrwt beam="1">  1        1 0.53339426E-01 0.89350639E+03</pdfrwt>
<pdfrwt beam="2">  1       -1 0.38285311E+00 0.89350639E+03</pdfrwt>
<totfact> 0.70659296E-01</totfact>
</mgrwt>
</event>
<event>
 4    2  0.7611963E-007  0.1074709E+04  0.7818608E-02  0.9289751E-01
         -1   -1    0    0    0  501 -0.00000000000E+00  0.00000000000E+00  0.11598832668E+04  0.11598832668E+04  0.50400000000E-02 0.  1.
          1   -1    0    0  501    0  0.00000000000E+00 -0.00000000000E+00 -0.22953631577E+04  0.22953631577E+04  0.50400000000E-02 0. -1.
    8880023    1    1    2    0    0 -0.56062135098E+03  0.63788159957E+03  0.79758376539E+03  0.13383345259E+04  0.65864270000E+03 0.  0.
    8880022    1    1    2    0    0  0.56062135098E+03 -0.63788159957E+03 -0.19330636562E+04  0.21169118986E+04  0.15294330000E+03 0.  0.
<mgrwt>
<rscale>  0 0.10173190E+04</rscale>
<asrwt>0</asrwt>
<pdfrwt beam="1">  1        1 0.35313279E+00 0.10747090E+04</pdfrwt>
<pdfrwt beam="2">  1       -1 0.17844358E+00 0.10747090E+04</pdfrwt>
<totfact> 0.40162777E-01</totfact>
</mgrwt>
</event>
<event>
 4    2  0.4681349E-007  0.6681459E+03  0.7818608E-02  0.1017028E+00
         -1   -1    0    0    0  501 -0.00000000000E+00  0.00000000000E+00  0.11370481131E+04  0.11370481131E+04  0.50400000000E-02 0.  1.
          1   -1    0    0  501    0  0.00000000000E+00 -0.00000000000E+00 -0.41662071592E+03  0.41662071595E+03  0.50400000000E-02 0. -1.
    8880023    1    1    2    0    0 -0.64135628526E+02  0.92170626858E+02  0.10078865598E+04  0.12092370847E+04  0.65864270000E+03 0.  1.
    8880022    1    1    2    0    0  0.64135628526E+02 -0.92170626858E+02 -0.28745916265E+03  0.34443174434E+03  0.15294330000E+03 0.  0.
<mgrwt>
<rscale>  0 0.48774408E+03</rscale>
<asrwt>0</asrwt>
<pdfrwt beam="1">  1        1 0.64095495E-01 0.66814595E+03</pdfrwt>
<pdfrwt beam="2">  1       -1 0.17493048E+00 0.66814595E+03</pdfrwt>
<totfact> 0.13369139E+01</totfact>
</mgrwt>
</event>
<event>
 4    2  0.4681349E-007  0.1005334E+04  0.7818608E-02  0.9374612E-01
         -1   -1    0    0    0  501 -0.00000000000E+00  0.00000000000E+00  0.14742563569E+04  0.14742563569E+04  0.50400000000E-02 0.  1.
          1   -1    0    0  501    0  0.00000000000E+00 -0.00000000000E+00 -0.84822563049E+03  0.84822563050E+03  0.50400000000E-02 0. -1.
    8880023    1    1    2    0    0  0.65990027060E+03  0.37605698723E+03 -0.36055806411E+03  0.10680353686E+04  0.65864270000E+03 0.  0.
    8880022    1    1    2    0    0 -0.65990027060E+03 -0.37605698723E+03  0.98658879055E+03  0.12544466188E+04  0.15294330000E+03 0.  0.
<mgrwt>
<rscale>  0 0.94194830E+03</rscale>
<asrwt>0</asrwt>
<pdfrwt beam="1">  1        1 0.13049625E+00 0.10053345E+04</pdfrwt>
<pdfrwt beam="2">  1       -1 0.22680867E+00 0.10053345E+04</pdfrwt>
<totfact> 0.20022403E+00</totfact>
</mgrwt>
</event>
<event>
 4    2  0.4681349E-007  0.7734788E+03  0.7818608E-02  0.9771385E-01
         -1   -1    0    0    0  501 -0.00000000000E+00  0.00000000000E+00  0.18175068077E+03  0.18175068084E+03  0.50400000000E-02 0.  1.
          1   -1    0    0  501    0  0.00000000000E+00 -0.00000000000E+00 -0.31405855484E+04  0.31405855484E+04  0.50400000000E-02 0. -1.
    8880023    1    1    2    0    0 -0.35371113736E+03 -0.19836232712E+03 -0.77146960468E+03  0.10924443870E+04  0.65864270000E+03 0.  1.
    8880022    1    1    2    0    0  0.35371113736E+03  0.19836232712E+03 -0.21873652630E+04  0.22298918423E+04  0.15294330000E+03 0.  0.
<mgrwt>
<rscale>  0 0.66921079E+03</rscale>
<asrwt>0</asrwt>
<pdfrwt beam="1">  1        1 0.48316697E+00 0.77347876E+03</pdfrwt>
<pdfrwt beam="2">  1       -1 0.27961646E-01 0.77347876E+03</pdfrwt>
<totfact> 0.57851338E+00</totfact>
</mgrwt>
</event>
<event>
 4    2  0.4681349E-007  0.6867845E+03  0.7818608E-02  0.1005720E+00
         -1   -1    0    0    0  501 -0.00000000000E+00  0.00000000000E+00  0.12447476186E+04  0.12447476186E+04  0.50400000000E-02 0.  1.
          1   -1    0    0  501    0  0.00000000000E+00 -0.00000000000E+00 -0.36688467269E+03  0.36688467273E+03  0.50400000000E-02 0. -1.
    8880023    1    1    2    0    0  0.14700558512E+03 -0.12748380288E+03  0.10882210693E+04  0.12868170282E+04  0.65864270000E+03 0.  1.
    8880022    1    1    2    0    0 -0.14700558512E+03  0.12748380288E+03 -0.21035812343E+03  0.32481526313E+03  0.15294330000E+03 0.  0.
<mgrwt>
<rscale>  0 0.53211750E+03</rscale>
<asrwt>0</asrwt>
<pdfrwt beam="1">  1        1 0.56443795E-01 0.68678451E+03</pdfrwt>
<pdfrwt beam="2">  1       -1 0.19149964E+00 0.68678451E+03</pdfrwt>
<totfact> 0.12045691E+01</totfact>
</mgrwt>
</event>
<event>
 4    2  0.4681349E-007  0.7032214E+03  0.7818608E-02  0.9984091E-01
         -1   -1    0    0    0  501 -0.00000000000E+00  0.00000000000E+00  0.80622190800E+03  0.80622190801E+03  0.50400000000E-02 0.  1.
          1   -1    0    0  501    0  0.00000000000E+00 -0.00000000000E+00 -0.82146022339E+03  0.82146022341E+03  0.50400000000E-02 0. -1.
    8880023    1    1    2    0    0  0.21207440373E+03  0.12543753353E+03  0.61481765486E+03  0.93408836977E+03  0.65864270000E+03 0.  1.
    8880022    1    1    2    0    0 -0.21207440373E+03 -0.12543753353E+03 -0.63005597026E+03  0.69359376166E+03  0.15294330000E+03 0.  0.
<mgrwt>
<rscale>  0 0.56353346E+03</rscale>
<asrwt>0</asrwt>
<pdfrwt beam="1">  1        1 0.12637850E+00 0.70322140E+03</pdfrwt>
<pdfrwt beam="2">  1       -1 0.12403414E+00 0.70322140E+03</pdfrwt>
<totfact> 0.12525928E+01</totfact>
</mgrwt>
</event>
<event>
 4    2  0.4681349E-007  0.6971949E+03  0.7818608E-02  0.1000904E+00
          1   -1    0    0  501    0  0.00000000000E+00  0.00000000000E+00  0.62641531972E+03  0.62641531974E+03  0.50400000000E-02 0. -1.
         -1   -1    0    0    0  501 -0.00000000000E+00 -0.00000000000E+00 -0.38687941788E+03  0.38687941791E+03  0.50400000000E-02 0.  1.
    8880023    1    1    2    0    0  0.66519062647E+02 -0.21873663603E+03  0.98312986258E+02  0.70409243084E+03  0.65864270000E+03 0.  1.
    8880022    1    1    2    0    0 -0.66519062647E+02  0.21873663603E+03  0.14122291559E+03  0.30920230682E+03  0.15294330000E+03 0. -1.
<mgrwt>
<rscale>  0 0.55255496E+03</rscale>
<asrwt>0</asrwt>
<pdfrwt beam="1">  1        1 0.96371587E-01 0.69719489E+03</pdfrwt>
<pdfrwt beam="2">  1       -1 0.59519911E-01 0.69719489E+03</pdfrwt>
<totfact> 0.94117385E+01</totfact>
</mgrwt>
</event>
<event>
 4    2  0.4681349E-007  0.6620722E+03  0.7818608E-02  0.1022127E+00
         -1   -1    0    0    0  501 -0.00000000000E+00  0.00000000000E+00  0.31154803994E+03  0.31154803998E+03  0.50400000000E-02 0.  1.
          1   -1    0    0  501    0  0.00000000000E+00 -0.00000000000E+00 -0.20539094712E+04  0.20539094712E+04  0.50400000000E-02 0. -1.
    8880023    1    1    2    0    0  0.67188139197E+02 -0.38886164640E+01 -0.49012111626E+02  0.66388384582E+03  0.65864270000E+03 0.  1.
    8880022    1    1    2    0    0 -0.67188139197E+02  0.38886164640E+01 -0.16933493197E+04  0.17015736654E+04  0.15294330000E+03 0.  0.
<mgrwt>
<rscale>  0 0.46926743E+03</rscale>
<asrwt>0</asrwt>
<pdfrwt beam="1">  1        1 0.31598606E+00 0.66207218E+03</pdfrwt>
<pdfrwt beam="2">  1       -1 0.47930469E-01 0.66207218E+03</pdfrwt>
<totfact> 0.12631872E+01</totfact>
</mgrwt>
</event>
<event>
 4    2  0.4681349E-007  0.6803752E+03  0.7818608E-02  0.1009112E+00
         -1   -1    0    0    0  501 -0.00000000000E+00  0.00000000000E+00  0.12288468275E+03  0.12288468285E+03  0.50400000000E-02 0.  1.
          1   -1    0    0  501    0  0.00000000000E+00 -0.00000000000E+00 -0.21453529377E+04  0.21453529377E+04  0.50400000000E-02 0. -1.
    8880023    1    1    2    0    0  0.62689357113E+02 -0.15865149801E+03 -0.93176946247E+03  0.11537351476E+04  0.65864270000E+03 0.  0.
    8880022    1    1    2    0    0 -0.62689357113E+02  0.15865149801E+03 -0.10906987925E+04  0.11145024730E+04  0.15294330000E+03 0. -1.
<mgrwt>
<rscale>  0 0.51829010E+03</rscale>
<asrwt>0</asrwt>
<pdfrwt beam="1">  1        1 0.33005427E+00 0.68037523E+03</pdfrwt>
<pdfrwt beam="2">  1       -1 0.18905337E-01 0.68037523E+03</pdfrwt>
<totfact> 0.55682456E+01</totfact>
</mgrwt>
</event>
<event>
 4    2  0.4681349E-007  0.6676347E+03  0.7818608E-02  0.1017418E+00
          1   -1    0    0  501    0  0.00000000000E+00  0.00000000000E+00  0.15592190678E+04  0.15592190678E+04  0.50400000000E-02 0. -1.
         -1   -1    0    0    0  501 -0.00000000000E+00 -0.00000000000E+00 -0.34878677182E+03  0.34878677186E+03  0.50400000000E-02 0.  1.
    8880023    1    1    2    0    0  0.64817641776E+02  0.87889696943E+02 -0.15438890530E+02  0.66781321574E+03  0.65864270000E+03 0.  1.
    8880022    1    1    2    0    0 -0.64817641776E+02 -0.87889696943E+02  0.12258711865E+04  0.12401926239E+04  0.15294330000E+03 0.  0.
<mgrwt>
<rscale>  0 0.48629864E+03</rscale>
<asrwt>0</asrwt>
<pdfrwt beam="1">  1        1 0.23987986E+00 0.66763473E+03</pdfrwt>
<pdfrwt beam="2">  1       -1 0.53659503E-01 0.66763473E+03</pdfrwt>
<totfact> 0.21838914E+01</totfact>
</mgrwt>
</event>
<event>
 4    2  0.7810669E-007  0.7142129E+03  0.7818608E-02  0.9942677E-01
          1   -1    0    0  501    0  0.00000000000E+00  0.00000000000E+00  0.34021133806E+04  0.34021133806E+04  0.50400000000E-02 0. -1.
         -1   -1    0    0    0  501 -0.00000000000E+00 -0.00000000000E+00 -0.77984547435E+03  0.77984547436E+03  0.50400000000E-02 0.  1.
    8880023    1    1    2    0    0 -0.25308195358E+03  0.11063153381E+03 -0.60699034256E+03  0.93730320266E+03  0.65864270000E+03 0.  0.
    8880022    1    1    2    0    0  0.25308195358E+03 -0.11063153381E+03  0.32292582488E+04  0.32446556523E+04  0.15294330000E+03 0. -1.
<mgrwt>
<rscale>  0 0.58236807E+03</rscale>
<asrwt>0</asrwt>
<pdfrwt beam="1">  1        1 0.52340205E+00 0.71421287E+03</pdfrwt>
<pdfrwt beam="2">  1       -1 0.11997623E+00 0.71421287E+03</pdfrwt>
<totfact> 0.20464733E-01</totfact>
</mgrwt>
</event>
<event>
 4    2  0.4681349E-007  0.7855617E+03  0.7818608E-02  0.9742931E-01
          1   -1    0    0  501    0  0.00000000000E+00  0.00000000000E+00  0.17800972975E+04  0.17800972975E+04  0.50400000000E-02 0. -1.
         -1   -1    0    0    0  501 -0.00000000000E+00 -0.00000000000E+00 -0.22721768855E+03  0.22721768861E+03  0.50400000000E-02 0.  1.
    8880023    1    1    2    0    0  0.39202513299E+03  0.17208497931E+03  0.75817568117E+03  0.10917589087E+04  0.65864270000E+03 0.  1.
    8880022    1    1    2    0    0 -0.39202513299E+03 -0.17208497931E+03  0.79470392775E+03  0.91555607736E+03  0.15294330000E+03 0. -1.
<mgrwt>
<rscale>  0 0.68517228E+03</rscale>
<asrwt>0</asrwt>
<pdfrwt beam="1">  1        1 0.27386113E+00 0.78556168E+03</pdfrwt>
<pdfrwt beam="2">  1       -1 0.34956566E-01 0.78556168E+03</pdfrwt>
<totfact> 0.33653491E+01</totfact>
</mgrwt>
</event>
<event>
 4    2  0.4681349E-007  0.6729348E+03  0.7818608E-02  0.1013641E+00
          1   -1    0    0  501    0  0.00000000000E+00  0.00000000000E+00  0.66937496134E+03  0.66937496136E+03  0.50400000000E-02 0. -1.
         -1   -1    0    0    0  501 -0.00000000000E+00 -0.00000000000E+00 -0.10776172739E+04  0.10776172739E+04  0.50400000000E-02 0.  1.
    8880023    1    1    2    0    0  0.45926428257E+02 -0.13008392831E+03 -0.95183381004E+03  0.11656881544E+04  0.65864270000E+03 0.  1.
    8880022    1    1    2    0    0 -0.45926428257E+02  0.13008392831E+03  0.54359149749E+03  0.58130408082E+03  0.15294330000E+03 0.  0.
<mgrwt>
<rscale>  0 0.50052937E+03</rscale>
<asrwt>0</asrwt>
<pdfrwt beam="1">  1        1 0.10298076E+00 0.67293482E+03</pdfrwt>
<pdfrwt beam="2">  1       -1 0.16578727E+00 0.67293482E+03</pdfrwt>
<totfact> 0.80436025E+00</totfact>
</mgrwt>
</event>
<event>
 4    2  0.4681349E-007  0.9085235E+03  0.7818608E-02  0.9512485E-01
         -1   -1    0    0    0  501 -0.00000000000E+00  0.00000000000E+00  0.52642403073E+03  0.52642403076E+03  0.50400000000E-02 0.  1.
          1   -1    0    0  501    0  0.00000000000E+00 -0.00000000000E+00 -0.19256834745E+04  0.19256834745E+04  0.50400000000E-02 0. -1.
    8880023    1    1    2    0    0  0.43071229731E+01 -0.62576853222E+03  0.34645561754E+01  0.90853014074E+03  0.65864270000E+03 0.  1.
    8880022    1    1    2    0    0 -0.43071229731E+01  0.62576853222E+03 -0.14027239999E+04  0.15435773645E+04  0.15294330000E+03 0.  0.
<mgrwt>
<rscale>  0 0.83369594E+03</rscale>
<asrwt>0</asrwt>
<pdfrwt beam="1">  1        1 0.29625899E+00 0.90852353E+03</pdfrwt>
<pdfrwt beam="2">  1       -1 0.80988313E-01 0.90852353E+03</pdfrwt>
<totfact> 0.52017632E+00</totfact>
</mgrwt>
</event>
<event>
 4    2  0.4681349E-007  0.8333522E+03  0.7818608E-02  0.9642845E-01
         -1   -1    0    0    0  501 -0.00000000000E+00  0.00000000000E+00  0.38716080614E+03  0.38716080617E+03  0.50400000000E-02 0.  1.
          1   -1    0    0  501    0  0.00000000000E+00 -0.00000000000E+00 -0.15802693817E+04  0.15802693817E+04  0.50400000000E-02 0. -1.
    8880023    1    1    2    0    0  0.23598383397E+03  0.45274418924E+03 -0.22643655917E+03  0.86356782732E+03  0.65864270000E+03 0.  1.
    8880022    1    1    2    0    0 -0.23598383397E+03 -0.45274418924E+03 -0.96667201639E+03  0.11038623606E+04  0.15294330000E+03 0.  0.
<mgrwt>
<rscale>  0 0.74524176E+03</rscale>
<asrwt>0</asrwt>
<pdfrwt beam="1">  1        1 0.24311836E+00 0.83335219E+03</pdfrwt>
<pdfrwt beam="2">  1       -1 0.59563202E-01 0.83335219E+03</pdfrwt>
<totfact> 0.16869829E+01</totfact>
</mgrwt>
</event>
<event>
 4    2  0.4681349E-007  0.7050511E+03  0.7818608E-02  0.9976859E-01
         -1   -1    0    0    0  501 -0.00000000000E+00  0.00000000000E+00  0.22624449027E+03  0.22624449033E+03  0.50400000000E-02 0.  1.
          1   -1    0    0  501    0  0.00000000000E+00 -0.00000000000E+00 -0.23989429016E+04  0.23989429016E+04  0.50400000000E-02 0. -1.
    8880023    1    1    2    0    0 -0.23496391832E+03  0.89882103213E+02 -0.36548796714E+03  0.79415269047E+03  0.65864270000E+03 0.  1.
    8880022    1    1    2    0    0  0.23496391832E+03 -0.89882103213E+02 -0.18072104442E+04  0.18310347015E+04  0.15294330000E+03 0.  0.
<mgrwt>
<rscale>  0 0.56676674E+03</rscale>
<asrwt>0</asrwt>
<pdfrwt beam="1">  1        1 0.36906812E+00 0.70505109E+03</pdfrwt>
<pdfrwt beam="2">  1       -1 0.34806846E-01 0.70505109E+03</pdfrwt>
<totfact> 0.13186995E+01</totfact>
</mgrwt>
</event>
<event>
 4    2  0.4681349E-007  0.7197720E+03  0.7818608E-02  0.9923358E-01
         -1   -1    0    0    0  501 -0.00000000000E+00  0.00000000000E+00  0.35017448646E+03  0.35017448650E+03  0.50400000000E-02 0.  1.
          1   -1    0    0  501    0  0.00000000000E+00 -0.00000000000E+00 -0.18432865987E+04  0.18432865987E+04  0.50400000000E-02 0. -1.
    8880023    1    1    2    0    0 -0.15716088584E+03  0.24405317412E+03 -0.58878431069E+02  0.72217613623E+03  0.65864270000E+03 0.  1.
    8880022    1    1    2    0    0  0.15716088584E+03 -0.24405317412E+03 -0.14342336812E+04  0.14712849490E+04  0.15294330000E+03 0.  0.
<mgrwt>
<rscale>  0 0.59142482E+03</rscale>
<asrwt>0</asrwt>
<pdfrwt beam="1">  1        1 0.28358255E+00 0.71977198E+03</pdfrwt>
<pdfrwt beam="2">  1       -1 0.53872999E-01 0.71977198E+03</pdfrwt>
<totfact> 0.13852547E+01</totfact>
</mgrwt>
</event>
<event>
 4    2  0.4681349E-007  0.6874484E+03  0.7818608E-02  0.1005390E+00
         -1   -1    0    0    0  501 -0.00000000000E+00  0.00000000000E+00  0.12801294865E+04  0.12801294865E+04  0.50400000000E-02 0.  1.
          1   -1    0    0  501    0  0.00000000000E+00 -0.00000000000E+00 -0.24236559892E+03  0.24236559897E+03  0.50400000000E-02 0. -1.
    8880023    1    1    2    0    0  0.19250681372E+03 -0.41426848567E+02  0.10692596738E+04  0.12711811489E+04  0.65864270000E+03 0.  1.
    8880022    1    1    2    0    0 -0.19250681372E+03  0.41426848567E+02 -0.31495786273E+02  0.25131393650E+03  0.15294330000E+03 0.  0.
<mgrwt>
<rscale>  0 0.53348818E+03</rscale>
<asrwt>0</asrwt>
<pdfrwt beam="1">  1        1 0.37287015E-01 0.68744837E+03</pdfrwt>
<pdfrwt beam="2">  1       -1 0.19694300E+00 0.68744837E+03</pdfrwt>
<totfact> 0.18912766E+01</totfact>
</mgrwt>
</event>
<event>
 4    2  0.4681349E-007  0.1103125E+04  0.7818608E-02  0.9257585E-01
          1   -1    0    0  501    0  0.00000000000E+00  0.00000000000E+00  0.26572272474E+04  0.26572272474E+04  0.50400000000E-02 0. -1.
         -1   -1    0    0    0  501 -0.00000000000E+00 -0.00000000000E+00 -0.37725219815E+03  0.37725219818E+03  0.50400000000E-02 0.  1.
    8880023    1    1    2    0    0 -0.73247213451E+03  0.49654772972E+03  0.12026481871E+04  0.16319460603E+04  0.65864270000E+03 0. -1.
    8880022    1    1    2    0    0  0.73247213451E+03 -0.49654772972E+03  0.10773268622E+04  0.14025333852E+04  0.15294330000E+03 0.  1.
<mgrwt>
<rscale>  0 0.10478326E+04</rscale>
<asrwt>0</asrwt>
<pdfrwt beam="1">  1        1 0.40880419E+00 0.11031252E+04</pdfrwt>
<pdfrwt beam="2">  1       -1 0.58038800E-01 0.11031252E+04</pdfrwt>
<totfact> 0.31874361E+00</totfact>
</mgrwt>
</event>
<event>
 4    2  0.4681349E-007  0.8176827E+03  0.7818608E-02  0.9673791E-01
          1   -1    0    0  501    0  0.00000000000E+00  0.00000000000E+00  0.16012208988E+04  0.16012208988E+04  0.50400000000E-02 0. -1.
         -1   -1    0    0    0  501 -0.00000000000E+00 -0.00000000000E+00 -0.40154613027E+03  0.40154613030E+03  0.50400000000E-02 0.  1.
    8880023    1    1    2    0    0 -0.42159010962E+03  0.23886501908E+03  0.14275606734E+03  0.83005073273E+03  0.65864270000E+03 0.  1.
    8880022    1    1    2    0    0  0.42159010962E+03 -0.23886501908E+03  0.10569187012E+04  0.11727162964E+04  0.15294330000E+03 0.  0.
<mgrwt>
<rscale>  0 0.72598936E+03</rscale>
<asrwt>0</asrwt>
<pdfrwt beam="1">  1        1 0.24634168E+00 0.81768265E+03</pdfrwt>
<pdfrwt beam="2">  1       -1 0.61776328E-01 0.81768265E+03</pdfrwt>
<totfact> 0.15217880E+01</totfact>
</mgrwt>
</event>
<event>
 4    2  0.4681349E-007  0.8361454E+03  0.7818608E-02  0.9637492E-01
          1   -1    0    0  501    0  0.00000000000E+00  0.00000000000E+00  0.59808926667E+03  0.59808926669E+03  0.50400000000E-02 0. -1.
         -1   -1    0    0    0  501 -0.00000000000E+00 -0.00000000000E+00 -0.13105333322E+04  0.13105333322E+04  0.50400000000E-02 0.  1.
    8880023    1    1    2    0    0  0.40859783173E+03  0.31365069822E+03 -0.99650458277E+03  0.13008307109E+04  0.65864270000E+03 0.  0.
    8880022    1    1    2    0    0 -0.40859783173E+03 -0.31365069822E+03  0.28406051729E+03  0.60779188798E+03  0.15294330000E+03 0.  0.
<mgrwt>
<rscale>  0 0.74863664E+03</rscale>
<asrwt>0</asrwt>
<pdfrwt beam="1">  1        1 0.92013733E-01 0.83614541E+03</pdfrwt>
<pdfrwt beam="2">  1       -1 0.20162051E+00 0.83614541E+03</pdfrwt>
<totfact> 0.51672134E+00</totfact>
</mgrwt>
</event>
<event>
 4    2  0.4681349E-007  0.9973418E+03  0.7818608E-02  0.9385044E-01
          1   -1    0    0  501    0  0.00000000000E+00  0.00000000000E+00  0.15612034593E+04  0.15612034594E+04  0.50400000000E-02 0. -1.
         -1   -1    0    0    0  501 -0.00000000000E+00 -0.00000000000E+00 -0.96174284224E+03  0.96174284225E+03  0.50400000000E-02 0.  1.
    8880023    1    1    2    0    0  0.62159041876E+03  0.41773889735E+03 -0.55272893735E+03  0.11402630922E+04  0.65864270000E+03 0.  1.
    8880022    1    1    2    0    0 -0.62159041876E+03 -0.41773889735E+03  0.11521895545E+04  0.13826832094E+04  0.15294330000E+03 0.  0.
<mgrwt>
<rscale>  0 0.93316814E+03</rscale>
<asrwt>0</asrwt>
<pdfrwt beam="1">  1        1 0.24018515E+00 0.99734179E+03</pdfrwt>
<pdfrwt beam="2">  1       -1 0.14796044E+00 0.99734179E+03</pdfrwt>
<totfact> 0.21619652E+00</totfact>
</mgrwt>
</event>
<event>
 4    2  0.4681349E-007  0.6804222E+03  0.7818608E-02  0.1009086E+00
          1   -1    0    0  501    0  0.00000000000E+00  0.00000000000E+00  0.10548587072E+04  0.10548587072E+04  0.50400000000E-02 0. -1.
         -1   -1    0    0    0  501 -0.00000000000E+00 -0.00000000000E+00 -0.26950457904E+03  0.26950457909E+03  0.50400000000E-02 0.  1.
    8880023    1    1    2    0    0  0.11412302507E+03 -0.12704393654E+03  0.22130683632E+03  0.71550761612E+03  0.65864270000E+03 0.  1.
    8880022    1    1    2    0    0 -0.11412302507E+03  0.12704393654E+03  0.56404729182E+03  0.60885567016E+03  0.15294330000E+03 0. -1.
<mgrwt>
<rscale>  0 0.51839588E+03</rscale>
<asrwt>0</asrwt>
<pdfrwt beam="1">  1        1 0.16228596E+00 0.68042225E+03</pdfrwt>
<pdfrwt beam="2">  1       -1 0.41462243E-01 0.68042225E+03</pdfrwt>
<totfact> 0.80399495E+01</totfact>
</mgrwt>
</event>
<event>
 4    2  0.4681349E-007  0.6900103E+03  0.7818608E-02  0.1004148E+00
         -1   -1    0    0    0  501 -0.00000000000E+00  0.00000000000E+00  0.27976544811E+03  0.27976544816E+03  0.50400000000E-02 0.  1.
          1   -1    0    0  501    0  0.00000000000E+00 -0.00000000000E+00 -0.12361023292E+04  0.12361023292E+04  0.50400000000E-02 0. -1.
    8880023    1    1    2    0    0 -0.13291632738E+03 -0.15696243175E+03 -0.20169288558E+03  0.71888398328E+03  0.65864270000E+03 0.  1.
    8880022    1    1    2    0    0  0.13291632738E+03  0.15696243175E+03 -0.75464399553E+03  0.79698379411E+03  0.15294330000E+03 0.  0.
<mgrwt>
<rscale>  0 0.53868354E+03</rscale>
<asrwt>0</asrwt>
<pdfrwt beam="1">  1        1 0.19016959E+00 0.69001026E+03</pdfrwt>
<pdfrwt beam="2">  1       -1 0.43040839E-01 0.69001026E+03</pdfrwt>
<totfact> 0.55205524E+01</totfact>
</mgrwt>
</event>
<event>
 4    2  0.4681349E-007  0.7953111E+03  0.7818608E-02  0.9721028E-01
         -1   -1    0    0    0  501 -0.00000000000E+00  0.00000000000E+00  0.15312690836E+04  0.15312690836E+04  0.50400000000E-02 0.  1.
          1   -1    0    0  501    0  0.00000000000E+00 -0.00000000000E+00 -0.41801667180E+03  0.41801667183E+03  0.50400000000E-02 0. -1.
    8880023    1    1    2    0    0  0.41380649065E+03 -0.16575200920E+03  0.12291096095E+04  0.14639775199E+04  0.65864270000E+03 0.  0.
    8880022    1    1    2    0    0 -0.41380649065E+03  0.16575200920E+03 -0.11585719768E+03  0.48530823558E+03  0.15294330000E+03 0.  0.
<mgrwt>
<rscale>  0 0.69778502E+03</rscale>
<asrwt>0</asrwt>
<pdfrwt beam="1">  1        1 0.64310259E-01 0.79531110E+03</pdfrwt>
<pdfrwt beam="2">  1       -1 0.23557985E+00 0.79531110E+03</pdfrwt>
<totfact> 0.50598931E+00</totfact>
</mgrwt>
</event>
<event>
 4    2  0.4681349E-007  0.1170387E+04  0.7818608E-02  0.9186460E-01
          1   -1    0    0  501    0  0.00000000000E+00  0.00000000000E+00  0.23911459243E+04  0.23911459243E+04  0.50400000000E-02 0. -1.
         -1   -1    0    0    0  501 -0.00000000000E+00 -0.00000000000E+00 -0.85371592287E+03  0.85371592288E+03  0.50400000000E-02 0.  1.
    8880023    1    1    2    0    0  0.56358794778E+03  0.78636084656E+03 -0.25904999848E+03  0.11987125860E+04  0.65864270000E+03 0.  1.
    8880022    1    1    2    0    0 -0.56358794778E+03 -0.78636084656E+03  0.17964799999E+04  0.20461492612E+04  0.15294330000E+03 0. -1.
<mgrwt>
<rscale>  0 0.11194281E+04</rscale>
<asrwt>0</asrwt>
<pdfrwt beam="1">  1        1 0.36786860E+00 0.11703867E+04</pdfrwt>
<pdfrwt beam="2">  1       -1 0.13134091E+00 0.11703867E+04</pdfrwt>
<totfact> 0.78885287E-01</totfact>
</mgrwt>
</event>
<event>
 4    2  0.4681349E-007  0.7807971E+03  0.7818608E-02  0.9753968E-01
         -1   -1    0    0    0  501 -0.00000000000E+00  0.00000000000E+00  0.39182822481E+03  0.39182822484E+03  0.50400000000E-02 0.  1.
          1   -1    0    0  501    0  0.00000000000E+00 -0.00000000000E+00 -0.12477376576E+04  0.12477376577E+04  0.50400000000E-02 0. -1.
    8880023    1    1    2    0    0 -0.18625325075E+03 -0.37569090616E+03 -0.13605589328E+03  0.79256251662E+03  0.65864270000E+03 0.  0.
    8880022    1    1    2    0    0  0.18625325075E+03  0.37569090616E+03 -0.71985353955E+03  0.84700336588E+03  0.15294330000E+03 0.  0.
<mgrwt>
<rscale>  0 0.67892498E+03</rscale>
<asrwt>0</asrwt>
<pdfrwt beam="1">  1        1 0.19195964E+00 0.78079712E+03</pdfrwt>
<pdfrwt beam="2">  1       -1 0.60281266E-01 0.78079712E+03</pdfrwt>
<totfact> 0.28241579E+01</totfact>
</mgrwt>
</event>
<event>
 4    2  0.4681349E-007  0.7746228E+03  0.7818608E-02  0.9768623E-01
          1   -1    0    0  501    0  0.00000000000E+00  0.00000000000E+00  0.17961875364E+04  0.17961875364E+04  0.50400000000E-02 0. -1.
         -1   -1    0    0    0  501 -0.00000000000E+00 -0.00000000000E+00 -0.35610915529E+03  0.35610915532E+03  0.50400000000E-02 0.  1.
    8880023    1    1    2    0    0 -0.77184568253E+02  0.40034082147E+03  0.14776553289E+03  0.78859057177E+03  0.65864270000E+03 0.  1.
    8880022    1    1    2    0    0  0.77184568253E+02 -0.40034082147E+03  0.12923128482E+04  0.13637061200E+04  0.15294330000E+03 0. -1.
<mgrwt>
<rscale>  0 0.67073930E+03</rscale>
<asrwt>0</asrwt>
<pdfrwt beam="1">  1        1 0.27633654E+00 0.77462277E+03</pdfrwt>
<pdfrwt beam="2">  1       -1 0.54786025E-01 0.77462277E+03</pdfrwt>
<totfact> 0.14306554E+01</totfact>
</mgrwt>
</event>
<event>
 4    2  0.4681349E-007  0.7491372E+03  0.7818608E-02  0.9834088E-01
          1   -1    0    0  501    0  0.00000000000E+00  0.00000000000E+00  0.14423172297E+04  0.14423172297E+04  0.50400000000E-02 0. -1.
         -1   -1    0    0    0  501 -0.00000000000E+00 -0.00000000000E+00 -0.52250341242E+03  0.52250341245E+03  0.50400000000E-02 0.  1.
    8880023    1    1    2    0    0  0.23006666333E+03  0.27288386882E+03 -0.20349812045E+03  0.77628472014E+03  0.65864270000E+03 0.  1.
    8880022    1    1    2    0    0 -0.23006666333E+03 -0.27288386882E+03  0.11233119377E+04  0.11885359220E+04  0.15294330000E+03 0.  0.
<mgrwt>
<rscale>  0 0.63564821E+03</rscale>
<asrwt>0</asrwt>
<pdfrwt beam="1">  1        1 0.22189495E+00 0.74913716E+03</pdfrwt>
<pdfrwt beam="2">  1       -1 0.80385142E-01 0.74913716E+03</pdfrwt>
<totfact> 0.11489844E+01</totfact>
</mgrwt>
</event>
<event>
 4    2  0.4681349E-007  0.1007891E+04  0.7818608E-02  0.9371305E-01
         -1   -1    0    0    0  501 -0.00000000000E+00  0.00000000000E+00  0.12633023719E+04  0.12633023719E+04  0.50400000000E-02 0.  1.
          1   -1    0    0  501    0  0.00000000000E+00 -0.00000000000E+00 -0.98864913045E+03  0.98864913046E+03  0.50400000000E-02 0. -1.
    8880023    1    1    2    0    0 -0.58620549329E+03 -0.48825996185E+03  0.82203391488E+03  0.13006093319E+04  0.65864270000E+03 0.  1.
    8880022    1    1    2    0    0  0.58620549329E+03  0.48825996185E+03 -0.54738067343E+03  0.95134217050E+03  0.15294330000E+03 0.  0.
<mgrwt>
<rscale>  0 0.94475225E+03</rscale>
<asrwt>0</asrwt>
<pdfrwt beam="1">  1        1 0.15209987E+00 0.10078913E+04</pdfrwt>
<pdfrwt beam="2">  1       -1 0.19435421E+00 0.10078913E+04</pdfrwt>
<totfact> 0.25514970E+00</totfact>
</mgrwt>
</event>
<event>
 4    2  0.4681349E-007  0.8793037E+03  0.7818608E-02  0.9560107E-01
          1   -1    0    0  501    0  0.00000000000E+00  0.00000000000E+00  0.33977180543E+03  0.33977180546E+03  0.50400000000E-02 0. -1.
         -1   -1    0    0    0  501 -0.00000000000E+00 -0.00000000000E+00 -0.20057165292E+04  0.20057165292E+04  0.50400000000E-02 0.  1.
    8880023    1    1    2    0    0 -0.84181873406E+02  0.57643582064E+03 -0.14685565271E+04  0.17116755892E+04  0.65864270000E+03 0.  1.
    8880022    1    1    2    0    0  0.84181873406E+02 -0.57643582064E+03 -0.19738819669E+03  0.63381274548E+03  0.15294330000E+03 0.  0.
<mgrwt>
<rscale>  0 0.79993756E+03</rscale>
<asrwt>0</asrwt>
<pdfrwt beam="1">  1        1 0.52272587E-01 0.87930373E+03</pdfrwt>
<pdfrwt beam="2">  1       -1 0.30857177E+00 0.87930373E+03</pdfrwt>
<totfact> 0.22317226E+00</totfact>
</mgrwt>
</event>
<event>
 4    2  0.4681349E-007  0.9894552E+03  0.7818608E-02  0.9395485E-01
         -1   -1    0    0    0  501 -0.00000000000E+00  0.00000000000E+00  0.30386185534E+03  0.30386185538E+03  0.50400000000E-02 0.  1.
          1   -1    0    0  501    0  0.00000000000E+00 -0.00000000000E+00 -0.26158795043E+04  0.26158795043E+04  0.50400000000E-02 0. -1.
    8880023    1    1    2    0    0  0.23215944741E+03 -0.70093755094E+03 -0.16084830979E+04  0.18884489778E+04  0.65864270000E+03 0. -1.
    8880022    1    1    2    0    0 -0.23215944741E+03  0.70093755094E+03 -0.70353455108E+03  0.10312923819E+04  0.15294330000E+03 0.  0.
<mgrwt>
<rscale>  0 0.92448159E+03</rscale>
<asrwt>0</asrwt>
<pdfrwt beam="1">  1        1 0.40244299E+00 0.98945524E+03</pdfrwt>
<pdfrwt beam="2">  1       -1 0.46747980E-01 0.98945524E+03</pdfrwt>
<totfact> 0.52390201E+00</totfact>
</mgrwt>
</event>
<event>
 4    2  0.4681349E-007  0.7107117E+03  0.7818608E-02  0.9955368E-01
         -1   -1    0    0    0  501 -0.00000000000E+00  0.00000000000E+00  0.16126937297E+04  0.16126937297E+04  0.50400000000E-02 0.  1.
          1   -1    0    0  501    0  0.00000000000E+00 -0.00000000000E+00 -0.21550255049E+03  0.21550255055E+03  0.50400000000E-02 0. -1.
    8880023    1    1    2    0    0  0.13912574465E+03  0.22791439116E+03  0.13376981872E+04  0.15147764155E+04  0.65864270000E+03 0. -1.
    8880022    1    1    2    0    0 -0.13912574465E+03 -0.22791439116E+03  0.59492991976E+02  0.31341986477E+03  0.15294330000E+03 0.  0.
<mgrwt>
<rscale>  0 0.57651367E+03</rscale>
<asrwt>0</asrwt>
<pdfrwt beam="1">  1        1 0.33154238E-01 0.71071172E+03</pdfrwt>
<pdfrwt beam="2">  1       -1 0.24810673E+00 0.71071172E+03</pdfrwt>
<totfact> 0.10062803E+01</totfact>
</mgrwt>
</event>
<event>
 4    2  0.4681349E-007  0.7256143E+03  0.7818608E-02  0.9904028E-01
         -1   -1    0    0    0  501 -0.00000000000E+00  0.00000000000E+00  0.42857292522E+03  0.42857292525E+03  0.50400000000E-02 0.  1.
          1   -1    0    0  501    0  0.00000000000E+00 -0.00000000000E+00 -0.14398545339E+04  0.14398545339E+04  0.50400000000E-02 0. -1.
    8880023    1    1    2    0    0 -0.23011002657E+03 -0.19938713583E+03  0.75455202955E+02  0.72952693451E+03  0.65864270000E+03 0.  0.
    8880022    1    1    2    0    0  0.23011002657E+03  0.19938713583E+03 -0.10867368117E+04  0.11389005247E+04  0.15294330000E+03 0.  0.
<mgrwt>
<rscale>  0 0.60066485E+03</rscale>
<asrwt>0</asrwt>
<pdfrwt beam="1">  1        1 0.22151608E+00 0.72561426E+03</pdfrwt>
<pdfrwt beam="2">  1       -1 0.65934297E-01 0.72561426E+03</pdfrwt>
<totfact> 0.17435438E+01</totfact>
</mgrwt>
</event>
<event>
 4    2  0.4681349E-007  0.7993050E+03  0.7818608E-02  0.9712301E-01
          1   -1    0    0  501    0  0.00000000000E+00  0.00000000000E+00  0.37892218672E+03  0.37892218675E+03  0.50400000000E-02 0. -1.
         -1   -1    0    0    0  501 -0.00000000000E+00 -0.00000000000E+00 -0.24504303312E+04  0.24504303312E+04  0.50400000000E-02 0.  1.
    8880023    1    1    2    0    0 -0.70344436851E+02 -0.44735891705E+03 -0.10569500026E+03  0.80626297187E+03  0.65864270000E+03 0. -1.
    8880022    1    1    2    0    0  0.70344436851E+02  0.44735891705E+03 -0.19658131442E+04  0.20230895460E+04  0.15294330000E+03 0.  0.
<mgrwt>
<rscale>  0 0.70289112E+03</rscale>
<asrwt>0</asrwt>
<pdfrwt beam="1">  1        1 0.58295723E-01 0.79930504E+03</pdfrwt>
<pdfrwt beam="2">  1       -1 0.37698927E+00 0.79930504E+03</pdfrwt>
<totfact> 0.69910437E-01</totfact>
</mgrwt>
</event>
<event>
 4    2  0.4681349E-007  0.8057696E+03  0.7818608E-02  0.9698457E-01
          1   -1    0    0  501    0  0.00000000000E+00  0.00000000000E+00  0.10406405156E+04  0.10406405156E+04  0.50400000000E-02 0. -1.
         -1   -1    0    0    0  501 -0.00000000000E+00 -0.00000000000E+00 -0.13580381282E+04  0.13580381283E+04  0.50400000000E-02 0.  1.
    8880023    1    1    2    0    0  0.10270070634E+00 -0.46417063100E+03 -0.11672303846E+04  0.14183410599E+04  0.65864270000E+03 0.  1.
    8880022    1    1    2    0    0 -0.10270070634E+00  0.46417063100E+03  0.84983277197E+03  0.98033758398E+03  0.15294330000E+03 0.  0.
<mgrwt>
<rscale>  0 0.71108726E+03</rscale>
<asrwt>0</asrwt>
<pdfrwt beam="1">  1        1 0.16009854E+00 0.80576956E+03</pdfrwt>
<pdfrwt beam="2">  1       -1 0.20892894E+00 0.80576956E+03</pdfrwt>
<totfact> 0.19031507E+00</totfact>
</mgrwt>
</event>
<event>
 4    2  0.4681349E-007  0.1007557E+04  0.7818608E-02  0.9371736E-01
          1   -1    0    0  501    0  0.00000000000E+00  0.00000000000E+00  0.21274243213E+04  0.21274243213E+04  0.50400000000E-02 0. -1.
         -1   -1    0    0    0  501 -0.00000000000E+00 -0.00000000000E+00 -0.10289818751E+04  0.10289818752E+04  0.50400000000E-02 0.  1.
    8880023    1    1    2    0    0 -0.59158150336E+03 -0.48103324765E+03 -0.67987707347E+03  0.12154853770E+04  0.65864270000E+03 0.  1.
    8880022    1    1    2    0    0  0.59158150336E+03  0.48103324765E+03  0.17783195196E+04  0.19409208194E+04  0.15294330000E+03 0.  0.
<mgrwt>
<rscale>  0 0.94438618E+03</rscale>
<asrwt>0</asrwt>
<pdfrwt beam="1">  1        1 0.32729605E+00 0.10075574E+04</pdfrwt>
<pdfrwt beam="2">  1       -1 0.15830490E+00 0.10075574E+04</pdfrwt>
<totfact> 0.74351594E-01</totfact>
</mgrwt>
</event>
<event>
 4    2  0.4681349E-007  0.7100984E+03  0.7818608E-02  0.9957636E-01
         -1   -1    0    0    0  501 -0.00000000000E+00  0.00000000000E+00  0.70423835787E+03  0.70423835789E+03  0.50400000000E-02 0.  1.
          1   -1    0    0  501    0  0.00000000000E+00 -0.00000000000E+00 -0.81216031410E+03  0.81216031412E+03  0.50400000000E-02 0. -1.
    8880023    1    1    2    0    0  0.12969725858E+03 -0.23153438286E+03  0.47748140077E+03  0.85570336196E+03  0.65864270000E+03 0.  1.
    8880022    1    1    2    0    0 -0.12969725858E+03  0.23153438286E+03 -0.58540335700E+03  0.66069531005E+03  0.15294330000E+03 0.  0.
<mgrwt>
<rscale>  0 0.57547509E+03</rscale>
<asrwt>0</asrwt>
<pdfrwt beam="1">  1        1 0.12494774E+00 0.71009841E+03</pdfrwt>
<pdfrwt beam="2">  1       -1 0.10834436E+00 0.71009841E+03</pdfrwt>
<totfact> 0.17636657E+01</totfact>
</mgrwt>
</event>
<event>
 4    2  0.4681349E-007  0.6643382E+03  0.7818608E-02  0.1020095E+00
          1   -1    0    0  501    0  0.00000000000E+00  0.00000000000E+00  0.21902669505E+03  0.21902669511E+03  0.50400000000E-02 0. -1.
         -1   -1    0    0    0  501 -0.00000000000E+00 -0.00000000000E+00 -0.15812407501E+04  0.15812407502E+04  0.50400000000E-02 0.  1.
    8880023    1    1    2    0    0  0.53916856384E+02 -0.68029511633E+02 -0.14564069548E+04  0.16007705851E+04  0.65864270000E+03 0.  1.
    8880022    1    1    2    0    0 -0.53916856384E+02  0.68029511633E+02  0.94192899686E+02  0.19949686018E+03  0.15294330000E+03 0.  0.
<mgrwt>
<rscale>  0 0.47652272E+03</rscale>
<asrwt>0</asrwt>
<pdfrwt beam="1">  1        1 0.33696416E-01 0.66433820E+03</pdfrwt>
<pdfrwt beam="2">  1       -1 0.24326780E+00 0.66433820E+03</pdfrwt>
<totfact> 0.10652903E+01</totfact>
</mgrwt>
</event>
<event>
 4    2  0.4681349E-007  0.7992229E+03  0.7818608E-02  0.9712479E-01
          1   -1    0    0  501    0  0.00000000000E+00  0.00000000000E+00  0.46747880913E+03  0.46747880916E+03  0.50400000000E-02 0. -1.
         -1   -1    0    0    0  501 -0.00000000000E+00 -0.00000000000E+00 -0.11517446978E+04  0.11517446978E+04  0.50400000000E-02 0.  1.
    8880023    1    1    2    0    0 -0.38308122644E+03 -0.24123793755E+03 -0.79652566979E+03  0.11283662160E+04  0.65864270000E+03 0.  0.
    8880022    1    1    2    0    0  0.38308122644E+03  0.24123793755E+03  0.11225978115E+03  0.49085729091E+03  0.15294330000E+03 0.  0.
<mgrwt>
<rscale>  0 0.70278639E+03</rscale>
<asrwt>0</asrwt>
<pdfrwt beam="1">  1        1 0.71919817E-01 0.79922286E+03</pdfrwt>
<pdfrwt beam="2">  1       -1 0.17719149E+00 0.79922286E+03</pdfrwt>
<totfact> 0.10856968E+01</totfact>
</mgrwt>
</event>
<event>
 4    2  0.4681349E-007  0.6752740E+03  0.7818608E-02  0.1012134E+00
          1   -1    0    0  501    0  0.00000000000E+00  0.00000000000E+00  0.94903240565E+03  0.94903240566E+03  0.50400000000E-02 0. -1.
         -1   -1    0    0    0  501 -0.00000000000E+00 -0.00000000000E+00 -0.45150574902E+03  0.45150574904E+03  0.50400000000E-02 0.  1.
    8880023    1    1    2    0    0 -0.13864354859E+02 -0.14829899295E+03 -0.17280317140E+03  0.69703368208E+03  0.65864270000E+03 0.  0.
    8880022    1    1    2    0    0  0.13864354859E+02  0.14829899295E+03  0.67032982803E+03  0.70350447262E+03  0.15294330000E+03 0. -1.
<mgrwt>
<rscale>  0 0.50635210E+03</rscale>
<asrwt>0</asrwt>
<pdfrwt beam="1">  1        1 0.14600499E+00 0.67527403E+03</pdfrwt>
<pdfrwt beam="2">  1       -1 0.69462423E-01 0.67527403E+03</pdfrwt>
<totfact> 0.35997238E+01</totfact>
</mgrwt>
</event>
<event>
 4    2  0.4681349E-007  0.9799177E+03  0.7818608E-02  0.9408316E-01
         -1   -1    0    0    0  501 -0.00000000000E+00  0.00000000000E+00  0.19251449220E+04  0.19251449221E+04  0.50400000000E-02 0.  1.
          1   -1    0    0  501    0  0.00000000000E+00 -0.00000000000E+00 -0.40904484582E+03  0.40904484585E+03  0.50400000000E-02 0. -1.
    8880023    1    1    2    0    0 -0.56360130931E+02 -0.72336159887E+03  0.57532656901E+03  0.11363271247E+04  0.65864270000E+03 0.  0.
    8880022    1    1    2    0    0  0.56360130931E+02  0.72336159887E+03  0.94077350721E+03  0.11978626432E+04  0.15294330000E+03 0.  0.
<mgrwt>
<rscale>  0 0.91394440E+03</rscale>
<asrwt>0</asrwt>
<pdfrwt beam="1">  1        1 0.62929977E-01 0.97991769E+03</pdfrwt>
<pdfrwt beam="2">  1       -1 0.29617614E+00 0.97991769E+03</pdfrwt>
<totfact> 0.20698613E+00</totfact>
</mgrwt>
</event>
<event>
 4    2  0.4681349E-007  0.7286026E+03  0.7818608E-02  0.9894485E-01
         -1   -1    0    0    0  501 -0.00000000000E+00  0.00000000000E+00  0.29314666517E+03  0.29314666521E+03  0.50400000000E-02 0.  1.
          1   -1    0    0  501    0  0.00000000000E+00 -0.00000000000E+00 -0.10561395414E+04  0.10561395414E+04  0.50400000000E-02 0. -1.
    8880023    1    1    2    0    0 -0.28529791965E+03  0.12512637663E+03 -0.67039393004E+03  0.99009582404E+03  0.65864270000E+03 0.  0.
    8880022    1    1    2    0    0  0.28529791965E+03 -0.12512637663E+03 -0.92598946180E+02  0.35919038258E+03  0.15294330000E+03 0.  0.
<mgrwt>
<rscale>  0 0.60529321E+03</rscale>
<asrwt>0</asrwt>
<pdfrwt beam="1">  1        1 0.16248300E+00 0.72860258E+03</pdfrwt>
<pdfrwt beam="2">  1       -1 0.45099487E-01 0.72860258E+03</pdfrwt>
<totfact> 0.68394577E+01</totfact>
</mgrwt>
</event>
<event>
 4    2  0.4681349E-007  0.8861633E+03  0.7818608E-02  0.9548619E-01
         -1   -1    0    0    0  501 -0.00000000000E+00  0.00000000000E+00  0.19955331626E+03  0.19955331632E+03  0.50400000000E-02 0.  1.
          1   -1    0    0  501    0  0.00000000000E+00 -0.00000000000E+00 -0.33861686079E+04  0.33861686079E+04  0.50400000000E-02 0. -1.
    8880023    1    1    2    0    0 -0.50591141107E+03  0.30907742930E+03 -0.11078583624E+04  0.14186738775E+04  0.65864270000E+03 0.  1.
    8880022    1    1    2    0    0  0.50591141107E+03 -0.30907742930E+03 -0.20787569292E+04  0.21670480468E+04  0.15294330000E+03 0.  0.
<mgrwt>
<rscale>  0 0.80792297E+03</rscale>
<asrwt>0</asrwt>
<pdfrwt beam="1">  1        1 0.52094897E+00 0.88616331E+03</pdfrwt>
<pdfrwt beam="2">  1       -1 0.30700513E-01 0.88616331E+03</pdfrwt>
<totfact> 0.31634802E+00</totfact>
</mgrwt>
</event>
<event>
 4    2  0.4681349E-007  0.8619919E+03  0.7818608E-02  0.9590030E-01
          1   -1    0    0  501    0  0.00000000000E+00  0.00000000000E+00  0.34954415750E+04  0.34954415750E+04  0.50400000000E-02 0. -1.
         -1   -1    0    0    0  501 -0.00000000000E+00 -0.00000000000E+00 -0.18578388452E+03  0.18578388459E+03  0.50400000000E-02 0.  1.
    8880023    1    1    2    0    0 -0.62061392270E+02 -0.55260127481E+03  0.10998003077E+04  0.13973513189E+04  0.65864270000E+03 0.  1.
    8880022    1    1    2    0    0  0.62061392270E+02  0.55260127481E+03  0.22098573827E+04  0.22838741406E+04  0.15294330000E+03 0.  0.
<mgrwt>
<rscale>  0 0.77959586E+03</rscale>
<asrwt>0</asrwt>
<pdfrwt beam="1">  1        1 0.53776021E+00 0.86199187E+03</pdfrwt>
<pdfrwt beam="2">  1       -1 0.28582138E-01 0.86199187E+03</pdfrwt>
<totfact> 0.29663268E+00</totfact>
</mgrwt>
</event>
<event>
 4    2  0.4681349E-007  0.7172780E+03  0.7818608E-02  0.9931906E-01
          1   -1    0    0  501    0  0.00000000000E+00  0.00000000000E+00  0.17135455693E+03  0.17135455700E+03  0.50400000000E-02 0. -1.
         -1   -1    0    0    0  501 -0.00000000000E+00 -0.00000000000E+00 -0.17195181254E+04  0.17195181254E+04  0.50400000000E-02 0.  1.
    8880023    1    1    2    0    0  0.12298593586E+03  0.25603132280E+03 -0.12966321728E+04  0.14818038927E+04  0.65864270000E+03 0.  1.
    8880022    1    1    2    0    0 -0.12298593586E+03 -0.25603132280E+03 -0.25153139568E+03  0.40906878969E+03  0.15294330000E+03 0.  0.
<mgrwt>
<rscale>  0 0.58739594E+03</rscale>
<asrwt>0</asrwt>
<pdfrwt beam="1">  1        1 0.26362241E-01 0.71727804E+03</pdfrwt>
<pdfrwt beam="2">  1       -1 0.26454124E+00 0.71727804E+03</pdfrwt>
<totfact> 0.10620377E+01</totfact>
</mgrwt>
</event>
<event>
 4    2  0.4681349E-007  0.7028750E+03  0.7818608E-02  0.9985477E-01
          1   -1    0    0  501    0  0.00000000000E+00  0.00000000000E+00  0.70484915032E+03  0.70484915033E+03  0.50400000000E-02 0. -1.
         -1   -1    0    0    0  501 -0.00000000000E+00 -0.00000000000E+00 -0.81684715359E+03  0.81684715361E+03  0.50400000000E-02 0.  1.
    8880023    1    1    2    0    0 -0.20761981821E+03 -0.13083236292E+03 -0.61994375164E+03  0.93721051934E+03  0.65864270000E+03 0.  0.
    8880022    1    1    2    0    0  0.20761981821E+03  0.13083236292E+03  0.50794574837E+03  0.58448578460E+03  0.15294330000E+03 0.  0.
<mgrwt>
<rscale>  0 0.56291646E+03</rscale>
<asrwt>0</asrwt>
<pdfrwt beam="1">  1        1 0.10843833E+00 0.70287503E+03</pdfrwt>
<pdfrwt beam="2">  1       -1 0.12566879E+00 0.70287503E+03</pdfrwt>
<totfact> 0.15398223E+01</totfact>
</mgrwt>
</event>
<event>
 4    2  0.4681349E-007  0.6629313E+03  0.7818608E-02  0.1021336E+00
          1   -1    0    0  501    0  0.00000000000E+00  0.00000000000E+00  0.17259620809E+04  0.17259620809E+04  0.50400000000E-02 0. -1.
         -1   -1    0    0    0  501 -0.00000000000E+00 -0.00000000000E+00 -0.19507954018E+03  0.19507954024E+03  0.50400000000E-02 0.  1.
    8880023    1    1    2    0    0  0.72758429367E+02 -0.19337708692E+02  0.39342958471E+03  0.77088571164E+03  0.65864270000E+03 0.  1.
    8880022    1    1    2    0    0 -0.72758429367E+02  0.19337708692E+02  0.11374529560E+04  0.11501559095E+04  0.15294330000E+03 0.  0.
<mgrwt>
<rscale>  0 0.47207632E+03</rscale>
<asrwt>0</asrwt>
<pdfrwt beam="1">  1        1 0.26553263E+00 0.66293133E+03</pdfrwt>
<pdfrwt beam="2">  1       -1 0.30012237E-01 0.66293133E+03</pdfrwt>
<totfact> 0.48586086E+01</totfact>
</mgrwt>
</event>
<event>
 4    2  0.4681349E-007  0.7636391E+03  0.7818608E-02  0.9795776E-01
          1   -1    0    0  501    0  0.00000000000E+00  0.00000000000E+00  0.60531936218E+03  0.60531936220E+03  0.50400000000E-02 0. -1.
         -1   -1    0    0    0  501 -0.00000000000E+00 -0.00000000000E+00 -0.81448828122E+03  0.81448828124E+03  0.50400000000E-02 0.  1.
    8880023    1    1    2    0    0  0.29214243694E+03  0.25295705139E+03 -0.49980717559E+03  0.91266198143E+03  0.65864270000E+03 0.  0.
    8880022    1    1    2    0    0 -0.29214243694E+03 -0.25295705139E+03  0.29063825655E+03  0.50714566201E+03  0.15294330000E+03 0.  0.
<mgrwt>
<rscale>  0 0.65589735E+03</rscale>
<asrwt>0</asrwt>
<pdfrwt beam="1">  1        1 0.93126055E-01 0.76363910E+03</pdfrwt>
<pdfrwt beam="2">  1       -1 0.12530589E+00 0.76363910E+03</pdfrwt>
<totfact> 0.19279455E+01</totfact>
</mgrwt>
</event>
<event>
 4    2  0.4681349E-007  0.8707918E+03  0.7818608E-02  0.9574648E-01
         -1   -1    0    0    0  501 -0.00000000000E+00  0.00000000000E+00  0.69440025931E+03  0.69440025933E+03  0.50400000000E-02 0.  1.
          1   -1    0    0  501    0  0.00000000000E+00 -0.00000000000E+00 -0.10933914992E+04  0.10933914992E+04  0.50400000000E-02 0. -1.
    8880023    1    1    2    0    0  0.31255330562E+03 -0.47621283839E+03  0.25477497981E+03  0.90729748864E+03  0.65864270000E+03 0.  1.
    8880022    1    1    2    0    0 -0.31255330562E+03  0.47621283839E+03 -0.65376621970E+03  0.88049426990E+03  0.15294330000E+03 0.  0.
<mgrwt>
<rscale>  0 0.78997129E+03</rscale>
<asrwt>0</asrwt>
<pdfrwt beam="1">  1        1 0.16821408E+00 0.87079185E+03</pdfrwt>
<pdfrwt beam="2">  1       -1 0.10683081E+00 0.87079185E+03</pdfrwt>
<totfact> 0.10667035E+01</totfact>
</mgrwt>
</event>
<event>
 4    2  0.4681349E-007  0.9714191E+03  0.7818608E-02  0.9419944E-01
         -1   -1    0    0    0  501 -0.00000000000E+00  0.00000000000E+00  0.63725096517E+03  0.63725096519E+03  0.50400000000E-02 0.  1.
          1   -1    0    0  501    0  0.00000000000E+00 -0.00000000000E+00 -0.22319353688E+04  0.22319353688E+04  0.50400000000E-02 0. -1.
    8880023    1    1    2    0    0  0.31891073202E+02  0.71332171696E+03  0.14525997372E+03  0.98221972016E+03  0.65864270000E+03 0.  0.
    8880022    1    1    2    0    0 -0.31891073202E+02 -0.71332171696E+03 -0.17399443773E+04  0.18869666138E+04  0.15294330000E+03 0.  0.
<mgrwt>
<rscale>  0 0.90452376E+03</rscale>
<asrwt>0</asrwt>
<pdfrwt beam="1">  1        1 0.34337467E+00 0.97141913E+03</pdfrwt>
<pdfrwt beam="2">  1       -1 0.98038611E-01 0.97141913E+03</pdfrwt>
<totfact> 0.21047332E+00</totfact>
</mgrwt>
</event>
<event>
 4    2  0.4681349E-007  0.1536914E+04  0.7818608E-02  0.8884000E-01
          1   -1    0    0  501    0  0.00000000000E+00  0.00000000000E+00  0.14208648460E+04  0.14208648460E+04  0.50400000000E-02 0. -1.
         -1   -1    0    0    0  501 -0.00000000000E+00 -0.00000000000E+00 -0.17726613869E+04  0.17726613869E+04  0.50400000000E-02 0.  1.
    8880023    1    1    2    0    0 -0.11294787335E+04 -0.80782016325E+03 -0.79174390086E+03  0.17288621219E+04  0.65864270000E+03 0.  0.
    8880022    1    1    2    0    0  0.11294787335E+04  0.80782016325E+03  0.43994735999E+03  0.14646641110E+04  0.15294330000E+03 0.  0.
<mgrwt>
<rscale>  0 0.15006815E+04</rscale>
<asrwt>0</asrwt>
<pdfrwt beam="1">  1        1 0.21859459E+00 0.15369144E+04</pdfrwt>
<pdfrwt beam="2">  1       -1 0.27271714E+00 0.15369144E+04</pdfrwt>
<totfact> 0.34730213E-01</totfact>
</mgrwt>
</event>
<event>
 4    2  0.4681349E-007  0.6615420E+03  0.7818608E-02  0.1022629E+00
          1   -1    0    0  501    0  0.00000000000E+00  0.00000000000E+00  0.38807311875E+04  0.38807311875E+04  0.50400000000E-02 0. -1.
         -1   -1    0    0    0  501 -0.00000000000E+00 -0.00000000000E+00 -0.10890751190E+03  0.10890751202E+03  0.50400000000E-02 0.  1.
    8880023    1    1    2    0    0  0.43773412777E+02 -0.43720854174E+02  0.92057514562E+03  0.11336209374E+04  0.65864270000E+03 0.  1.
    8880022    1    1    2    0    0 -0.43773412777E+02  0.43720854174E+02  0.28512485300E+04  0.28560177621E+04  0.15294330000E+03 0.  0.
<mgrwt>
<rscale>  0 0.46749573E+03</rscale>
<asrwt>0</asrwt>
<pdfrwt beam="1">  1        1 0.59703564E+00 0.66154201E+03</pdfrwt>
<pdfrwt beam="2">  1       -1 0.16755000E-01 0.66154201E+03</pdfrwt>
<totfact> 0.37185515E+00</totfact>
</mgrwt>
</event>
