<event>
 4    1  0.7595604E-007  0.6977333E+03  0.7818608E-02  0.1000674E+00
         -2   -1    0    0    0  501 -0.00000000000E+00  0.00000000000E+00  0.15437659813E+04  0.15437659813E+04  0.25500000000E-02 0.  1.
          2   -1    0    0  501    0  0.00000000000E+00 -0.00000000000E+00 -0.46478296075E+03  0.46478296076E+03  0.25500000000E-02 0. -1.
    8880023    1    1    2    0    0  0.10710564263E+03 -0.20383801254E+03  0.14124604803E+04  0.15753972098E+04  0.65864270000E+03 0.  1.
    8880022    1    1    2    0    0 -0.10710564263E+03  0.20383801254E+03 -0.33347745970E+03  0.43315173229E+03  0.15294330000E+03 0.  0.
<mgrwt>
<rscale>  0 0.55355801E+03</rscale>
<asrwt>0</asrwt>
<pdfrwt beam="1">  1        2 0.71505071E-01 0.69773330E+03</pdfrwt>
<pdfrwt beam="2">  1       -2 0.23750246E+00 0.69773330E+03</pdfrwt>
<totfact> 0.53146788E+00</totfact>
</mgrwt>
</event>
<event>
 4    1  0.7595604E-007  0.1100327E+04  0.7818608E-02  0.9260693E-01
          2   -1    0    0  501    0  0.00000000000E+00  0.00000000000E+00  0.10932141803E+04  0.10932141803E+04  0.25500000000E-02 0. -1.
         -2   -1    0    0    0  501 -0.00000000000E+00 -0.00000000000E+00 -0.15127635732E+04  0.15127635732E+04  0.25500000000E-02 0.  1.
    8880023    1    1    2    0    0  0.86604387694E+03  0.16394085129E+03  0.59699690770E+03  0.12518482790E+04  0.65864270000E+03 0. -1.
    8880022    1    1    2    0    0 -0.86604387694E+03 -0.16394085129E+03 -0.10165463006E+04  0.13541294745E+04  0.15294330000E+03 0.  0.
<mgrwt>
<rscale>  0 0.10448353E+04</rscale>
<asrwt>0</asrwt>
<pdfrwt beam="1">  1        2 0.16818680E+00 0.11003267E+04</pdfrwt>
<pdfrwt beam="2">  1       -2 0.23273286E+00 0.11003267E+04</pdfrwt>
<totfact> 0.17775361E+00</totfact>
</mgrwt>
</event>
<event>
 4    1  0.7595604E-007  0.9837006E+03  0.7818608E-02  0.9403200E-01
          2   -1    0    0  501    0  0.00000000000E+00  0.00000000000E+00  0.24604907588E+04  0.24604907588E+04  0.25500000000E-02 0. -1.
         -2   -1    0    0    0  501 -0.00000000000E+00 -0.00000000000E+00 -0.31308752377E+03  0.31308752378E+03  0.25500000000E-02 0.  1.
    8880023    1    1    2    0    0 -0.72281790043E+03  0.10672868020E+03  0.14486985085E+04  0.17511123046E+04  0.65864270000E+03 0. -1.
    8880022    1    1    2    0    0  0.72281790043E+03 -0.10672868020E+03  0.69870472652E+03  0.10224659780E+04  0.15294330000E+03 0.  1.
<mgrwt>
<rscale>  0 0.91812817E+03</rscale>
<asrwt>0</asrwt>
<pdfrwt beam="1">  1        2 0.37853703E+00 0.98370063E+03</pdfrwt>
<pdfrwt beam="2">  1       -2 0.48167313E-01 0.98370063E+03</pdfrwt>
<totfact> 0.15182782E+01</totfact>
</mgrwt>
</event>
<event>
 4    1  0.7595604E-007  0.7092118E+03  0.7818608E-02  0.9960939E-01
         -2   -1    0    0    0  501 -0.00000000000E+00  0.00000000000E+00  0.19186566169E+03  0.19186566171E+03  0.25500000000E-02 0.  1.
          2   -1    0    0  501    0  0.00000000000E+00 -0.00000000000E+00 -0.17392994501E+04  0.17392994501E+04  0.25500000000E-02 0. -1.
    8880023    1    1    2    0    0  0.26062411618E+03  0.35302544533E+02 -0.14458315077E+04  0.16104068289E+04  0.65864270000E+03 0.  0.
    8880022    1    1    2    0    0 -0.26062411618E+03 -0.35302544533E+02 -0.10160228066E+03  0.32075828288E+03  0.15294330000E+03 0.  0.
<mgrwt>
<rscale>  0 0.57396653E+03</rscale>
<asrwt>0</asrwt>
<pdfrwt beam="1">  1        2 0.26758452E+00 0.70921182E+03</pdfrwt>
<pdfrwt beam="2">  1       -2 0.29517795E-01 0.70921182E+03</pdfrwt>
<totfact> 0.10106758E+02</totfact>
</mgrwt>
</event>
<event>
 4    1  0.7595604E-007  0.7486716E+03  0.7818608E-02  0.9835371E-01
          2   -1    0    0  501    0  0.00000000000E+00  0.00000000000E+00  0.10149895395E+04  0.10149895395E+04  0.25500000000E-02 0. -1.
         -2   -1    0    0    0  501 -0.00000000000E+00 -0.00000000000E+00 -0.53343866143E+03  0.53343866143E+03  0.25500000000E-02 0.  1.
    8880023    1    1    2    0    0 -0.27306218661E+03  0.22833299455E+03 -0.19066114760E+03  0.77256766281E+03  0.65864270000E+03 0.  0.
    8880022    1    1    2    0    0  0.27306218661E+03 -0.22833299455E+03  0.67221202568E+03  0.77586053814E+03  0.15294330000E+03 0.  0.
<mgrwt>
<rscale>  0 0.63498385E+03</rscale>
<asrwt>0</asrwt>
<pdfrwt beam="1">  1        2 0.15615224E+00 0.74867157E+03</pdfrwt>
<pdfrwt beam="2">  1       -2 0.82067486E-01 0.74867157E+03</pdfrwt>
<totfact> 0.32674946E+01</totfact>
</mgrwt>
</event>
<event>
 4    1  0.7595604E-007  0.8360652E+03  0.7818608E-02  0.9637645E-01
         -2   -1    0    0    0  501 -0.00000000000E+00  0.00000000000E+00  0.17980499682E+04  0.17980499682E+04  0.25500000000E-02 0.  1.
          2   -1    0    0  501    0  0.00000000000E+00 -0.00000000000E+00 -0.61594714793E+03  0.61594714794E+03  0.25500000000E-02 0. -1.
    8880023    1    1    2    0    0  0.50989577237E+03  0.72118816787E+02  0.15512347551E+04  0.17621958728E+04  0.65864270000E+03 0.  0.
    8880022    1    1    2    0    0 -0.50989577237E+03 -0.72118816787E+02 -0.36913193487E+03  0.65180124330E+03  0.15294330000E+03 0.  0.
<mgrwt>
<rscale>  0 0.74853930E+03</rscale>
<asrwt>0</asrwt>
<pdfrwt beam="1">  1        2 0.94761101E-01 0.83606521E+03</pdfrwt>
<pdfrwt beam="2">  1       -2 0.27662307E+00 0.83606521E+03</pdfrwt>
<totfact> 0.21710012E+00</totfact>
</mgrwt>
</event>
<event>
 4    1  0.7595604E-007  0.9447928E+03  0.7818608E-02  0.9457646E-01
          2   -1    0    0  501    0  0.00000000000E+00  0.00000000000E+00  0.87974938052E+03  0.87974938052E+03  0.25500000000E-02 0. -1.
         -2   -1    0    0    0  501 -0.00000000000E+00 -0.00000000000E+00 -0.89372686139E+03  0.89372686139E+03  0.25500000000E-02 0.  1.
    8880023    1    1    2    0    0  0.55067078032E+02  0.67512282784E+03 -0.34290547028E+03  0.10050958082E+04  0.65864270000E+03 0. -1.
    8880022    1    1    2    0    0 -0.55067078032E+02 -0.67512282784E+03  0.32892798941E+03  0.76838043376E+03  0.15294330000E+03 0.  0.
<mgrwt>
<rscale>  0 0.87479744E+03</rscale>
<asrwt>0</asrwt>
<pdfrwt beam="1">  1        2 0.13534606E+00 0.94479279E+03</pdfrwt>
<pdfrwt beam="2">  1       -2 0.13749644E+00 0.94479279E+03</pdfrwt>
<totfact> 0.11354944E+01</totfact>
</mgrwt>
</event>
<event>
 4    1  0.7595604E-007  0.7300972E+03  0.7818608E-02  0.9889793E-01
         -2   -1    0    0    0  501 -0.00000000000E+00  0.00000000000E+00  0.36305493499E+03  0.36305493500E+03  0.25500000000E-02 0.  1.
          2   -1    0    0  501    0  0.00000000000E+00 -0.00000000000E+00 -0.10653569422E+04  0.10653569422E+04  0.25500000000E-02 0. -1.
    8880023    1    1    2    0    0 -0.10677078451E+03  0.29636418150E+03 -0.10719807183E+03  0.73792503777E+03  0.65864270000E+03 0.  1.
    8880022    1    1    2    0    0  0.10677078451E+03 -0.29636418150E+03 -0.59510393537E+03  0.69048683942E+03  0.15294330000E+03 0.  0.
<mgrwt>
<rscale>  0 0.60758519E+03</rscale>
<asrwt>0</asrwt>
<pdfrwt beam="1">  1        2 0.16390107E+00 0.73009721E+03</pdfrwt>
<pdfrwt beam="2">  1       -2 0.55854606E-01 0.73009721E+03</pdfrwt>
<totfact> 0.70098456E+01</totfact>
</mgrwt>
</event>
<event>
 4    1  0.7595604E-007  0.8888868E+03  0.7818608E-02  0.9544113E-01
         -2   -1    0    0    0  501 -0.00000000000E+00  0.00000000000E+00  0.35189801317E+03  0.35189801318E+03  0.25500000000E-02 0.  1.
          2   -1    0    0  501    0  0.00000000000E+00 -0.00000000000E+00 -0.19610067593E+04  0.19610067593E+04  0.25500000000E-02 0. -1.
    8880023    1    1    2    0    0  0.59401995531E+03 -0.58735555941E+02 -0.44108985911E+03  0.99231045692E+03  0.65864270000E+03 0.  1.
    8880022    1    1    2    0    0 -0.59401995531E+03  0.58735555941E+02 -0.11680188870E+04  0.13205943155E+04  0.15294330000E+03 0.  0.
<mgrwt>
<rscale>  0 0.81108263E+03</rscale>
<asrwt>0</asrwt>
<pdfrwt beam="1">  1        2 0.30169334E+00 0.88888682E+03</pdfrwt>
<pdfrwt beam="2">  1       -2 0.54138157E-01 0.88888682E+03</pdfrwt>
<totfact> 0.22908105E+01</totfact>
</mgrwt>
</event>
<event>
 4    1  0.7595604E-007  0.6669615E+03  0.7818608E-02  0.1017942E+00
          2   -1    0    0  501    0  0.00000000000E+00  0.00000000000E+00  0.22750094359E+04  0.22750094359E+04  0.25500000000E-02 0. -1.
         -2   -1    0    0    0  501 -0.00000000000E+00 -0.00000000000E+00 -0.18544273348E+03  0.18544273350E+03  0.25500000000E-02 0.  1.
    8880023    1    1    2    0    0 -0.42435985432E+02  0.96055136875E+02  0.43670968475E+03  0.79721575323E+03  0.65864270000E+03 0.  1.
    8880022    1    1    2    0    0  0.42435985432E+02 -0.96055136875E+02  0.16528570176E+04  0.16632364161E+04  0.15294330000E+03 0.  0.
<mgrwt>
<rscale>  0 0.48436798E+03</rscale>
<asrwt>0</asrwt>
<pdfrwt beam="1">  1        2 0.35000146E+00 0.66696147E+03</pdfrwt>
<pdfrwt beam="2">  1       -2 0.28529651E-01 0.66696147E+03</pdfrwt>
<totfact> 0.55169804E+01</totfact>
</mgrwt>
</event>
<event>
 4    1  0.7595604E-007  0.7418150E+03  0.7818608E-02  0.9854691E-01
          2   -1    0    0  501    0  0.00000000000E+00  0.00000000000E+00  0.19757285383E+04  0.19757285383E+04  0.25500000000E-02 0. -1.
         -2   -1    0    0    0  501 -0.00000000000E+00 -0.00000000000E+00 -0.15991318727E+03  0.15991318729E+03  0.25500000000E-02 0.  1.
    8880023    1    1    2    0    0 -0.15769929256E+03  0.30267190815E+03  0.10798419883E+04  0.13100947587E+04  0.65864270000E+03 0.  0.
    8880022    1    1    2    0    0  0.15769929256E+03 -0.30267190815E+03  0.73597336270E+03  0.82554696685E+03  0.15294330000E+03 0.  0.
<mgrwt>
<rscale>  0 0.62508300E+03</rscale>
<asrwt>0</asrwt>
<pdfrwt beam="1">  1        2 0.30395825E+00 0.74181504E+03</pdfrwt>
<pdfrwt beam="2">  1       -2 0.24602028E-01 0.74181504E+03</pdfrwt>
<totfact> 0.10439587E+02</totfact>
</mgrwt>
</event>
<event>
 4    1  0.7595604E-007  0.7955304E+03  0.7818608E-02  0.9720545E-01
          2   -1    0    0  501    0  0.00000000000E+00  0.00000000000E+00  0.11412537302E+04  0.11412537302E+04  0.25500000000E-02 0. -1.
         -2   -1    0    0    0  501 -0.00000000000E+00 -0.00000000000E+00 -0.50430804578E+03  0.50430804578E+03  0.25500000000E-02 0.  1.
    8880023    1    1    2    0    0  0.41217106579E+03  0.17080246489E+03 -0.66860305196E+02  0.79833512772E+03  0.65864270000E+03 0.  0.
    8880022    1    1    2    0    0 -0.41217106579E+03 -0.17080246489E+03  0.70380598961E+03  0.84722664825E+03  0.15294330000E+03 0.  0.
<mgrwt>
<rscale>  0 0.69806631E+03</rscale>
<asrwt>0</asrwt>
<pdfrwt beam="1">  1        2 0.17557750E+00 0.79553044E+03</pdfrwt>
<pdfrwt beam="2">  1       -2 0.77585854E-01 0.79553044E+03</pdfrwt>
<totfact> 0.30836436E+01</totfact>
</mgrwt>
</event>
<event>
 4    1  0.7595604E-007  0.6923814E+03  0.7818608E-02  0.1003041E+00
         -2   -1    0    0    0  501 -0.00000000000E+00  0.00000000000E+00  0.43721296695E+03  0.43721296696E+03  0.25500000000E-02 0.  1.
          2   -1    0    0  501    0  0.00000000000E+00 -0.00000000000E+00 -0.14657704487E+04  0.14657704487E+04  0.25500000000E-02 0. -1.
    8880023    1    1    2    0    0  0.15923048715E+03 -0.14222339927E+03  0.13904835774E+03  0.70620570331E+03  0.65864270000E+03 0.  0.
    8880022    1    1    2    0    0 -0.15923048715E+03  0.14222339927E+03 -0.11676058395E+04  0.11967777124E+04  0.15294330000E+03 0.  0.
<mgrwt>
<rscale>  0 0.54336835E+03</rscale>
<asrwt>0</asrwt>
<pdfrwt beam="1">  1        2 0.22550314E+00 0.69238143E+03</pdfrwt>
<pdfrwt beam="2">  1       -2 0.67263534E-01 0.69238143E+03</pdfrwt>
<totfact> 0.27718432E+01</totfact>
</mgrwt>
</event>
<event>
 4    1  0.7595604E-007  0.7029661E+03  0.7818608E-02  0.9985112E-01
         -2   -1    0    0    0  501 -0.00000000000E+00  0.00000000000E+00  0.14092916280E+03  0.14092916282E+03  0.25500000000E-02 0.  1.
          2   -1    0    0  501    0  0.00000000000E+00 -0.00000000000E+00 -0.25372381931E+04  0.25372381931E+04  0.25500000000E-02 0. -1.
    8880023    1    1    2    0    0 -0.97501027276E+02 -0.22548754210E+03 -0.84071020100E+03  0.10958808924E+04  0.65864270000E+03 0.  1.
    8880022    1    1    2    0    0  0.97501027276E+02  0.22548754210E+03 -0.15555988293E+04  0.15822864636E+04  0.15294330000E+03 0.  1.
<mgrwt>
<rscale>  0 0.56307878E+03</rscale>
<asrwt>0</asrwt>
<pdfrwt beam="1">  1        2 0.39034430E+00 0.70296606E+03</pdfrwt>
<pdfrwt beam="2">  1       -2 0.21681412E-01 0.70296606E+03</pdfrwt>
<totfact> 0.64179880E+01</totfact>
</mgrwt>
</event>
<event>
 4    1  0.7595604E-007  0.8054992E+03  0.7818608E-02  0.9699029E-01
         -2   -1    0    0    0  501 -0.00000000000E+00  0.00000000000E+00  0.68798165538E+03  0.68798165538E+03  0.25500000000E-02 0.  1.
          2   -1    0    0  501    0  0.00000000000E+00 -0.00000000000E+00 -0.77603650282E+03  0.77603650282E+03  0.25500000000E-02 0. -1.
    8880023    1    1    2    0    0  0.31175957081E+03 -0.34325608582E+03 -0.38474919163E+03  0.89267066557E+03  0.65864270000E+03 0.  0.
    8880022    1    1    2    0    0 -0.31175957081E+03  0.34325608582E+03  0.29669434419E+03  0.57134749263E+03  0.15294330000E+03 0.  0.
<mgrwt>
<rscale>  0 0.71074611E+03</rscale>
<asrwt>0</asrwt>
<pdfrwt beam="1">  1        2 0.11939023E+00 0.80549921E+03</pdfrwt>
<pdfrwt beam="2">  1       -2 0.10584333E+00 0.80549921E+03</pdfrwt>
<totfact> 0.26097430E+01</totfact>
</mgrwt>
</event>
<event>
 4    1  0.7595604E-007  0.7921396E+03  0.7818608E-02  0.9728057E-01
          2   -1    0    0  501    0  0.00000000000E+00  0.00000000000E+00  0.23776390350E+04  0.23776390350E+04  0.25500000000E-02 0. -1.
         -2   -1    0    0    0  501 -0.00000000000E+00 -0.00000000000E+00 -0.22084500853E+03  0.22084500855E+03  0.25500000000E-02 0.  1.
    8880023    1    1    2    0    0  0.43683166004E+03 -0.53413932794E+02  0.66065062168E+03  0.10314768042E+04  0.65864270000E+03 0.  1.
    8880022    1    1    2    0    0 -0.43683166004E+03  0.53413932794E+02  0.14961434048E+04  0.15670072393E+04  0.15294330000E+03 0.  0.
<mgrwt>
<rscale>  0 0.69370595E+03</rscale>
<asrwt>0</asrwt>
<pdfrwt beam="1">  1        2 0.36579061E+00 0.79213960E+03</pdfrwt>
<pdfrwt beam="2">  1       -2 0.33976156E-01 0.79213960E+03</pdfrwt>
<totfact> 0.34322966E+01</totfact>
</mgrwt>
</event>
<event>
 4    1  0.7595604E-007  0.8294233E+03  0.7818608E-02  0.9650455E-01
          2   -1    0    0  501    0  0.00000000000E+00  0.00000000000E+00  0.23189177718E+04  0.23189177718E+04  0.25500000000E-02 0. -1.
         -2   -1    0    0    0  501 -0.00000000000E+00 -0.00000000000E+00 -0.21472032226E+03  0.21472032228E+03  0.25500000000E-02 0.  1.
    8880023    1    1    2    0    0  0.50256844323E+03 -0.39469266577E+02  0.92671849296E+03  0.12436841378E+04  0.65864270000E+03 0.  0.
    8880022    1    1    2    0    0 -0.50256844323E+03  0.39469266577E+02  0.11774789566E+04  0.12899539563E+04  0.15294330000E+03 0.  0.
<mgrwt>
<rscale>  0 0.74044850E+03</rscale>
<asrwt>0</asrwt>
<pdfrwt beam="1">  1        2 0.35675659E+00 0.82942334E+03</pdfrwt>
<pdfrwt beam="2">  1       -2 0.33033895E-01 0.82942334E+03</pdfrwt>
<totfact> 0.38860426E+01</totfact>
</mgrwt>
</event>
<event>
 4    1  0.7595604E-007  0.8390451E+03  0.7818608E-02  0.9631983E-01
          2   -1    0    0  501    0  0.00000000000E+00  0.00000000000E+00  0.25724292635E+04  0.25724292635E+04  0.25500000000E-02 0. -1.
         -2   -1    0    0    0  501 -0.00000000000E+00 -0.00000000000E+00 -0.29507756265E+03  0.29507756267E+03  0.25500000000E-02 0.  1.
    8880023    1    1    2    0    0 -0.32624539603E+03 -0.40466093606E+03  0.43095052267E+03  0.94324709957E+03  0.65864270000E+03 0.  1.
    8880022    1    1    2    0    0  0.32624539603E+03  0.40466093606E+03  0.18464011782E+04  0.19242597266E+04  0.15294330000E+03 0.  0.
<mgrwt>
<rscale>  0 0.75215001E+03</rscale>
<asrwt>0</asrwt>
<pdfrwt beam="1">  1        2 0.39575835E+00 0.83904513E+03</pdfrwt>
<pdfrwt beam="2">  1       -2 0.45396548E-01 0.83904513E+03</pdfrwt>
<totfact> 0.15042850E+01</totfact>
</mgrwt>
</event>
<event>
 4    1  0.7595604E-007  0.8491072E+03  0.7818608E-02  0.9613241E-01
         -2   -1    0    0    0  501 -0.00000000000E+00  0.00000000000E+00  0.43212624098E+03  0.43212624099E+03  0.25500000000E-02 0.  1.
          2   -1    0    0  501    0  0.00000000000E+00 -0.00000000000E+00 -0.11469527612E+04  0.11469527612E+04  0.25500000000E-02 0. -1.
    8880023    1    1    2    0    0 -0.16509906921E+03 -0.50981870088E+03 -0.46852901634E+03  0.96979505868E+03  0.65864270000E+03 0. -1.
    8880022    1    1    2    0    0  0.16509906921E+03  0.50981870088E+03 -0.24629750392E+03  0.60928394355E+03  0.15294330000E+03 0.  1.
<mgrwt>
<rscale>  0 0.76425952E+03</rscale>
<asrwt>0</asrwt>
<pdfrwt beam="1">  1        2 0.17645427E+00 0.84910719E+03</pdfrwt>
<pdfrwt beam="2">  1       -2 0.66480961E-01 0.84910719E+03</pdfrwt>
<totfact> 0.42757906E+01</totfact>
</mgrwt>
</event>
<event>
 4    1  0.7595604E-007  0.7602010E+03  0.7818608E-02  0.9804587E-01
          2   -1    0    0  501    0  0.00000000000E+00  0.00000000000E+00  0.24089110586E+04  0.24089110587E+04  0.25500000000E-02 0. -1.
         -2   -1    0    0    0  501 -0.00000000000E+00 -0.00000000000E+00 -0.25349936193E+03  0.25349936195E+03  0.25500000000E-02 0.  1.
    8880023    1    1    2    0    0  0.22160388716E+03 -0.30819970228E+03  0.39821296304E+03  0.85818361059E+03  0.65864270000E+03 0.  1.
    8880022    1    1    2    0    0 -0.22160388716E+03  0.30819970228E+03  0.17571987337E+04  0.18042268100E+04  0.15294330000E+03 0.  0.
<mgrwt>
<rscale>  0 0.65116936E+03</rscale>
<asrwt>0</asrwt>
<pdfrwt beam="1">  1        2 0.37060169E+00 0.76020099E+03</pdfrwt>
<pdfrwt beam="2">  1       -2 0.38999903E-01 0.76020099E+03</pdfrwt>
<totfact> 0.25411239E+01</totfact>
</mgrwt>
</event>
<event>
 4    1  0.7595604E-007  0.7679716E+03  0.7818608E-02  0.9784890E-01
          2   -1    0    0  501    0  0.00000000000E+00  0.00000000000E+00  0.54085779826E+03  0.54085779827E+03  0.25500000000E-02 0. -1.
         -2   -1    0    0    0  501 -0.00000000000E+00 -0.00000000000E+00 -0.10940931545E+04  0.10940931545E+04  0.25500000000E-02 0.  1.
    8880023    1    1    2    0    0  0.21885914252E+03 -0.32874130744E+03 -0.82862328791E+03  0.11297773812E+04  0.65864270000E+03 0.  1.
    8880022    1    1    2    0    0 -0.21885914252E+03  0.32874130744E+03  0.27538793169E+03  0.50517357158E+03  0.15294330000E+03 0.  0.
<mgrwt>
<rscale>  0 0.66179750E+03</rscale>
<asrwt>0</asrwt>
<pdfrwt beam="1">  1        2 0.83208892E-01 0.76797160E+03</pdfrwt>
<pdfrwt beam="2">  1       -2 0.16832202E+00 0.76797160E+03</pdfrwt>
<totfact> 0.12473021E+01</totfact>
</mgrwt>
</event>
<event>
 4    1  0.7595604E-007  0.9229187E+03  0.7818608E-02  0.9490198E-01
          2   -1    0    0  501    0  0.00000000000E+00  0.00000000000E+00  0.16418613903E+04  0.16418613903E+04  0.25500000000E-02 0. -1.
         -2   -1    0    0    0  501 -0.00000000000E+00 -0.00000000000E+00 -0.10435903958E+04  0.10435903958E+04  0.25500000000E-02 0.  1.
    8880023    1    1    2    0    0 -0.59557088702E+03  0.25152325755E+03 -0.74551537227E+03  0.11864113988E+04  0.65864270000E+03 0.  0.
    8880022    1    1    2    0    0  0.59557088702E+03 -0.25152325755E+03  0.13437863667E+04  0.14990403873E+04  0.15294330000E+03 0.  0.
<mgrwt>
<rscale>  0 0.85010334E+03</rscale>
<asrwt>0</asrwt>
<pdfrwt beam="1">  1        2 0.25259406E+00 0.92291865E+03</pdfrwt>
<pdfrwt beam="2">  1       -2 0.16055237E+00 0.92291865E+03</pdfrwt>
<totfact> 0.26465967E+00</totfact>
</mgrwt>
</event>
<event>
 4    1  0.7595604E-007  0.7391111E+03  0.7818608E-02  0.9862544E-01
         -2   -1    0    0    0  501 -0.00000000000E+00  0.00000000000E+00  0.25007576116E+03  0.25007576117E+03  0.25500000000E-02 0.  1.
          2   -1    0    0  501    0  0.00000000000E+00 -0.00000000000E+00 -0.14688675737E+04  0.14688675737E+04  0.25500000000E-02 0. -1.
    8880023    1    1    2    0    0 -0.84234616556E+02  0.32462213974E+03 -0.44730920973E+03  0.86392750831E+03  0.65864270000E+03 0.  0.
    8880022    1    1    2    0    0  0.84234616556E+02 -0.32462213974E+03 -0.77148260283E+03  0.85501582659E+03  0.15294330000E+03 0.  0.
<mgrwt>
<rscale>  0 0.62111412E+03</rscale>
<asrwt>0</asrwt>
<pdfrwt beam="1">  1        2 0.22597962E+00 0.73911109E+03</pdfrwt>
<pdfrwt beam="2">  1       -2 0.38473195E-01 0.73911109E+03</pdfrwt>
<totfact> 0.86027797E+01</totfact>
</mgrwt>
</event>
<event>
 4    1  0.7595604E-007  0.6594784E+03  0.7818608E-02  0.1024697E+00
         -2   -1    0    0    0  501 -0.00000000000E+00  0.00000000000E+00  0.40385841288E+03  0.40385841289E+03  0.25500000000E-02 0.  1.
          2   -1    0    0  501    0  0.00000000000E+00 -0.00000000000E+00 -0.10335591362E+04  0.10335591362E+04  0.25500000000E-02 0. -1.
    8880023    1    1    2    0    0 -0.14615897860E+02 -0.29798170355E+02  0.12107745634E+03  0.67050094118E+03  0.65864270000E+03 0.  1.
    8880022    1    1    2    0    0  0.14615897860E+02  0.29798170355E+02 -0.75077817965E+03  0.76691660790E+03  0.15294330000E+03 0.  0.
<mgrwt>
<rscale>  0 0.46028958E+03</rscale>
<asrwt>0</asrwt>
<pdfrwt beam="1">  1        2 0.15900910E+00 0.65947840E+03</pdfrwt>
<pdfrwt beam="2">  1       -2 0.62132064E-01 0.65947840E+03</pdfrwt>
<totfact> 0.59029829E+01</totfact>
</mgrwt>
</event>
<event>
 4    1  0.7595604E-007  0.7601573E+03  0.7818608E-02  0.9804701E-01
         -2   -1    0    0    0  501 -0.00000000000E+00  0.00000000000E+00  0.10723308589E+04  0.10723308589E+04  0.25500000000E-02 0.  1.
          2   -1    0    0  501    0  0.00000000000E+00 -0.00000000000E+00 -0.32845393787E+03  0.32845393788E+03  0.25500000000E-02 0. -1.
    8880023    1    1    2    0    0  0.26414560503E+03  0.27249942853E+03  0.59514688401E+03  0.96542159651E+03  0.65864270000E+03 0.  0.
    8880022    1    1    2    0    0 -0.26414560503E+03 -0.27249942853E+03  0.14873003700E+03  0.43536320024E+03  0.15294330000E+03 0.  0.
<mgrwt>
<rscale>  0 0.65110894E+03</rscale>
<asrwt>0</asrwt>
<pdfrwt beam="1">  1        2 0.50531375E-01 0.76015725E+03</pdfrwt>
<pdfrwt beam="2">  1       -2 0.16497398E+00 0.76015725E+03</pdfrwt>
<totfact> 0.23271330E+01</totfact>
</mgrwt>
</event>
<event>
 4    1  0.7595604E-007  0.6626264E+03  0.7818608E-02  0.1021614E+00
         -2   -1    0    0    0  501 -0.00000000000E+00  0.00000000000E+00  0.90500949124E+03  0.90500949124E+03  0.25500000000E-02 0.  1.
          2   -1    0    0  501    0  0.00000000000E+00 -0.00000000000E+00 -0.40044942630E+03  0.40044942631E+03  0.25500000000E-02 0. -1.
    8880023    1    1    2    0    0 -0.72517817224E+02  0.21575014396E+01  0.75413665359E+03  0.10038903263E+04  0.65864270000E+03 0.  1.
    8880022    1    1    2    0    0  0.72517817224E+02 -0.21575014396E+01 -0.24957658865E+03  0.30156859128E+03  0.15294330000E+03 0.  0.
<mgrwt>
<rscale>  0 0.47108779E+03</rscale>
<asrwt>0</asrwt>
<pdfrwt beam="1">  1        2 0.61607604E-01 0.66262636E+03</pdfrwt>
<pdfrwt beam="2">  1       -2 0.13923223E+00 0.66262636E+03</pdfrwt>
<totfact> 0.29489712E+01</totfact>
</mgrwt>
</event>
<event>
 4    1  0.7595604E-007  0.7094001E+03  0.7818608E-02  0.9960235E-01
          2   -1    0    0  501    0  0.00000000000E+00  0.00000000000E+00  0.25628483199E+04  0.25628483199E+04  0.25500000000E-02 0. -1.
         -2   -1    0    0    0  501 -0.00000000000E+00 -0.00000000000E+00 -0.25835029883E+03  0.25835029884E+03  0.25500000000E-02 0.  1.
    8880023    1    1    2    0    0 -0.24902819094E+03 -0.86158460075E+02  0.26220973784E+03  0.75630845097E+03  0.65864270000E+03 0.  1.
    8880022    1    1    2    0    0  0.24902819094E+03  0.86158460075E+02  0.20422882832E+04  0.20648901677E+04  0.15294330000E+03 0.  0.
<mgrwt>
<rscale>  0 0.57428764E+03</rscale>
<asrwt>0</asrwt>
<pdfrwt beam="1">  1        2 0.39428438E+00 0.70940012E+03</pdfrwt>
<pdfrwt beam="2">  1       -2 0.39746197E-01 0.70940012E+03</pdfrwt>
<totfact> 0.20196981E+01</totfact>
</mgrwt>
</event>
<event>
 4    1  0.7595604E-007  0.8307381E+03  0.7818608E-02  0.9647898E-01
          2   -1    0    0  501    0  0.00000000000E+00  0.00000000000E+00  0.37851595819E+04  0.37851595819E+04  0.25500000000E-02 0. -1.
         -2   -1    0    0    0  501 -0.00000000000E+00 -0.00000000000E+00 -0.33616492486E+03  0.33616492487E+03  0.25500000000E-02 0.  1.
    8880023    1    1    2    0    0  0.46070275851E+03 -0.20992523204E+03  0.23392395469E+03  0.86304475990E+03  0.65864270000E+03 0.  1.
    8880022    1    1    2    0    0 -0.46070275851E+03  0.20992523204E+03  0.32150707024E+04  0.32582797469E+04  0.15294330000E+03 0.  0.
<mgrwt>
<rscale>  0 0.74205498E+03</rscale>
<asrwt>0</asrwt>
<pdfrwt beam="1">  1        2 0.58233226E+00 0.83073813E+03</pdfrwt>
<pdfrwt beam="2">  1       -2 0.51717680E-01 0.83073813E+03</pdfrwt>
<totfact> 0.19232323E+00</totfact>
</mgrwt>
</event>
<event>
 4    1  0.7595604E-007  0.8344793E+03  0.7818608E-02  0.9640679E-01
          2   -1    0    0  501    0  0.00000000000E+00  0.00000000000E+00  0.35349588528E+04  0.35349588528E+04  0.25500000000E-02 0. -1.
         -2   -1    0    0    0  501 -0.00000000000E+00 -0.00000000000E+00 -0.19087978883E+03  0.19087978884E+03  0.25500000000E-02 0.  1.
    8880023    1    1    2    0    0 -0.29546202664E+03  0.41862586658E+03  0.29385156866E+04  0.30547062170E+04  0.65864270000E+03 0.  0.
    8880022    1    1    2    0    0  0.29546202664E+03 -0.41862586658E+03  0.40556337736E+03  0.67113242466E+03  0.15294330000E+03 0.  0.
<mgrwt>
<rscale>  0 0.74661286E+03</rscale>
<asrwt>0</asrwt>
<pdfrwt beam="1">  1        2 0.54383982E+00 0.83447926E+03</pdfrwt>
<pdfrwt beam="2">  1       -2 0.29366122E-01 0.83447926E+03</pdfrwt>
<totfact> 0.87281679E+00</totfact>
</mgrwt>
</event>
<event>
 4    1  0.7595604E-007  0.6683979E+03  0.7818608E-02  0.1016838E+00
          2   -1    0    0  501    0  0.00000000000E+00  0.00000000000E+00  0.58495806743E+03  0.58495806743E+03  0.25500000000E-02 0. -1.
         -2   -1    0    0    0  501 -0.00000000000E+00 -0.00000000000E+00 -0.57738604511E+03  0.57738604511E+03  0.25500000000E-02 0.  1.
    8880023    1    1    2    0    0 -0.11087992055E+02 -0.11323664834E+03 -0.35196166063E+03  0.75540234241E+03  0.65864270000E+03 0.  1.
    8880022    1    1    2    0    0  0.11087992055E+02  0.11323664834E+03  0.35953368295E+03  0.40694177014E+03  0.15294330000E+03 0.  0.
<mgrwt>
<rscale>  0 0.48845001E+03</rscale>
<asrwt>0</asrwt>
<pdfrwt beam="1">  1        2 0.89993549E-01 0.66839785E+03</pdfrwt>
<pdfrwt beam="2">  1       -2 0.88828623E-01 0.66839785E+03</pdfrwt>
<totfact> 0.56709105E+01</totfact>
</mgrwt>
</event>
<event>
 4    1  0.7595604E-007  0.7008169E+03  0.7818608E-02  0.9993829E-01
          2   -1    0    0  501    0  0.00000000000E+00  0.00000000000E+00  0.12035347092E+04  0.12035347092E+04  0.25500000000E-02 0. -1.
         -2   -1    0    0    0  501 -0.00000000000E+00 -0.00000000000E+00 -0.72529219569E+03  0.72529219569E+03  0.25500000000E-02 0.  1.
    8880023    1    1    2    0    0  0.22353383438E+03 -0.85829666916E+02 -0.53169541298E+03  0.87968421907E+03  0.65864270000E+03 0.  1.
    8880022    1    1    2    0    0 -0.22353383438E+03  0.85829666916E+02  0.10099379264E+04  0.10491426858E+04  0.15294330000E+03 0.  0.
<mgrwt>
<rscale>  0 0.55921645E+03</rscale>
<asrwt>0</asrwt>
<pdfrwt beam="1">  1        2 0.18515919E+00 0.70081689E+03</pdfrwt>
<pdfrwt beam="2">  1       -2 0.11158342E+00 0.70081689E+03</pdfrwt>
<totfact> 0.12272760E+01</totfact>
</mgrwt>
</event>
<event>
 4    1  0.7595604E-007  0.6653624E+03  0.7818608E-02  0.1019231E+00
         -2   -1    0    0    0  501 -0.00000000000E+00  0.00000000000E+00  0.54811564651E+03  0.54811564652E+03  0.25500000000E-02 0.  1.
          2   -1    0    0  501    0  0.00000000000E+00 -0.00000000000E+00 -0.50068853518E+03  0.50068853519E+03  0.25500000000E-02 0. -1.
    8880023    1    1    2    0    0 -0.33523305551E+02 -0.88165269874E+02  0.30726662126E+03  0.73288464961E+03  0.65864270000E+03 0.  1.
    8880022    1    1    2    0    0  0.33523305551E+02  0.88165269874E+02 -0.25983950993E+03  0.31591953210E+03  0.15294330000E+03 0.  0.
<mgrwt>
<rscale>  0 0.47965040E+03</rscale>
<asrwt>0</asrwt>
<pdfrwt beam="1">  1        2 0.77029006E-01 0.66536241E+03</pdfrwt>
<pdfrwt beam="2">  1       -2 0.84325484E-01 0.66536241E+03</pdfrwt>
<totfact> 0.76690340E+01</totfact>
</mgrwt>
</event>
<event>
 4    1  0.7595604E-007  0.7227370E+03  0.7818608E-02  0.9913432E-01
         -2   -1    0    0    0  501 -0.00000000000E+00  0.00000000000E+00  0.32294718875E+03  0.32294718876E+03  0.25500000000E-02 0.  1.
          2   -1    0    0  501    0  0.00000000000E+00 -0.00000000000E+00 -0.15510658000E+04  0.15510658000E+04  0.25500000000E-02 0. -1.
    8880023    1    1    2    0    0  0.73833306211E+02 -0.28824841031E+03 -0.14071732815E+03  0.73630841083E+03  0.65864270000E+03 0.  0.
    8880022    1    1    2    0    0 -0.73833306211E+02  0.28824841031E+03 -0.10874012831E+04  0.11377045780E+04  0.15294330000E+03 0.  0.
<mgrwt>
<rscale>  0 0.59614731E+03</rscale>
<asrwt>0</asrwt>
<pdfrwt beam="1">  1        2 0.23862550E+00 0.72273696E+03</pdfrwt>
<pdfrwt beam="2">  1       -2 0.49684184E-01 0.72273696E+03</pdfrwt>
<totfact> 0.46715804E+01</totfact>
</mgrwt>
</event>
<event>
 4    1  0.7595604E-007  0.7384329E+03  0.7818608E-02  0.9864535E-01
         -2   -1    0    0    0  501 -0.00000000000E+00  0.00000000000E+00  0.13362509496E+04  0.13362509496E+04  0.25500000000E-02 0.  1.
          2   -1    0    0  501    0  0.00000000000E+00 -0.00000000000E+00 -0.66923886218E+03  0.66923886219E+03  0.25500000000E-02 0. -1.
    8880023    1    1    2    0    0  0.10239181227E+03  0.31778755778E+03  0.11694945420E+04  0.13831126871E+04  0.65864270000E+03 0.  1.
    8880022    1    1    2    0    0 -0.10239181227E+03 -0.31778755778E+03 -0.50248245463E+03  0.62237712468E+03  0.15294330000E+03 0.  0.
<mgrwt>
<rscale>  0 0.62011263E+03</rscale>
<asrwt>0</asrwt>
<pdfrwt beam="1">  1        2 0.10295983E+00 0.73843295E+03</pdfrwt>
<pdfrwt beam="2">  1       -2 0.20557707E+00 0.73843295E+03</pdfrwt>
<totfact> 0.54254069E+00</totfact>
</mgrwt>
</event>
<event>
 4    1  0.7595604E-007  0.8718283E+03  0.7818608E-02  0.9572860E-01
         -2   -1    0    0    0  501 -0.00000000000E+00  0.00000000000E+00  0.12998195981E+04  0.12998195981E+04  0.25500000000E-02 0.  1.
          2   -1    0    0  501    0  0.00000000000E+00 -0.00000000000E+00 -0.53280801330E+03  0.53280801331E+03  0.25500000000E-02 0. -1.
    8880023    1    1    2    0    0 -0.32932776824E+03  0.46670925335E+03  0.87084348970E+03  0.12322552073E+04  0.65864270000E+03 0.  0.
    8880022    1    1    2    0    0  0.32932776824E+03 -0.46670925335E+03 -0.10383190492E+03  0.60037240409E+03  0.15294330000E+03 0.  0.
<mgrwt>
<rscale>  0 0.79118834E+03</rscale>
<asrwt>0</asrwt>
<pdfrwt beam="1">  1        2 0.81970464E-01 0.87182826E+03</pdfrwt>
<pdfrwt beam="2">  1       -2 0.19997224E+00 0.87182826E+03</pdfrwt>
<totfact> 0.76559173E+00</totfact>
</mgrwt>
</event>
<event>
 4    1  0.7595604E-007  0.8389597E+03  0.7818608E-02  0.9632145E-01
         -2   -1    0    0    0  501 -0.00000000000E+00  0.00000000000E+00  0.47971186199E+03  0.47971186200E+03  0.25500000000E-02 0.  1.
          2   -1    0    0  501    0  0.00000000000E+00 -0.00000000000E+00 -0.10559767879E+04  0.10559767879E+04  0.25500000000E-02 0. -1.
    8880023    1    1    2    0    0 -0.11667399908E+02  0.51952572242E+03 -0.16371719058E+03  0.85478455135E+03  0.65864270000E+03 0. -1.
    8880022    1    1    2    0    0  0.11667399908E+02 -0.51952572242E+03 -0.41254773534E+03  0.68090409855E+03  0.15294330000E+03 0.  0.
<mgrwt>
<rscale>  0 0.75204660E+03</rscale>
<asrwt>0</asrwt>
<pdfrwt beam="1">  1        2 0.16245797E+00 0.83895966E+03</pdfrwt>
<pdfrwt beam="2">  1       -2 0.73801825E-01 0.83895966E+03</pdfrwt>
<totfact> 0.38729059E+01</totfact>
</mgrwt>
</event>
<event>
 4    1  0.7595604E-007  0.1000512E+04  0.7818608E-02  0.9380888E-01
          2   -1    0    0  501    0  0.00000000000E+00  0.00000000000E+00  0.20647021231E+04  0.20647021231E+04  0.25500000000E-02 0. -1.
         -2   -1    0    0    0  501 -0.00000000000E+00 -0.00000000000E+00 -0.81360248910E+03  0.81360248911E+03  0.25500000000E-02 0.  1.
    8880023    1    1    2    0    0  0.74694902799E+03  0.96338582235E+02 -0.38394876658E+03  0.10716533182E+04  0.65864270000E+03 0.  0.
    8880022    1    1    2    0    0 -0.74694902799E+03 -0.96338582235E+02  0.16350484006E+04  0.18066512940E+04  0.15294330000E+03 0.  0.
<mgrwt>
<rscale>  0 0.93665339E+03</rscale>
<asrwt>0</asrwt>
<pdfrwt beam="1">  1        2 0.31764648E+00 0.10005120E+04</pdfrwt>
<pdfrwt beam="2">  1       -2 0.12516962E+00 0.10005120E+04</pdfrwt>
<totfact> 0.29368857E+00</totfact>
</mgrwt>
</event>
<event>
 4    1  0.7595604E-007  0.9751687E+03  0.7818608E-02  0.9414791E-01
          2   -1    0    0  501    0  0.00000000000E+00  0.00000000000E+00  0.61272333373E+03  0.61272333373E+03  0.25500000000E-02 0. -1.
         -2   -1    0    0    0  501 -0.00000000000E+00 -0.00000000000E+00 -0.18493330831E+04  0.18493330831E+04  0.25500000000E-02 0.  1.
    8880023    1    1    2    0    0 -0.17392596824E+03  0.69777752592E+03 -0.14026521547E+04  0.17083287130E+04  0.65864270000E+03 0.  0.
    8880022    1    1    2    0    0  0.17392596824E+03 -0.69777752592E+03  0.16604240541E+03  0.75372770382E+03  0.15294330000E+03 0.  0.
<mgrwt>
<rscale>  0 0.90868387E+03</rscale>
<asrwt>0</asrwt>
<pdfrwt beam="1">  1        2 0.94265129E-01 0.97516866E+03</pdfrwt>
<pdfrwt beam="2">  1       -2 0.28451278E+00 0.97516866E+03</pdfrwt>
<totfact> 0.19235579E+00</totfact>
</mgrwt>
</event>
<event>
 4    1  0.7595604E-007  0.8284573E+03  0.7818608E-02  0.9652341E-01
          2   -1    0    0  501    0  0.00000000000E+00  0.00000000000E+00  0.12825587630E+04  0.12825587630E+04  0.25500000000E-02 0. -1.
         -2   -1    0    0    0  501 -0.00000000000E+00 -0.00000000000E+00 -0.72723770749E+03  0.72723770750E+03  0.25500000000E-02 0.  1.
    8880023    1    1    2    0    0 -0.43622867547E+03 -0.24947112804E+03 -0.39970759821E+03  0.91984111202E+03  0.65864270000E+03 0.  0.
    8880022    1    1    2    0    0  0.43622867547E+03  0.24947112804E+03  0.95502865368E+03  0.10899553584E+04  0.15294330000E+03 0.  0.
<mgrwt>
<rscale>  0 0.73926659E+03</rscale>
<asrwt>0</asrwt>
<pdfrwt beam="1">  1        2 0.19731673E+00 0.82845731E+03</pdfrwt>
<pdfrwt beam="2">  1       -2 0.11188272E+00 0.82845731E+03</pdfrwt>
<totfact> 0.10791747E+01</totfact>
</mgrwt>
</event>
<event>
 4    1  0.7595604E-007  0.1141709E+04  0.7818608E-02  0.9215980E-01
          2   -1    0    0  501    0  0.00000000000E+00  0.00000000000E+00  0.94832331800E+03  0.94832331800E+03  0.25500000000E-02 0. -1.
         -2   -1    0    0    0  501 -0.00000000000E+00 -0.00000000000E+00 -0.14288784955E+04  0.14288784955E+04  0.25500000000E-02 0.  1.
    8880023    1    1    2    0    0  0.40106831266E+03 -0.84192192768E+03 -0.78362781198E+03  0.13847639068E+04  0.65864270000E+03 0.  0.
    8880022    1    1    2    0    0 -0.40106831266E+03  0.84192192768E+03  0.30307263450E+03  0.99243790663E+03  0.15294330000E+03 0.  0.
<mgrwt>
<rscale>  0 0.10889997E+04</rscale>
<asrwt>0</asrwt>
<pdfrwt beam="1">  1        2 0.14589589E+00 0.11417086E+04</pdfrwt>
<pdfrwt beam="2">  1       -2 0.21982746E+00 0.11417086E+04</pdfrwt>
<totfact> 0.26401454E+00</totfact>
</mgrwt>
</event>
<event>
 4    1  0.7595604E-007  0.1638890E+04  0.7818608E-02  0.8817317E-01
         -2   -1    0    0    0  501 -0.00000000000E+00  0.00000000000E+00  0.16242315160E+04  0.16242315160E+04  0.25500000000E-02 0.  1.
          2   -1    0    0  501    0  0.00000000000E+00 -0.00000000000E+00 -0.17971250834E+04  0.17971250834E+04  0.25500000000E-02 0. -1.
    8880023    1    1    2    0    0 -0.14978304744E+04 -0.93032707072E+02 -0.75501748630E+03  0.18044425248E+04  0.65864270000E+03 0.  0.
    8880022    1    1    2    0    0  0.14978304744E+04  0.93032707072E+02  0.58212391887E+03  0.16169140745E+04  0.15294330000E+03 0.  0.
<mgrwt>
<rscale>  0 0.16052698E+04</rscale>
<asrwt>0</asrwt>
<pdfrwt beam="1">  1        2 0.27648078E+00 0.16388903E+04</pdfrwt>
<pdfrwt beam="2">  1       -2 0.24988177E+00 0.16388903E+04</pdfrwt>
<totfact> 0.51591778E-01</totfact>
</mgrwt>
</event>
<event>
 4    1  0.7595604E-007  0.9781612E+03  0.7818608E-02  0.9410704E-01
         -2   -1    0    0    0  501 -0.00000000000E+00  0.00000000000E+00  0.48085535538E+03  0.48085535539E+03  0.25500000000E-02 0.  1.
          2   -1    0    0  501    0  0.00000000000E+00 -0.00000000000E+00 -0.25561535892E+04  0.25561535892E+04  0.25500000000E-02 0. -1.
    8880023    1    1    2    0    0  0.13203881087E+03 -0.71102388967E+03 -0.16930925987E+03  0.99270592373E+03  0.65864270000E+03 0.  0.
    8880022    1    1    2    0    0 -0.13203881087E+03  0.71102388967E+03 -0.19059889740E+04  0.20443030209E+04  0.15294330000E+03 0.  0.
<mgrwt>
<rscale>  0 0.91199987E+03</rscale>
<asrwt>0</asrwt>
<pdfrwt beam="1">  1        2 0.39325439E+00 0.97816125E+03</pdfrwt>
<pdfrwt beam="2">  1       -2 0.73977748E-01 0.97816125E+03</pdfrwt>
<totfact> 0.53936861E+00</totfact>
</mgrwt>
</event>
<event>
 4    1  0.7595604E-007  0.6776982E+03  0.7818608E-02  0.1010657E+00
          2   -1    0    0  501    0  0.00000000000E+00  0.00000000000E+00  0.28869624834E+03  0.28869624835E+03  0.25500000000E-02 0. -1.
         -2   -1    0    0    0  501 -0.00000000000E+00 -0.00000000000E+00 -0.11097172828E+04  0.11097172828E+04  0.25500000000E-02 0.  1.
    8880023    1    1    2    0    0  0.43415534378E+02 -0.15355714742E+03 -0.93099454398E+03  0.11515319159E+04  0.65864270000E+03 0.  1.
    8880022    1    1    2    0    0 -0.43415534378E+02  0.15355714742E+03  0.10997350951E+03  0.24688161527E+03  0.15294330000E+03 0.  0.
<mgrwt>
<rscale>  0 0.51214438E+03</rscale>
<asrwt>0</asrwt>
<pdfrwt beam="1">  1        2 0.44414808E-01 0.67769825E+03</pdfrwt>
<pdfrwt beam="2">  1       -2 0.17072573E+00 0.67769825E+03</pdfrwt>
<totfact> 0.24602591E+01</totfact>
</mgrwt>
</event>
<event>
 4    1  0.7595604E-007  0.8462766E+03  0.7818608E-02  0.9618457E-01
         -2   -1    0    0    0  501 -0.00000000000E+00  0.00000000000E+00  0.63117286974E+03  0.63117286975E+03  0.25500000000E-02 0.  1.
          2   -1    0    0  501    0  0.00000000000E+00 -0.00000000000E+00 -0.23748053255E+04  0.23748053255E+04  0.25500000000E-02 0. -1.
    8880023    1    1    2    0    0  0.39330818291E+03 -0.35732702940E+03  0.29303938692E+03  0.89557591595E+03  0.65864270000E+03 0.  1.
    8880022    1    1    2    0    0 -0.39330818291E+03  0.35732702940E+03 -0.20366718427E+04  0.21104022793E+04  0.15294330000E+03 0.  0.
<mgrwt>
<rscale>  0 0.76086540E+03</rscale>
<asrwt>0</asrwt>
<pdfrwt beam="1">  1        2 0.36535466E+00 0.84627663E+03</pdfrwt>
<pdfrwt beam="2">  1       -2 0.97103520E-01 0.84627663E+03</pdfrwt>
<totfact> 0.37454595E+00</totfact>
</mgrwt>
</event>
<event>
 4    1  0.7595604E-007  0.6860910E+03  0.7818608E-02  0.1006069E+00
         -2   -1    0    0    0  501 -0.00000000000E+00  0.00000000000E+00  0.30605784644E+03  0.30605784645E+03  0.25500000000E-02 0.  1.
          2   -1    0    0  501    0  0.00000000000E+00 -0.00000000000E+00 -0.86682435542E+03  0.86682435543E+03  0.25500000000E-02 0. -1.
    8880023    1    1    2    0    0  0.16387432421E+03 -0.10027864431E+03 -0.61501924439E+03  0.92139539714E+03  0.65864270000E+03 0.  0.
    8880022    1    1    2    0    0 -0.16387432421E+03  0.10027864431E+03  0.54252735401E+02  0.25148680473E+03  0.15294330000E+03 0.  0.
<mgrwt>
<rscale>  0 0.53067419E+03</rscale>
<asrwt>0</asrwt>
<pdfrwt beam="1">  1        2 0.13335759E+00 0.68609096E+03</pdfrwt>
<pdfrwt beam="2">  1       -2 0.47085823E-01 0.68609096E+03</pdfrwt>
<totfact> 0.13417789E+02</totfact>
</mgrwt>
</event>
<event>
 4    1  0.7595604E-007  0.7829541E+03  0.7818608E-02  0.9748943E-01
          2   -1    0    0  501    0  0.00000000000E+00  0.00000000000E+00  0.66408953702E+03  0.66408953702E+03  0.25500000000E-02 0. -1.
         -2   -1    0    0    0  501 -0.00000000000E+00 -0.00000000000E+00 -0.60869437514E+03  0.60869437515E+03  0.25500000000E-02 0.  1.
    8880023    1    1    2    0    0 -0.41558688343E+03  0.80588269347E+02 -0.11529318491E+03  0.79139727798E+03  0.65864270000E+03 0.  0.
    8880022    1    1    2    0    0  0.41558688343E+03 -0.80588269347E+02  0.17068834679E+03  0.48138663419E+03  0.15294330000E+03 0.  0.
<mgrwt>
<rscale>  0 0.68176041E+03</rscale>
<asrwt>0</asrwt>
<pdfrwt beam="1">  1        2 0.10216762E+00 0.78295411E+03</pdfrwt>
<pdfrwt beam="2">  1       -2 0.93645288E-01 0.78295411E+03</pdfrwt>
<totfact> 0.42630203E+01</totfact>
</mgrwt>
</event>
<event>
 4    1  0.7595604E-007  0.7459909E+03  0.7818608E-02  0.9842828E-01
         -2   -1    0    0    0  501 -0.00000000000E+00  0.00000000000E+00  0.16543684415E+03  0.16543684417E+03  0.25500000000E-02 0.  1.
          2   -1    0    0  501    0  0.00000000000E+00 -0.00000000000E+00 -0.27297140403E+04  0.27297140403E+04  0.25500000000E-02 0. -1.
    8880023    1    1    2    0    0  0.29475766980E+03 -0.18923561181E+03 -0.81608895722E+03  0.11056688442E+04  0.65864270000E+03 0.  1.
    8880022    1    1    2    0    0 -0.29475766980E+03  0.18923561181E+03 -0.17481882390E+04  0.17894820403E+04  0.15294330000E+03 0.  0.
<mgrwt>
<rscale>  0 0.63113958E+03</rscale>
<asrwt>0</asrwt>
<pdfrwt beam="1">  1        2 0.41995597E+00 0.74599089E+03</pdfrwt>
<pdfrwt beam="2">  1       -2 0.25451824E-01 0.74599089E+03</pdfrwt>
<totfact> 0.37100410E+01</totfact>
</mgrwt>
</event>
<event>
 4    1  0.7595604E-007  0.9070486E+03  0.7818608E-02  0.9514810E-01
         -2   -1    0    0    0  501 -0.00000000000E+00  0.00000000000E+00  0.42040711811E+03  0.42040711811E+03  0.25500000000E-02 0.  1.
          2   -1    0    0  501    0  0.00000000000E+00 -0.00000000000E+00 -0.19685631647E+04  0.19685631647E+04  0.25500000000E-02 0. -1.
    8880023    1    1    2    0    0  0.61405867580E+03  0.10889898793E+03 -0.25029285416E+03  0.94094833333E+03  0.65864270000E+03 0.  1.
    8880022    1    1    2    0    0 -0.61405867580E+03 -0.10889898793E+03 -0.12978631925E+04  0.14480219495E+04  0.15294330000E+03 0.  0.
<mgrwt>
<rscale>  0 0.83200716E+03</rscale>
<asrwt>0</asrwt>
<pdfrwt beam="1">  1        2 0.30285587E+00 0.90704865E+03</pdfrwt>
<pdfrwt beam="2">  1       -2 0.64678019E-01 0.90704865E+03</pdfrwt>
<totfact> 0.15552505E+01</totfact>
</mgrwt>
</event>
<event>
 4    1  0.7595604E-007  0.1080792E+04  0.7818608E-02  0.9282749E-01
          2   -1    0    0  501    0  0.00000000000E+00  0.00000000000E+00  0.43789889183E+04  0.43789889183E+04  0.25500000000E-02 0. -1.
         -2   -1    0    0    0  501 -0.00000000000E+00 -0.00000000000E+00 -0.72807972229E+03  0.72807972230E+03  0.25500000000E-02 0.  1.
    8880023    1    1    2    0    0  0.80345849356E+03 -0.29791951168E+03 -0.25074248151E+03  0.11094969962E+04  0.65864270000E+03 0.  1.
    8880022    1    1    2    0    0 -0.80345849356E+03  0.29791951168E+03  0.39016516775E+04  0.39975716443E+04  0.15294330000E+03 0.  0.
<mgrwt>
<rscale>  0 0.10238665E+04</rscale>
<asrwt>0</asrwt>
<pdfrwt beam="1">  1        2 0.67369059E+00 0.10807922E+04</pdfrwt>
<pdfrwt beam="2">  1       -2 0.11201227E+00 0.10807922E+04</pdfrwt>
<totfact> 0.10577543E-01</totfact>
</mgrwt>
</event>
<event>
 4    1  0.7595604E-007  0.6880778E+03  0.7818608E-02  0.1005080E+00
         -2   -1    0    0    0  501 -0.00000000000E+00  0.00000000000E+00  0.51663280810E+03  0.51663280810E+03  0.25500000000E-02 0.  1.
          2   -1    0    0  501    0  0.00000000000E+00 -0.00000000000E+00 -0.97207024619E+03  0.97207024619E+03  0.25500000000E-02 0. -1.
    8880023    1    1    2    0    0  0.19667459804E+03 -0.30982096430E+02  0.25608391553E+03  0.73418660153E+03  0.65864270000E+03 0.  1.
    8880022    1    1    2    0    0 -0.19667459804E+03  0.30982096430E+02 -0.71152135362E+03  0.75451645276E+03  0.15294330000E+03 0.  0.
<mgrwt>
<rscale>  0 0.53477815E+03</rscale>
<asrwt>0</asrwt>
<pdfrwt beam="1">  1        2 0.14954927E+00 0.68807775E+03</pdfrwt>
<pdfrwt beam="2">  1       -2 0.79481971E-01 0.68807775E+03</pdfrwt>
<totfact> 0.37629588E+01</totfact>
</mgrwt>
</event>
<event>
 4    1  0.7595604E-007  0.7321322E+03  0.7818608E-02  0.9883488E-01
         -2   -1    0    0    0  501 -0.00000000000E+00  0.00000000000E+00  0.27317752039E+03  0.27317752041E+03  0.25500000000E-02 0.  1.
          2   -1    0    0  501    0  0.00000000000E+00 -0.00000000000E+00 -0.29564350405E+04  0.29564350405E+04  0.25500000000E-02 0. -1.
    8880023    1    1    2    0    0 -0.28268252959E+03 -0.14932476540E+03 -0.25445522115E+03  0.77509029405E+03  0.65864270000E+03 0.  0.
    8880022    1    1    2    0    0  0.28268252959E+03  0.14932476540E+03 -0.24288022990E+04  0.24545222669E+04  0.15294330000E+03 0.  0.
<mgrwt>
<rscale>  0 0.61068235E+03</rscale>
<asrwt>0</asrwt>
<pdfrwt beam="1">  1        2 0.45483614E+00 0.73213216E+03</pdfrwt>
<pdfrwt beam="2">  1       -2 0.42027313E-01 0.73213216E+03</pdfrwt>
<totfact> 0.10592857E+01</totfact>
</mgrwt>
</event>
<event>
 4    1  0.7595604E-007  0.7335337E+03  0.7818608E-02  0.9879200E-01
          2   -1    0    0  501    0  0.00000000000E+00  0.00000000000E+00  0.30517805369E+04  0.30517805369E+04  0.25500000000E-02 0. -1.
         -2   -1    0    0    0  501 -0.00000000000E+00 -0.00000000000E+00 -0.97479063696E+02  0.97479063729E+02  0.25500000000E-02 0.  1.
    8880023    1    1    2    0    0 -0.20598492466E+03 -0.24865970727E+03  0.19963894930E+04  0.21268856700E+04  0.65864270000E+03 0.  1.
    8880022    1    1    2    0    0  0.20598492466E+03  0.24865970727E+03  0.95791198020E+03  0.10223739306E+04  0.15294330000E+03 0. -1.
<mgrwt>
<rscale>  0 0.61280028E+03</rscale>
<asrwt>0</asrwt>
<pdfrwt beam="1">  1        2 0.46950468E+00 0.73353367E+03</pdfrwt>
<pdfrwt beam="2">  1       -2 0.14996780E-01 0.73353367E+03</pdfrwt>
<totfact> 0.59978785E+01</totfact>
</mgrwt>
</event>
<event>
 4    1  0.7595604E-007  0.8036063E+03  0.7818608E-02  0.9703052E-01
         -2   -1    0    0    0  501 -0.00000000000E+00  0.00000000000E+00  0.70000371750E+03  0.70000371751E+03  0.25500000000E-02 0.  1.
          2   -1    0    0  501    0  0.00000000000E+00 -0.00000000000E+00 -0.15220483284E+04  0.15220483284E+04  0.25500000000E-02 0. -1.
    8880023    1    1    2    0    0 -0.38352328889E+03  0.25472110531E+03  0.40694636879E+03  0.90077106301E+03  0.65864270000E+03 0.  0.
    8880022    1    1    2    0    0  0.38352328889E+03 -0.25472110531E+03 -0.12289909797E+04  0.13212809829E+04  0.15294330000E+03 0.  0.
<mgrwt>
<rscale>  0 0.70835369E+03</rscale>
<asrwt>0</asrwt>
<pdfrwt beam="1">  1        2 0.23416128E+00 0.80360635E+03</pdfrwt>
<pdfrwt beam="2">  1       -2 0.10769288E+00 0.80360635E+03</pdfrwt>
<totfact> 0.86834139E+00</totfact>
</mgrwt>
</event>
<event>
 4    1  0.7595604E-007  0.6603808E+03  0.7818608E-02  0.1023770E+00
          2   -1    0    0  501    0  0.00000000000E+00  0.00000000000E+00  0.18145706710E+04  0.18145706710E+04  0.25500000000E-02 0. -1.
         -2   -1    0    0    0  501 -0.00000000000E+00 -0.00000000000E+00 -0.42191322329E+03  0.42191322329E+03  0.25500000000E-02 0.  1.
    8880023    1    1    2    0    0  0.15468634817E+02  0.45314129823E+02 -0.15681592527E+03  0.67874449516E+03  0.65864270000E+03 0.  0.
    8880022    1    1    2    0    0 -0.15468634817E+02 -0.45314129823E+02  0.15494733730E+04  0.15577393992E+04  0.15294330000E+03 0. -1.
<mgrwt>
<rscale>  0 0.46350489E+03</rscale>
<asrwt>0</asrwt>
<pdfrwt beam="1">  1        2 0.27916472E+00 0.66038084E+03</pdfrwt>
<pdfrwt beam="2">  1       -2 0.64909727E-01 0.66038084E+03</pdfrwt>
<totfact> 0.19350979E+01</totfact>
</mgrwt>
</event>
<event>
 4    1  0.7595604E-007  0.8042113E+03  0.7818608E-02  0.9701763E-01
          2   -1    0    0  501    0  0.00000000000E+00  0.00000000000E+00  0.39815966020E+04  0.39815966020E+04  0.25500000000E-02 0. -1.
         -2   -1    0    0    0  501 -0.00000000000E+00 -0.00000000000E+00 -0.13117201565E+03  0.13117201568E+03  0.25500000000E-02 0.  1.
    8880023    1    1    2    0    0  0.45932142869E+03 -0.44378572808E+02  0.13996431938E+04  0.16142357043E+04  0.65864270000E+03 0.  0.
    8880022    1    1    2    0    0 -0.45932142869E+03  0.44378572808E+02  0.24507813925E+04  0.24985329134E+04  0.15294330000E+03 0.  0.
<mgrwt>
<rscale>  0 0.70911907E+03</rscale>
<asrwt>0</asrwt>
<pdfrwt beam="1">  1        2 0.61255320E+00 0.80421131E+03</pdfrwt>
<pdfrwt beam="2">  1       -2 0.20180314E-01 0.80421131E+03</pdfrwt>
<totfact> 0.81031078E+00</totfact>
</mgrwt>
</event>
<event>
 4    1  0.7595604E-007  0.8689785E+03  0.7818608E-02  0.9577788E-01
         -2   -1    0    0    0  501 -0.00000000000E+00  0.00000000000E+00  0.61063720532E+03  0.61063720532E+03  0.25500000000E-02 0.  1.
          2   -1    0    0  501    0  0.00000000000E+00 -0.00000000000E+00 -0.10917625718E+04  0.10917625718E+04  0.25500000000E-02 0. -1.
    8880023    1    1    2    0    0  0.51974217568E+03  0.22623309360E+03  0.10195758938E+03  0.87493936825E+03  0.65864270000E+03 0.  0.
    8880022    1    1    2    0    0 -0.51974217568E+03 -0.22623309360E+03 -0.58308295586E+03  0.82746040887E+03  0.15294330000E+03 0.  0.
<mgrwt>
<rscale>  0 0.78783941E+03</rscale>
<asrwt>0</asrwt>
<pdfrwt beam="1">  1        2 0.16796347E+00 0.86897845E+03</pdfrwt>
<pdfrwt beam="2">  1       -2 0.93944185E-01 0.86897845E+03</pdfrwt>
<totfact> 0.21207507E+01</totfact>
</mgrwt>
</event>
<event>
 4    1  0.7595604E-007  0.8049795E+03  0.7818608E-02  0.9700131E-01
          2   -1    0    0  501    0  0.00000000000E+00  0.00000000000E+00  0.56766868825E+03  0.56766868825E+03  0.25500000000E-02 0. -1.
         -2   -1    0    0    0  501 -0.00000000000E+00 -0.00000000000E+00 -0.12553772515E+04  0.12553772515E+04  0.25500000000E-02 0.  1.
    8880023    1    1    2    0    0 -0.37008755969E+03  0.27787932996E+03 -0.96942795325E+03  0.12600724133E+04  0.65864270000E+03 0.  1.
    8880022    1    1    2    0    0  0.37008755969E+03 -0.27787932996E+03  0.28171938997E+03  0.56297352652E+03  0.15294330000E+03 0.  0.
<mgrwt>
<rscale>  0 0.71008988E+03</rscale>
<asrwt>0</asrwt>
<pdfrwt beam="1">  1        2 0.87333645E-01 0.80497946E+03</pdfrwt>
<pdfrwt beam="2">  1       -2 0.19313496E+00 0.80497946E+03</pdfrwt>
<totfact> 0.79295696E+00</totfact>
</mgrwt>
</event>
<event>
 4    1  0.7595604E-007  0.7984366E+03  0.7818608E-02  0.9714187E-01
          2   -1    0    0  501    0  0.00000000000E+00  0.00000000000E+00  0.54179680091E+03  0.54179680091E+03  0.25500000000E-02 0. -1.
         -2   -1    0    0    0  501 -0.00000000000E+00 -0.00000000000E+00 -0.13066670729E+04  0.13066670729E+04  0.25500000000E-02 0.  1.
    8880023    1    1    2    0    0 -0.44453405058E+03 -0.77975967051E+02 -0.10299331186E+04  0.13031742817E+04  0.65864270000E+03 0.  0.
    8880022    1    1    2    0    0  0.44453405058E+03  0.77975967051E+02  0.26506284660E+03  0.54528959207E+03  0.15294330000E+03 0.  0.
<mgrwt>
<rscale>  0 0.70178368E+03</rscale>
<asrwt>0</asrwt>
<pdfrwt beam="1">  1        2 0.83353355E-01 0.79843658E+03</pdfrwt>
<pdfrwt beam="2">  1       -2 0.20102570E+00 0.79843658E+03</pdfrwt>
<totfact> 0.74443691E+00</totfact>
</mgrwt>
</event>
<event>
 4    1  0.7595604E-007  0.6655112E+03  0.7818608E-02  0.1019108E+00
         -2   -1    0    0    0  501 -0.00000000000E+00  0.00000000000E+00  0.22080986019E+03  0.22080986020E+03  0.25500000000E-02 0.  1.
          2   -1    0    0  501    0  0.00000000000E+00 -0.00000000000E+00 -0.18364472679E+04  0.18364472679E+04  0.25500000000E-02 0. -1.
    8880023    1    1    2    0    0 -0.65104793297E+02 -0.69687632221E+02 -0.30116177512E+03  0.73048177339E+03  0.65864270000E+03 0.  1.
    8880022    1    1    2    0    0  0.65104793297E+02  0.69687632221E+02 -0.13144756326E+04  0.13267753547E+04  0.15294330000E+03 0.  0.
<mgrwt>
<rscale>  0 0.48009775E+03</rscale>
<asrwt>0</asrwt>
<pdfrwt beam="1">  1        2 0.28253034E+00 0.66551124E+03</pdfrwt>
<pdfrwt beam="2">  1       -2 0.33970749E-01 0.66551124E+03</pdfrwt>
<totfact> 0.69150408E+01</totfact>
</mgrwt>
</event>
<event>
 4    1  0.7595604E-007  0.9139854E+03  0.7818608E-02  0.9503943E-01
         -2   -1    0    0    0  501 -0.00000000000E+00  0.00000000000E+00  0.77014976858E+03  0.77014976858E+03  0.25500000000E-02 0.  1.
          2   -1    0    0  501    0  0.00000000000E+00 -0.00000000000E+00 -0.14925264086E+04  0.14925264086E+04  0.25500000000E-02 0. -1.
    8880023    1    1    2    0    0  0.55876303511E+03  0.29890309134E+03  0.37367276038E+03  0.98742125029E+03  0.65864270000E+03 0.  1.
    8880022    1    1    2    0    0 -0.55876303511E+03 -0.29890309134E+03 -0.10960494004E+04  0.12752549269E+04  0.15294330000E+03 0.  0.
<mgrwt>
<rscale>  0 0.83993716E+03</rscale>
<asrwt>0</asrwt>
<pdfrwt beam="1">  1        2 0.22961945E+00 0.91398545E+03</pdfrwt>
<pdfrwt beam="2">  1       -2 0.11848458E+00 0.91398545E+03</pdfrwt>
<totfact> 0.70496525E+00</totfact>
</mgrwt>
</event>
<event>
 4    1  0.7595604E-007  0.9888950E+03  0.7818608E-02  0.9396233E-01
         -2   -1    0    0    0  501 -0.00000000000E+00  0.00000000000E+00  0.94367211671E+03  0.94367211671E+03  0.25500000000E-02 0.  1.
          2   -1    0    0  501    0  0.00000000000E+00 -0.00000000000E+00 -0.17952783871E+04  0.17952783871E+04  0.25500000000E-02 0. -1.
    8880023    1    1    2    0    0  0.60246620726E+03 -0.42560269450E+03  0.56179039827E+03  0.11373310170E+04  0.65864270000E+03 0.  0.
    8880022    1    1    2    0    0 -0.60246620726E+03  0.42560269450E+03 -0.14133966687E+04  0.16016194868E+04  0.15294330000E+03 0.  0.
<mgrwt>
<rscale>  0 0.92386366E+03</rscale>
<asrwt>0</asrwt>
<pdfrwt beam="1">  1        2 0.27619667E+00 0.98889504E+03</pdfrwt>
<pdfrwt beam="2">  1       -2 0.14518033E+00 0.98889504E+03</pdfrwt>
<totfact> 0.28263022E+00</totfact>
</mgrwt>
</event>
<event>
 4    1  0.7595604E-007  0.7258280E+03  0.7818608E-02  0.9903338E-01
         -2   -1    0    0    0  501 -0.00000000000E+00  0.00000000000E+00  0.17539446009E+03  0.17539446011E+03  0.25500000000E-02 0.  1.
          2   -1    0    0  501    0  0.00000000000E+00 -0.00000000000E+00 -0.19356331600E+04  0.19356331600E+04  0.25500000000E-02 0. -1.
    8880023    1    1    2    0    0  0.30142723190E+03 -0.46451758748E+02 -0.74555678286E+03  0.10405197090E+04  0.65864270000E+03 0.  1.
    8880022    1    1    2    0    0 -0.30142723190E+03  0.46451758748E+02 -0.10146819171E+04  0.10705079111E+04  0.15294330000E+03 0.  0.
<mgrwt>
<rscale>  0 0.60099805E+03</rscale>
<asrwt>0</asrwt>
<pdfrwt beam="1">  1        2 0.29778970E+00 0.72582804E+03</pdfrwt>
<pdfrwt beam="2">  1       -2 0.26983764E-01 0.72582804E+03</pdfrwt>
<totfact> 0.93016235E+01</totfact>
</mgrwt>
</event>
<event>
 4    1  0.7595604E-007  0.7643983E+03  0.7818608E-02  0.9793851E-01
          2   -1    0    0  501    0  0.00000000000E+00  0.00000000000E+00  0.22782538661E+04  0.22782538661E+04  0.25500000000E-02 0. -1.
         -2   -1    0    0    0  501 -0.00000000000E+00 -0.00000000000E+00 -0.22323773085E+03  0.22323773087E+03  0.25500000000E-02 0.  1.
    8880023    1    1    2    0    0 -0.17694017934E+03 -0.34523427203E+03  0.55510507328E+03  0.94469380134E+03  0.65864270000E+03 0.  1.
    8880022    1    1    2    0    0  0.17694017934E+03  0.34523427203E+03  0.14999110620E+04  0.15567977956E+04  0.15294330000E+03 0.  0.
<mgrwt>
<rscale>  0 0.65693577E+03</rscale>
<asrwt>0</asrwt>
<pdfrwt beam="1">  1        2 0.35050061E+00 0.76439828E+03</pdfrwt>
<pdfrwt beam="2">  1       -2 0.34344265E-01 0.76439828E+03</pdfrwt>
<totfact> 0.38342899E+01</totfact>
</mgrwt>
</event>
<event>
 4    1  0.7595604E-007  0.8381030E+03  0.7818608E-02  0.9633768E-01
          2   -1    0    0  501    0  0.00000000000E+00  0.00000000000E+00  0.10574736554E+04  0.10574736554E+04  0.25500000000E-02 0. -1.
         -2   -1    0    0    0  501 -0.00000000000E+00 -0.00000000000E+00 -0.68169462773E+03  0.68169462773E+03  0.25500000000E-02 0.  1.
    8880023    1    1    2    0    0 -0.43327362808E+03 -0.28439482008E+03 -0.28530684519E+03  0.88533420393E+03  0.65864270000E+03 0.  0.
    8880022    1    1    2    0    0  0.43327362808E+03  0.28439482008E+03  0.66108587282E+03  0.85383407916E+03  0.15294330000E+03 0.  0.
<mgrwt>
<rscale>  0 0.75100971E+03</rscale>
<asrwt>0</asrwt>
<pdfrwt beam="1">  1        2 0.16268825E+00 0.83810301E+03</pdfrwt>
<pdfrwt beam="2">  1       -2 0.10487610E+00 0.83810301E+03</pdfrwt>
<totfact> 0.17208637E+01</totfact>
</mgrwt>
</event>
<event>
 4    1  0.7595604E-007  0.7212996E+03  0.7818608E-02  0.9918213E-01
          2   -1    0    0  501    0  0.00000000000E+00  0.00000000000E+00  0.82758999753E+03  0.82758999753E+03  0.25500000000E-02 0. -1.
         -2   -1    0    0    0  501 -0.00000000000E+00 -0.00000000000E+00 -0.65490419441E+03  0.65490419441E+03  0.25500000000E-02 0.  1.
    8880023    1    1    2    0    0 -0.80521893182E+02 -0.28280575556E+03 -0.39705247977E+03  0.82336125037E+03  0.65864270000E+03 0.  1.
    8880022    1    1    2    0    0  0.80521893182E+02  0.28280575556E+03  0.56973828289E+03  0.65913294157E+03  0.15294330000E+03 0.  0.
<mgrwt>
<rscale>  0 0.59386674E+03</rscale>
<asrwt>0</asrwt>
<pdfrwt beam="1">  1        2 0.12732154E+00 0.72129958E+03</pdfrwt>
<pdfrwt beam="2">  1       -2 0.10075449E+00 0.72129958E+03</pdfrwt>
<totfact> 0.27164947E+01</totfact>
</mgrwt>
</event>
<event>
 4    1  0.7595604E-007  0.8906699E+03  0.7818608E-02  0.9541179E-01
          2   -1    0    0  501    0  0.00000000000E+00  0.00000000000E+00  0.25559815584E+04  0.25559815584E+04  0.25500000000E-02 0. -1.
         -2   -1    0    0    0  501 -0.00000000000E+00 -0.00000000000E+00 -0.59582454752E+03  0.59582454753E+03  0.25500000000E-02 0.  1.
    8880023    1    1    2    0    0  0.46896310331E+03 -0.37357226324E+03 -0.19313812213E+03  0.91136994059E+03  0.65864270000E+03 0.  1.
    8880022    1    1    2    0    0 -0.46896310331E+03  0.37357226324E+03  0.21532951330E+04  0.22404361653E+04  0.15294330000E+03 0.  0.
<mgrwt>
<rscale>  0 0.81314800E+03</rscale>
<asrwt>0</asrwt>
<pdfrwt beam="1">  1        2 0.39322792E+00 0.89066988E+03</pdfrwt>
<pdfrwt beam="2">  1       -2 0.91665317E-01 0.89066988E+03</pdfrwt>
<totfact> 0.33587758E+00</totfact>
</mgrwt>
</event>
<event>
 4    1  0.7595604E-007  0.7711757E+03  0.7818608E-02  0.9776989E-01
          2   -1    0    0  501    0  0.00000000000E+00  0.00000000000E+00  0.16549607466E+04  0.16549607466E+04  0.25500000000E-02 0. -1.
         -2   -1    0    0    0  501 -0.00000000000E+00 -0.00000000000E+00 -0.69185058222E+03  0.69185058222E+03  0.25500000000E-02 0.  1.
    8880023    1    1    2    0    0 -0.34021814988E+03  0.21249325480E+03 -0.43422265035E+03  0.88502050213E+03  0.65864270000E+03 0.  1.
    8880022    1    1    2    0    0  0.34021814988E+03 -0.21249325480E+03  0.13973328147E+04  0.14617908267E+04  0.15294330000E+03 0.  0.
<mgrwt>
<rscale>  0 0.66612194E+03</rscale>
<asrwt>0</asrwt>
<pdfrwt beam="1">  1        2 0.25460934E+00 0.77117571E+03</pdfrwt>
<pdfrwt beam="2">  1       -2 0.10643855E+00 0.77117571E+03</pdfrwt>
<totfact> 0.75753619E+00</totfact>
</mgrwt>
</event>
<event>
 4    1  0.7595604E-007  0.7467682E+03  0.7818608E-02  0.9840653E-01
          2   -1    0    0  501    0  0.00000000000E+00  0.00000000000E+00  0.12254168177E+04  0.12254168177E+04  0.25500000000E-02 0. -1.
         -2   -1    0    0    0  501 -0.00000000000E+00 -0.00000000000E+00 -0.86756735022E+03  0.86756735022E+03  0.25500000000E-02 0.  1.
    8880023    1    1    2    0    0 -0.28007313313E+03  0.21310004720E+03 -0.66536336500E+03  0.10001855847E+04  0.65864270000E+03 0.  1.
    8880022    1    1    2    0    0  0.28007313313E+03 -0.21310004720E+03  0.10232128325E+04  0.10927985833E+04  0.15294330000E+03 0.  0.
<mgrwt>
<rscale>  0 0.63225776E+03</rscale>
<asrwt>0</asrwt>
<pdfrwt beam="1">  1        2 0.18852566E+00 0.74676823E+03</pdfrwt>
<pdfrwt beam="2">  1       -2 0.13347190E+00 0.74676823E+03</pdfrwt>
<totfact> 0.75861640E+00</totfact>
</mgrwt>
</event>
<event>
 4    1  0.7595604E-007  0.1172246E+04  0.7818608E-02  0.9184584E-01
          2   -1    0    0  501    0  0.00000000000E+00  0.00000000000E+00  0.34086950951E+04  0.34086950951E+04  0.25500000000E-02 0. -1.
         -2   -1    0    0    0  501 -0.00000000000E+00 -0.00000000000E+00 -0.37032272208E+03  0.37032272209E+03  0.25500000000E-02 0.  1.
    8880023    1    1    2    0    0  0.91954886440E+03  0.30786582405E+03  0.21790040126E+04  0.24743120605E+04  0.65864270000E+03 0.  0.
    8880022    1    1    2    0    0 -0.91954886440E+03 -0.30786582405E+03  0.85936836045E+03  0.13047057567E+04  0.15294330000E+03 0.  0.
<mgrwt>
<rscale>  0 0.11213969E+04</rscale>
<asrwt>0</asrwt>
<pdfrwt beam="1">  1        2 0.52441462E+00 0.11722464E+04</pdfrwt>
<pdfrwt beam="2">  1       -2 0.56972727E-01 0.11722464E+04</pdfrwt>
<totfact> 0.27397187E+00</totfact>
</mgrwt>
</event>
<event>
 4    1  0.7595604E-007  0.8105833E+03  0.7818608E-02  0.9688363E-01
          2   -1    0    0  501    0  0.00000000000E+00  0.00000000000E+00  0.11105039792E+04  0.11105039792E+04  0.25500000000E-02 0. -1.
         -2   -1    0    0    0  501 -0.00000000000E+00 -0.00000000000E+00 -0.55580159063E+03  0.55580159064E+03  0.25500000000E-02 0.  1.
    8880023    1    1    2    0    0  0.44870587245E+03  0.14798029355E+03 -0.12950852860E+03  0.82086405238E+03  0.65864270000E+03 0.  1.
    8880022    1    1    2    0    0 -0.44870587245E+03 -0.14798029355E+03  0.68421091719E+03  0.84544151748E+03  0.15294330000E+03 0. -1.
<mgrwt>
<rscale>  0 0.71713890E+03</rscale>
<asrwt>0</asrwt>
<pdfrwt beam="1">  1        2 0.17084676E+00 0.81058333E+03</pdfrwt>
<pdfrwt beam="2">  1       -2 0.85507939E-01 0.81058333E+03</pdfrwt>
<totfact> 0.25806372E+01</totfact>
</mgrwt>
</event>
<event>
 4    1  0.7595604E-007  0.1240919E+04  0.7818608E-02  0.9118337E-01
         -2   -1    0    0    0  501 -0.00000000000E+00  0.00000000000E+00  0.45989380159E+03  0.45989380160E+03  0.25500000000E-02 0.  1.
          2   -1    0    0  501    0  0.00000000000E+00 -0.00000000000E+00 -0.34225157635E+04  0.34225157635E+04  0.25500000000E-02 0. -1.
    8880023    1    1    2    0    0 -0.10323420230E+04 -0.20084688665E+03 -0.81042778122E+03  0.14821177144E+04  0.65864270000E+03 0.  0.
    8880022    1    1    2    0    0  0.10323420230E+04  0.20084688665E+03 -0.21521941807E+04  0.24002918507E+04  0.15294330000E+03 0.  0.
<mgrwt>
<rscale>  0 0.11937585E+04</rscale>
<asrwt>0</asrwt>
<pdfrwt beam="1">  1        2 0.52654087E+00 0.12409189E+04</pdfrwt>
<pdfrwt beam="2">  1       -2 0.70752895E-01 0.12409189E+04</pdfrwt>
<totfact> 0.16669055E+00</totfact>
</mgrwt>
</event>
<event>
 4    1  0.7595604E-007  0.9267296E+03  0.7818608E-02  0.9484417E-01
          2   -1    0    0  501    0  0.00000000000E+00  0.00000000000E+00  0.38645958864E+04  0.38645958864E+04  0.25500000000E-02 0. -1.
         -2   -1    0    0    0  501 -0.00000000000E+00 -0.00000000000E+00 -0.19105289636E+03  0.19105289638E+03  0.25500000000E-02 0.  1.
    8880023    1    1    2    0    0  0.16386685295E+03 -0.63100334907E+03  0.28344930678E+04  0.29821433114E+04  0.65864270000E+03 0.  0.
    8880022    1    1    2    0    0 -0.16386685295E+03  0.63100334907E+03  0.83904992218E+03  0.10735054713E+04  0.15294330000E+03 0.  0.
<mgrwt>
<rscale>  0 0.85442530E+03</rscale>
<asrwt>0</asrwt>
<pdfrwt beam="1">  1        2 0.59455314E+00 0.92672961E+03</pdfrwt>
<pdfrwt beam="2">  1       -2 0.29392757E-01 0.92672961E+03</pdfrwt>
<totfact> 0.49531399E+00</totfact>
</mgrwt>
</event>
<event>
 4    1  0.7595604E-007  0.6647288E+03  0.7818608E-02  0.1019762E+00
         -2   -1    0    0    0  501 -0.00000000000E+00  0.00000000000E+00  0.22570580380E+03  0.22570580382E+03  0.25500000000E-02 0.  1.
          2   -1    0    0  501    0  0.00000000000E+00 -0.00000000000E+00 -0.11787733224E+04  0.11787733224E+04  0.25500000000E-02 0. -1.
    8880023    1    1    2    0    0 -0.53098878404E+02  0.72351429057E+02 -0.30276481507E+03  0.73043203632E+03  0.65864270000E+03 0.  1.
    8880022    1    1    2    0    0  0.53098878404E+02 -0.72351429057E+02 -0.65030270357E+03  0.67404708994E+03  0.15294330000E+03 0.  0.
<mgrwt>
<rscale>  0 0.47772597E+03</rscale>
<asrwt>0</asrwt>
<pdfrwt beam="1">  1        2 0.18134974E+00 0.66472884E+03</pdfrwt>
<pdfrwt beam="2">  1       -2 0.34723970E-01 0.66472884E+03</pdfrwt>
<totfact> 0.15460226E+02</totfact>
</mgrwt>
</event>
<event>
 4    1  0.7595604E-007  0.1058304E+04  0.7818608E-02  0.9308965E-01
          2   -1    0    0  501    0  0.00000000000E+00  0.00000000000E+00  0.14499331016E+04  0.14499331016E+04  0.25500000000E-02 0. -1.
         -2   -1    0    0    0  501 -0.00000000000E+00 -0.00000000000E+00 -0.93264773167E+03  0.93264773167E+03  0.25500000000E-02 0.  1.
    8880023    1    1    2    0    0 -0.81786149278E+03  0.13153005891E+03 -0.40531903863E+03  0.11332657707E+04  0.65864270000E+03 0.  1.
    8880022    1    1    2    0    0  0.81786149278E+03 -0.13153005891E+03  0.92260440855E+03  0.12493150625E+04  0.15294330000E+03 0.  0.
<mgrwt>
<rscale>  0 0.99961731E+03</rscale>
<asrwt>0</asrwt>
<pdfrwt beam="1">  1        2 0.22306663E+00 0.10583042E+04</pdfrwt>
<pdfrwt beam="2">  1       -2 0.14348427E+00 0.10583042E+04</pdfrwt>
<totfact> 0.45019907E+00</totfact>
</mgrwt>
</event>
<event>
 4    1  0.7595604E-007  0.8061460E+03  0.7818608E-02  0.9697661E-01
          2   -1    0    0  501    0  0.00000000000E+00  0.00000000000E+00  0.21259297958E+04  0.21259297958E+04  0.25500000000E-02 0. -1.
         -2   -1    0    0    0  501 -0.00000000000E+00 -0.00000000000E+00 -0.24799493244E+03  0.24799493245E+03  0.25500000000E-02 0.  1.
    8880023    1    1    2    0    0  0.54509502144E+02  0.46161663410E+03  0.59827466760E+03  0.10038944102E+04  0.65864270000E+03 0.  1.
    8880022    1    1    2    0    0 -0.54509502144E+02 -0.46161663410E+03  0.12796601958E+04  0.13700303181E+04  0.15294330000E+03 0.  0.
<mgrwt>
<rscale>  0 0.71156207E+03</rscale>
<asrwt>0</asrwt>
<pdfrwt beam="1">  1        2 0.32706612E+00 0.80614602E+03</pdfrwt>
<pdfrwt beam="2">  1       -2 0.38153067E-01 0.80614602E+03</pdfrwt>
<totfact> 0.37841965E+01</totfact>
</mgrwt>
</event>
<event>
 4    1  0.7595604E-007  0.8169024E+03  0.7818608E-02  0.9675375E-01
          2   -1    0    0  501    0  0.00000000000E+00  0.00000000000E+00  0.16685393835E+04  0.16685393835E+04  0.25500000000E-02 0. -1.
         -2   -1    0    0    0  501 -0.00000000000E+00 -0.00000000000E+00 -0.29320253039E+03  0.29320253040E+03  0.25500000000E-02 0.  1.
    8880023    1    1    2    0    0 -0.46302019651E+03  0.13831713954E+03  0.52267699488E+03  0.96980450644E+03  0.65864270000E+03 0.  0.
    8880022    1    1    2    0    0  0.46302019651E+03 -0.13831713954E+03  0.85265985823E+03  0.99193740746E+03  0.15294330000E+03 0.  0.
<mgrwt>
<rscale>  0 0.72502080E+03</rscale>
<asrwt>0</asrwt>
<pdfrwt beam="1">  1        2 0.25669837E+00 0.81690241E+03</pdfrwt>
<pdfrwt beam="2">  1       -2 0.45108080E-01 0.81690241E+03</pdfrwt>
<totfact> 0.48406828E+01</totfact>
</mgrwt>
</event>
<event>
 4    1  0.7595604E-007  0.7149040E+03  0.7818608E-02  0.9940222E-01
         -2   -1    0    0    0  501 -0.00000000000E+00  0.00000000000E+00  0.41482764228E+03  0.41482764228E+03  0.25500000000E-02 0.  1.
          2   -1    0    0  501    0  0.00000000000E+00 -0.00000000000E+00 -0.51706336917E+04  0.51706336917E+04  0.25500000000E-02 0. -1.
    8880023    1    1    2    0    0 -0.26902544261E+03  0.70020441031E+02  0.97741038144E+02  0.72155461868E+03  0.65864270000E+03 0.  0.
    8880022    1    1    2    0    0  0.26902544261E+03 -0.70020441031E+02 -0.48535470876E+04  0.48639067153E+04  0.15294330000E+03 0.  0.
<mgrwt>
<rscale>  0 0.58350944E+03</rscale>
<asrwt>0</asrwt>
<pdfrwt beam="1">  1        2 0.79548206E+00 0.71490402E+03</pdfrwt>
<pdfrwt beam="2">  1       -2 0.63819641E-01 0.71490402E+03</pdfrwt>
<totfact> 0.56094419E-02</totfact>
</mgrwt>
</event>
<event>
 4    1  0.7595604E-007  0.6637083E+03  0.7818608E-02  0.1020643E+00
         -2   -1    0    0    0  501 -0.00000000000E+00  0.00000000000E+00  0.10956959395E+03  0.10956959398E+03  0.25500000000E-02 0.  1.
          2   -1    0    0  501    0  0.00000000000E+00 -0.00000000000E+00 -0.22106381659E+04  0.22106381659E+04  0.25500000000E-02 0. -1.
    8880023    1    1    2    0    0  0.49046242496E+02 -0.65520446275E+02 -0.96644738667E+03  0.11724031816E+04  0.65864270000E+03 0.  1.
    8880022    1    1    2    0    0 -0.49046242496E+02  0.65520446275E+02 -0.11346211852E+04  0.11478045782E+04  0.15294330000E+03 0.  0.
<mgrwt>
<rscale>  0 0.47455429E+03</rscale>
<asrwt>0</asrwt>
<pdfrwt beam="1">  1        2 0.34009815E+00 0.66370827E+03</pdfrwt>
<pdfrwt beam="2">  1       -2 0.16856862E-01 0.66370827E+03</pdfrwt>
<totfact> 0.15197671E+02</totfact>
</mgrwt>
</event>
<event>
 4    1  0.7595604E-007  0.7010783E+03  0.7818608E-02  0.9992757E-01
         -2   -1    0    0    0  501 -0.00000000000E+00  0.00000000000E+00  0.26546766874E+03  0.26546766875E+03  0.25500000000E-02 0.  1.
          2   -1    0    0  501    0  0.00000000000E+00 -0.00000000000E+00 -0.32900947306E+04  0.32900947306E+04  0.25500000000E-02 0. -1.
    8880023    1    1    2    0    0  0.15442215636E+03 -0.18399557533E+03 -0.21751897284E+03  0.73404719462E+03  0.65864270000E+03 0.  1.
    8880022    1    1    2    0    0 -0.15442215636E+03  0.18399557533E+03 -0.28071080890E+04  0.28215152047E+04  0.15294330000E+03 0.  0.
<mgrwt>
<rscale>  0 0.55968968E+03</rscale>
<asrwt>0</asrwt>
<pdfrwt beam="1">  1        2 0.50616839E+00 0.70107830E+03</pdfrwt>
<pdfrwt beam="2">  1       -2 0.40841182E-01 0.70107830E+03</pdfrwt>
<totfact> 0.69677660E+00</totfact>
</mgrwt>
</event>
<event>
 4    1  0.7595604E-007  0.6598157E+03  0.7818608E-02  0.1024346E+00
          2   -1    0    0  501    0  0.00000000000E+00  0.00000000000E+00  0.23845178062E+04  0.23845178062E+04  0.25500000000E-02 0. -1.
         -2   -1    0    0    0  501 -0.00000000000E+00 -0.00000000000E+00 -0.93001412925E+02  0.93001412960E+02  0.25500000000E-02 0.  1.
    8880023    1    1    2    0    0  0.89734999073E+01  0.38288089591E+02  0.11557953866E+04  0.13308717758E+04  0.65864270000E+03 0.  1.
    8880022    1    1    2    0    0 -0.89734999073E+01 -0.38288089591E+02  0.11357210066E+04  0.11466474434E+04  0.15294330000E+03 0.  0.
<mgrwt>
<rscale>  0 0.46150351E+03</rscale>
<asrwt>0</asrwt>
<pdfrwt beam="1">  1        2 0.36684890E+00 0.65981566E+03</pdfrwt>
<pdfrwt beam="2">  1       -2 0.14307910E-01 0.65981566E+03</pdfrwt>
<totfact> 0.16084576E+02</totfact>
</mgrwt>
</event>
<event>
 4    1  0.7595604E-007  0.9217062E+03  0.7818608E-02  0.9492048E-01
         -2   -1    0    0    0  501 -0.00000000000E+00  0.00000000000E+00  0.43991508144E+03  0.43991508145E+03  0.25500000000E-02 0.  1.
          2   -1    0    0  501    0  0.00000000000E+00 -0.00000000000E+00 -0.40901616509E+04  0.40901616509E+04  0.25500000000E-02 0. -1.
    8880023    1    1    2    0    0  0.58133851112E+02 -0.64214680814E+03 -0.10988618389E+03  0.92823340143E+03  0.65864270000E+03 0.  1.
    8880022    1    1    2    0    0 -0.58133851112E+02  0.64214680814E+03 -0.35403603856E+04  0.36018433310E+04  0.15294330000E+03 0.  0.
<mgrwt>
<rscale>  0 0.84872645E+03</rscale>
<asrwt>0</asrwt>
<pdfrwt beam="1">  1        2 0.62925561E+00 0.92170618E+03</pdfrwt>
<pdfrwt beam="2">  1       -2 0.67679246E-01 0.92170618E+03</pdfrwt>
<totfact> 0.61985108E-01</totfact>
</mgrwt>
</event>
<event>
 4    1  0.7595604E-007  0.7721091E+03  0.7818608E-02  0.9774710E-01
          2   -1    0    0  501    0  0.00000000000E+00  0.00000000000E+00  0.36403030091E+04  0.36403030091E+04  0.25500000000E-02 0. -1.
         -2   -1    0    0    0  501 -0.00000000000E+00 -0.00000000000E+00 -0.11760788580E+03  0.11760788583E+03  0.25500000000E-02 0.  1.
    8880023    1    1    2    0    0  0.37143108987E+03  0.15614482801E+03  0.14697351507E+04  0.16602029639E+04  0.65864270000E+03 0.  0.
    8880022    1    1    2    0    0 -0.37143108987E+03 -0.15614482801E+03  0.20529599726E+04  0.20977079311E+04  0.15294330000E+03 0.  0.
<mgrwt>
<rscale>  0 0.66737573E+03</rscale>
<asrwt>0</asrwt>
<pdfrwt beam="1">  1        2 0.56004666E+00 0.77210910E+03</pdfrwt>
<pdfrwt beam="2">  1       -2 0.18093520E-01 0.77210910E+03</pdfrwt>
<totfact> 0.17700304E+01</totfact>
</mgrwt>
</event>
<event>
 4    1  0.7595604E-007  0.7117155E+03  0.7818608E-02  0.9951685E-01
         -2   -1    0    0    0  501 -0.00000000000E+00  0.00000000000E+00  0.39910010843E+03  0.39910010844E+03  0.25500000000E-02 0.  1.
          2   -1    0    0  501    0  0.00000000000E+00 -0.00000000000E+00 -0.13175421614E+04  0.13175421614E+04  0.25500000000E-02 0. -1.
    8880023    1    1    2    0    0  0.23303604583E+03 -0.13573100988E+03  0.36482207534E+02  0.71264988839E+03  0.65864270000E+03 0.  1.
    8880022    1    1    2    0    0 -0.23303604583E+03  0.13573100988E+03 -0.95492426053E+03  0.10039923815E+04  0.15294330000E+03 0.  0.
<mgrwt>
<rscale>  0 0.57820485E+03</rscale>
<asrwt>0</asrwt>
<pdfrwt beam="1">  1        2 0.20269879E+00 0.71171547E+03</pdfrwt>
<pdfrwt beam="2">  1       -2 0.61400018E-01 0.71171547E+03</pdfrwt>
<totfact> 0.40771867E+01</totfact>
</mgrwt>
</event>
<event>
 4    1  0.7595604E-007  0.1070641E+04  0.7818608E-02  0.9294470E-01
         -2   -1    0    0    0  501 -0.00000000000E+00  0.00000000000E+00  0.55843234041E+03  0.55843234042E+03  0.25500000000E-02 0.  1.
          2   -1    0    0  501    0  0.00000000000E+00 -0.00000000000E+00 -0.19558854334E+04  0.19558854334E+04  0.25500000000E-02 0. -1.
    8880023    1    1    2    0    0  0.40035486961E+03 -0.74308641608E+03 -0.12467398153E+04  0.16433599170E+04  0.65864270000E+03 0.  0.
    8880022    1    1    2    0    0 -0.40035486961E+03  0.74308641608E+03 -0.15071327774E+03  0.87095785689E+03  0.15294330000E+03 0.  0.
<mgrwt>
<rscale>  0 0.10129353E+04</rscale>
<asrwt>0</asrwt>
<pdfrwt beam="1">  1        2 0.30090545E+00 0.10706408E+04</pdfrwt>
<pdfrwt beam="2">  1       -2 0.85912668E-01 0.10706408E+04</pdfrwt>
<totfact> 0.82579282E+00</totfact>
</mgrwt>
</event>
<event>
 4    1  0.7595604E-007  0.1104542E+04  0.7818608E-02  0.9256016E-01
         -2   -1    0    0    0  501 -0.00000000000E+00  0.00000000000E+00  0.42993021546E+03  0.42993021547E+03  0.25500000000E-02 0.  1.
          2   -1    0    0  501    0  0.00000000000E+00 -0.00000000000E+00 -0.23542622335E+04  0.23542622335E+04  0.25500000000E-02 0. -1.
    8880023    1    1    2    0    0  0.25838916335E+03 -0.84819659141E+03 -0.93776104223E+03  0.14489335375E+04  0.65864270000E+03 0.  0.
    8880022    1    1    2    0    0 -0.25838916335E+03  0.84819659141E+03 -0.98657097576E+03  0.13352589115E+04  0.15294330000E+03 0.  0.
<mgrwt>
<rscale>  0 0.10493492E+04</rscale>
<asrwt>0</asrwt>
<pdfrwt beam="1">  1        2 0.36219418E+00 0.11045418E+04</pdfrwt>
<pdfrwt beam="2">  1       -2 0.66143111E-01 0.11045418E+04</pdfrwt>
<totfact> 0.88484414E+00</totfact>
</mgrwt>
</event>
<event>
 4    1  0.7595604E-007  0.6701850E+03  0.7818608E-02  0.1015531E+00
         -2   -1    0    0    0  501 -0.00000000000E+00  0.00000000000E+00  0.22031438830E+03  0.22031438832E+03  0.25500000000E-02 0.  1.
          2   -1    0    0  501    0  0.00000000000E+00 -0.00000000000E+00 -0.29081958229E+04  0.29081958229E+04  0.25500000000E-02 0. -1.
    8880023    1    1    2    0    0  0.17539529706E+01  0.12383300457E+03 -0.30295712110E+03  0.73548005606E+03  0.65864270000E+03 0.  1.
    8880022    1    1    2    0    0 -0.17539529706E+01 -0.12383300457E+03 -0.23849243135E+04  0.23930301552E+04  0.15294330000E+03 0.  0.
<mgrwt>
<rscale>  0 0.49334534E+03</rscale>
<asrwt>0</asrwt>
<pdfrwt beam="1">  1        2 0.44741471E+00 0.67018497E+03</pdfrwt>
<pdfrwt beam="2">  1       -2 0.33894523E-01 0.67018497E+03</pdfrwt>
<totfact> 0.17346006E+01</totfact>
</mgrwt>
</event>
<event>
 4    1  0.7595604E-007  0.7541259E+03  0.7818608E-02  0.9820559E-01
          2   -1    0    0  501    0  0.00000000000E+00  0.00000000000E+00  0.31643821448E+04  0.31643821448E+04  0.25500000000E-02 0. -1.
         -2   -1    0    0    0  501 -0.00000000000E+00 -0.00000000000E+00 -0.11583483451E+03  0.11583483454E+03  0.25500000000E-02 0.  1.
    8880023    1    1    2    0    0  0.33729390349E+03  0.14535641017E+03  0.14680939095E+04  0.16504561784E+04  0.65864270000E+03 0.  1.
    8880022    1    1    2    0    0 -0.33729390349E+03 -0.14535641017E+03  0.15804534008E+04  0.16297608010E+04  0.15294330000E+03 0.  0.
<mgrwt>
<rscale>  0 0.64270793E+03</rscale>
<asrwt>0</asrwt>
<pdfrwt beam="1">  1        2 0.48682799E+00 0.75412590E+03</pdfrwt>
<pdfrwt beam="2">  1       -2 0.17820745E-01 0.75412590E+03</pdfrwt>
<totfact> 0.37879971E+01</totfact>
</mgrwt>
</event>
<event>
 4    1  0.7595604E-007  0.7569040E+03  0.7818608E-02  0.9813190E-01
          2   -1    0    0  501    0  0.00000000000E+00  0.00000000000E+00  0.37902331860E+04  0.37902331860E+04  0.25500000000E-02 0. -1.
         -2   -1    0    0    0  501 -0.00000000000E+00 -0.00000000000E+00 -0.11589493320E+03  0.11589493323E+03  0.25500000000E-02 0.  1.
    8880023    1    1    2    0    0 -0.40760870478E+02 -0.37071825558E+03  0.13554481034E+04  0.15524636037E+04  0.65864270000E+03 0.  0.
    8880022    1    1    2    0    0  0.40760870478E+02  0.37071825558E+03  0.23188901495E+04  0.23536645156E+04  0.15294330000E+03 0.  0.
<mgrwt>
<rscale>  0 0.64659495E+03</rscale>
<asrwt>0</asrwt>
<pdfrwt beam="1">  1        2 0.58311282E+00 0.75690401E+03</pdfrwt>
<pdfrwt beam="2">  1       -2 0.17829989E-01 0.75690401E+03</pdfrwt>
<totfact> 0.14182674E+01</totfact>
</mgrwt>
</event>
<event>
 4    1  0.7595604E-007  0.9686318E+03  0.7818608E-02  0.9423799E-01
         -2   -1    0    0    0  501 -0.00000000000E+00  0.00000000000E+00  0.62240107965E+03  0.62240107966E+03  0.25500000000E-02 0.  1.
          2   -1    0    0  501    0  0.00000000000E+00 -0.00000000000E+00 -0.15421289547E+04  0.15421289547E+04  0.25500000000E-02 0. -1.
    8880023    1    1    2    0    0 -0.65443863024E+01 -0.71020734171E+03  0.29619791658E+02  0.96908453477E+03  0.65864270000E+03 0.  1.
    8880022    1    1    2    0    0  0.65443863024E+01  0.71020734171E+03 -0.94934766673E+03  0.11954454996E+04  0.15294330000E+03 0.  0.
<mgrwt>
<rscale>  0 0.90142725E+03</rscale>
<asrwt>0</asrwt>
<pdfrwt beam="1">  1        2 0.23725061E+00 0.96863177E+03</pdfrwt>
<pdfrwt beam="2">  1       -2 0.95754012E-01 0.96863177E+03</pdfrwt>
<totfact> 0.10987821E+01</totfact>
</mgrwt>
</event>
<event>
 4    1  0.7595604E-007  0.7122515E+03  0.7818608E-02  0.9949733E-01
          2   -1    0    0  501    0  0.00000000000E+00  0.00000000000E+00  0.48463072131E+03  0.48463072132E+03  0.25500000000E-02 0. -1.
         -2   -1    0    0    0  501 -0.00000000000E+00 -0.00000000000E+00 -0.57763066127E+03  0.57763066127E+03  0.25500000000E-02 0.  1.
    8880023    1    1    2    0    0  0.24480812033E+03 -0.11645163622E+03 -0.18832864718E+03  0.73672918021E+03  0.65864270000E+03 0.  0.
    8880022    1    1    2    0    0 -0.24480812033E+03  0.11645163622E+03  0.95328707218E+02  0.32553220239E+03  0.15294330000E+03 0.  0.
<mgrwt>
<rscale>  0 0.57910371E+03</rscale>
<asrwt>0</asrwt>
<pdfrwt beam="1">  1        2 0.74558572E-01 0.71225150E+03</pdfrwt>
<pdfrwt beam="2">  1       -2 0.88866256E-01 0.71225150E+03</pdfrwt>
<totfact> 0.70433233E+01</totfact>
</mgrwt>
</event>
<event>
 4    1  0.7595604E-007  0.7629915E+03  0.7818608E-02  0.9797423E-01
          2   -1    0    0  501    0  0.00000000000E+00  0.00000000000E+00  0.31820401053E+04  0.31820401053E+04  0.25500000000E-02 0. -1.
         -2   -1    0    0    0  501 -0.00000000000E+00 -0.00000000000E+00 -0.34868424590E+03  0.34868424591E+03  0.25500000000E-02 0.  1.
    8880023    1    1    2    0    0  0.58383014718E+02  0.38070623819E+03  0.10395335450E+03  0.77004046802E+03  0.65864270000E+03 0.  1.
    8880022    1    1    2    0    0 -0.58383014718E+02 -0.38070623819E+03  0.27294025049E+04  0.27606838832E+04  0.15294330000E+03 0.  0.
<mgrwt>
<rscale>  0 0.65500996E+03</rscale>
<asrwt>0</asrwt>
<pdfrwt beam="1">  1        2 0.48954462E+00 0.76299150E+03</pdfrwt>
<pdfrwt beam="2">  1       -2 0.53643731E-01 0.76299150E+03</pdfrwt>
<totfact> 0.46668322E+00</totfact>
</mgrwt>
</event>
<event>
 4    1  0.7595604E-007  0.6674890E+03  0.7818608E-02  0.1017531E+00
         -2   -1    0    0    0  501 -0.00000000000E+00  0.00000000000E+00  0.13200397614E+03  0.13200397616E+03  0.25500000000E-02 0.  1.
          2   -1    0    0  501    0  0.00000000000E+00 -0.00000000000E+00 -0.14541825784E+04  0.14541825784E+04  0.25500000000E-02 0. -1.
    8880023    1    1    2    0    0  0.85871144411E+02 -0.66010913210E+02 -0.86885372130E+03  0.10956497111E+04  0.65864270000E+03 0. -1.
    8880022    1    1    2    0    0 -0.85871144411E+02  0.66010913210E+02 -0.45332488093E+03  0.49053684346E+03  0.15294330000E+03 0.  0.
<mgrwt>
<rscale>  0 0.48588325E+03</rscale>
<asrwt>0</asrwt>
<pdfrwt beam="1">  1        2 0.22372039E+00 0.66748895E+03</pdfrwt>
<pdfrwt beam="2">  1       -2 0.20308305E-01 0.66748895E+03</pdfrwt>
<totfact> 0.28516251E+02</totfact>
</mgrwt>
</event>
<event>
 4    1  0.7595604E-007  0.7710920E+03  0.7818608E-02  0.9777194E-01
         -2   -1    0    0    0  501 -0.00000000000E+00  0.00000000000E+00  0.52109489213E+03  0.52109489213E+03  0.25500000000E-02 0.  1.
          2   -1    0    0  501    0  0.00000000000E+00 -0.00000000000E+00 -0.16553758256E+04  0.16553758256E+04  0.25500000000E-02 0. -1.
    8880023    1    1    2    0    0  0.36026878312E+03 -0.17600871285E+03  0.18176296775E+03  0.79222512318E+03  0.65864270000E+03 0.  1.
    8880022    1    1    2    0    0 -0.36026878312E+03  0.17600871285E+03 -0.13160439012E+04  0.13842455946E+04  0.15294330000E+03 0.  0.
<mgrwt>
<rscale>  0 0.66600936E+03</rscale>
<asrwt>0</asrwt>
<pdfrwt beam="1">  1        2 0.25467320E+00 0.77109200E+03</pdfrwt>
<pdfrwt beam="2">  1       -2 0.80168446E-01 0.77109200E+03</pdfrwt>
<totfact> 0.14636699E+01</totfact>
</mgrwt>
</event>
<event>
 4    1  0.7595604E-007  0.1283189E+04  0.7818608E-02  0.9080215E-01
          2   -1    0    0  501    0  0.00000000000E+00  0.00000000000E+00  0.16454792651E+04  0.16454792651E+04  0.25500000000E-02 0. -1.
         -2   -1    0    0    0  501 -0.00000000000E+00 -0.00000000000E+00 -0.93134410037E+03  0.93134410037E+03  0.25500000000E-02 0.  1.
    8880023    1    1    2    0    0 -0.60164478124E+03 -0.92238151934E+03  0.70680540187E+03  0.14649737856E+04  0.65864270000E+03 0.  0.
    8880022    1    1    2    0    0  0.60164478124E+03  0.92238151934E+03  0.73297628960E+01  0.11118495800E+04  0.15294330000E+03 0.  0.
<mgrwt>
<rscale>  0 0.12380185E+04</rscale>
<asrwt>0</asrwt>
<pdfrwt beam="1">  1        2 0.25315065E+00 0.12831891E+04</pdfrwt>
<pdfrwt beam="2">  1       -2 0.14328371E+00 0.12831891E+04</pdfrwt>
<totfact> 0.34309299E+00</totfact>
</mgrwt>
</event>
<event>
 4    1  0.7595604E-007  0.1030220E+04  0.7818608E-02  0.9343047E-01
          2   -1    0    0  501    0  0.00000000000E+00  0.00000000000E+00  0.19470644582E+04  0.19470644582E+04  0.25500000000E-02 0. -1.
         -2   -1    0    0    0  501 -0.00000000000E+00 -0.00000000000E+00 -0.61454373868E+03  0.61454373869E+03  0.25500000000E-02 0.  1.
    8880023    1    1    2    0    0  0.31953682157E+03  0.72487170532E+03  0.31465514503E+02  0.10307002738E+04  0.65864270000E+03 0.  1.
    8880022    1    1    2    0    0 -0.31953682157E+03 -0.72487170532E+03  0.13010552050E+04  0.15309079231E+04  0.15294330000E+03 0.  0.
<mgrwt>
<rscale>  0 0.96914687E+03</rscale>
<asrwt>0</asrwt>
<pdfrwt beam="1">  1        2 0.29954838E+00 0.10302199E+04</pdfrwt>
<pdfrwt beam="2">  1       -2 0.94545190E-01 0.10302199E+04</pdfrwt>
<totfact> 0.67172459E+00</totfact>
</mgrwt>
</event>
<event>
 4    1  0.7595604E-007  0.8120315E+03  0.7818608E-02  0.9685361E-01
         -2   -1    0    0    0  501 -0.00000000000E+00  0.00000000000E+00  0.17729512823E+04  0.17729512823E+04  0.25500000000E-02 0.  1.
          2   -1    0    0  501    0  0.00000000000E+00 -0.00000000000E+00 -0.90660174428E+03  0.90660174429E+03  0.25500000000E-02 0. -1.
    8880023    1    1    2    0    0  0.18556815856E+03 -0.43720643875E+03  0.15988545339E+04  0.17932459503E+04  0.65864270000E+03 0.  1.
    8880022    1    1    2    0    0 -0.18556815856E+03  0.43720643875E+03 -0.73250499584E+03  0.88630707630E+03  0.15294330000E+03 0.  0.
<mgrwt>
<rscale>  0 0.71895135E+03</rscale>
<asrwt>0</asrwt>
<pdfrwt beam="1">  1        2 0.13947719E+00 0.81203154E+03</pdfrwt>
<pdfrwt beam="2">  1       -2 0.27276173E+00 0.81203154E+03</pdfrwt>
<totfact> 0.13903141E+00</totfact>
</mgrwt>
</event>
<event>
 4    1  0.8411670E-007  0.1114136E+04  0.7818608E-02  0.9245478E-01
          2   -1    0    0  501    0  0.00000000000E+00  0.00000000000E+00  0.24251741208E+04  0.24251741208E+04  0.25500000000E-02 0. -1.
         -2   -1    0    0    0  501 -0.00000000000E+00 -0.00000000000E+00 -0.11661618044E+04  0.11661618044E+04  0.25500000000E-02 0.  1.
    8880023    1    1    2    0    0  0.31255335219E+03  0.84249598713E+03 -0.77852973901E+03  0.13591938225E+04  0.65864270000E+03 0.  1.
    8880022    1    1    2    0    0 -0.31255335219E+03 -0.84249598713E+03  0.20375420554E+04  0.22321421027E+04  0.15294330000E+03 0.  0.
<mgrwt>
<rscale>  0 0.10596099E+04</rscale>
<asrwt>0</asrwt>
<pdfrwt beam="1">  1        2 0.37310371E+00 0.11141361E+04</pdfrwt>
<pdfrwt beam="2">  1       -2 0.17940951E+00 0.11141361E+04</pdfrwt>
<totfact> 0.69473590E-01</totfact>
</mgrwt>
</event>
<event>
 4    1  0.7595604E-007  0.6854387E+03  0.7818608E-02  0.1006401E+00
         -2   -1    0    0    0  501 -0.00000000000E+00  0.00000000000E+00  0.20773613389E+04  0.20773613389E+04  0.25500000000E-02 0.  1.
          2   -1    0    0  501    0  0.00000000000E+00 -0.00000000000E+00 -0.51678111764E+03  0.51678111764E+03  0.25500000000E-02 0. -1.
    8880023    1    1    2    0    0  0.17494969501E+03 -0.73543455572E+02  0.19875934111E+04  0.21024637475E+04  0.65864270000E+03 0.  1.
    8880022    1    1    2    0    0 -0.17494969501E+03  0.73543455572E+02 -0.42701318980E+03  0.49167870904E+03  0.15294330000E+03 0.  0.
<mgrwt>
<rscale>  0 0.52930599E+03</rscale>
<asrwt>0</asrwt>
<pdfrwt beam="1">  1        2 0.79504787E-01 0.68543872E+03</pdfrwt>
<pdfrwt beam="2">  1       -2 0.31959405E+00 0.68543872E+03</pdfrwt>
<totfact> 0.15104727E+00</totfact>
</mgrwt>
</event>
<event>
 4    1  0.7595604E-007  0.7043407E+03  0.7818608E-02  0.9979649E-01
         -2   -1    0    0    0  501 -0.00000000000E+00  0.00000000000E+00  0.23056213024E+03  0.23056213026E+03  0.25500000000E-02 0.  1.
          2   -1    0    0  501    0  0.00000000000E+00 -0.00000000000E+00 -0.30245244473E+04  0.30245244473E+04  0.25500000000E-02 0. -1.
    8880023    1    1    2    0    0  0.23730783036E+03  0.77270150931E+02 -0.33710749194E+03  0.78085680503E+03  0.65864270000E+03 0.  1.
    8880022    1    1    2    0    0 -0.23730783036E+03 -0.77270150931E+02 -0.24568548251E+04  0.24742297725E+04  0.15294330000E+03 0.  0.
<mgrwt>
<rscale>  0 0.56551660E+03</rscale>
<asrwt>0</asrwt>
<pdfrwt beam="1">  1        2 0.46531142E+00 0.70434075E+03</pdfrwt>
<pdfrwt beam="2">  1       -2 0.35471099E-01 0.70434075E+03</pdfrwt>
<totfact> 0.13438646E+01</totfact>
</mgrwt>
</event>
<event>
 4    1  0.7595604E-007  0.7171533E+03  0.7818608E-02  0.9932339E-01
          2   -1    0    0  501    0  0.00000000000E+00  0.00000000000E+00  0.25684774232E+04  0.25684774232E+04  0.25500000000E-02 0. -1.
         -2   -1    0    0    0  501 -0.00000000000E+00 -0.00000000000E+00 -0.12090096961E+03  0.12090096964E+03  0.25500000000E-02 0.  1.
    8880023    1    1    2    0    0  0.27500369087E+03 -0.69796748259E+02  0.11745549240E+04  0.13761860673E+04  0.65864270000E+03 0.  0.
    8880022    1    1    2    0    0 -0.27500369087E+03  0.69796748259E+02  0.12730215295E+04  0.13131923255E+04  0.15294330000E+03 0.  0.
<mgrwt>
<rscale>  0 0.58719297E+03</rscale>
<asrwt>0</asrwt>
<pdfrwt beam="1">  1        2 0.39515035E+00 0.71715328E+03</pdfrwt>
<pdfrwt beam="2">  1       -2 0.18600150E-01 0.71715328E+03</pdfrwt>
<totfact> 0.80398483E+01</totfact>
</mgrwt>
</event>
<event>
 4    1  0.7595604E-007  0.8006652E+03  0.7818608E-02  0.9709360E-01
          2   -1    0    0  501    0  0.00000000000E+00  0.00000000000E+00  0.34988710625E+04  0.34988710625E+04  0.25500000000E-02 0. -1.
         -2   -1    0    0    0  501 -0.00000000000E+00 -0.00000000000E+00 -0.14416379152E+03  0.14416379154E+03  0.25500000000E-02 0.  1.
    8880023    1    1    2    0    0  0.43377521881E+03 -0.13817960088E+03  0.12515900792E+04  0.14857800898E+04  0.65864270000E+03 0.  0.
    8880022    1    1    2    0    0 -0.43377521881E+03  0.13817960088E+03  0.21031171918E+04  0.21572547643E+04  0.15294330000E+03 0.  0.
<mgrwt>
<rscale>  0 0.70462249E+03</rscale>
<asrwt>0</asrwt>
<pdfrwt beam="1">  1        2 0.53828787E+00 0.80066519E+03</pdfrwt>
<pdfrwt beam="2">  1       -2 0.22179044E-01 0.80066519E+03</pdfrwt>
<totfact> 0.15462654E+01</totfact>
</mgrwt>
</event>
<event>
 4    1  0.7595604E-007  0.7241126E+03  0.7818608E-02  0.9908908E-01
         -2   -1    0    0    0  501 -0.00000000000E+00  0.00000000000E+00  0.10658467122E+03  0.10658467125E+03  0.25500000000E-02 0.  1.
          2   -1    0    0  501    0  0.00000000000E+00 -0.00000000000E+00 -0.30564974753E+04  0.30564974753E+04  0.25500000000E-02 0. -1.
    8880023    1    1    2    0    0 -0.25570548887E+03 -0.15856700373E+03 -0.13925592866E+04  0.15695733066E+04  0.65864270000E+03 0.  0.
    8880022    1    1    2    0    0  0.25570548887E+03  0.15856700373E+03 -0.15573535175E+04  0.15935088400E+04  0.15294330000E+03 0.  0.
<mgrwt>
<rscale>  0 0.59831483E+03</rscale>
<asrwt>0</asrwt>
<pdfrwt beam="1">  1        2 0.47023031E+00 0.72411256E+03</pdfrwt>
<pdfrwt beam="2">  1       -2 0.16397644E-01 0.72411256E+03</pdfrwt>
<totfact> 0.51260839E+01</totfact>
</mgrwt>
</event>
<event>
 4    1  0.7595604E-007  0.7294262E+03  0.7818608E-02  0.9891893E-01
         -2   -1    0    0    0  501 -0.00000000000E+00  0.00000000000E+00  0.69017214790E+03  0.69017214791E+03  0.25500000000E-02 0.  1.
          2   -1    0    0  501    0  0.00000000000E+00 -0.00000000000E+00 -0.42522106143E+03  0.42522106143E+03  0.25500000000E-02 0. -1.
    8880023    1    1    2    0    0  0.26253505760E+03  0.17125333697E+03  0.12737017234E+03  0.74046318542E+03  0.65864270000E+03 0. -1.
    8880022    1    1    2    0    0 -0.26253505760E+03 -0.17125333697E+03  0.13758091414E+03  0.37493002393E+03  0.15294330000E+03 0.  1.
<mgrwt>
<rscale>  0 0.60655803E+03</rscale>
<asrwt>0</asrwt>
<pdfrwt beam="1">  1        2 0.65418625E-01 0.72942619E+03</pdfrwt>
<pdfrwt beam="2">  1       -2 0.10618033E+00 0.72942619E+03</pdfrwt>
<totfact> 0.53759156E+01</totfact>
</mgrwt>
</event>
<event>
 4    1  0.7595604E-007  0.8185579E+03  0.7818608E-02  0.9672019E-01
         -2   -1    0    0    0  501 -0.00000000000E+00  0.00000000000E+00  0.93806243917E+03  0.93806243917E+03  0.25500000000E-02 0.  1.
          2   -1    0    0  501    0  0.00000000000E+00 -0.00000000000E+00 -0.10278224323E+04  0.10278224323E+04  0.25500000000E-02 0. -1.
    8880023    1    1    2    0    0 -0.22163368414E+03  0.43255683412E+03  0.66540951626E+03  0.10548966467E+04  0.65864270000E+03 0.  1.
    8880022    1    1    2    0    0  0.22163368414E+03 -0.43255683412E+03 -0.75516950942E+03  0.91098822476E+03  0.15294330000E+03 0.  0.
<mgrwt>
<rscale>  0 0.72707471E+03</rscale>
<asrwt>0</asrwt>
<pdfrwt beam="1">  1        2 0.15812653E+00 0.81855795E+03</pdfrwt>
<pdfrwt beam="2">  1       -2 0.14431730E+00 0.81855795E+03</pdfrwt>
<totfact> 0.81022541E+00</totfact>
</mgrwt>
</event>
<event>
 4    1  0.7595604E-007  0.8428188E+03  0.7818608E-02  0.9624888E-01
          2   -1    0    0  501    0  0.00000000000E+00  0.00000000000E+00  0.39618692719E+03  0.39618692720E+03  0.25500000000E-02 0. -1.
         -2   -1    0    0    0  501 -0.00000000000E+00 -0.00000000000E+00 -0.14011795579E+04  0.14011795579E+04  0.25500000000E-02 0.  1.
    8880023    1    1    2    0    0  0.51272825834E+02  0.52335885006E+03 -0.27863086517E+03  0.88768167374E+03  0.65864270000E+03 0. -1.
    8880022    1    1    2    0    0 -0.51272825834E+02 -0.52335885006E+03 -0.72636176557E+03  0.90968481140E+03  0.15294330000E+03 0.  1.
<mgrwt>
<rscale>  0 0.75670616E+03</rscale>
<asrwt>0</asrwt>
<pdfrwt beam="1">  1        2 0.60951836E-01 0.84281884E+03</pdfrwt>
<pdfrwt beam="2">  1       -2 0.21556608E+00 0.84281884E+03</pdfrwt>
<totfact> 0.85762544E+00</totfact>
</mgrwt>
</event>
<event>
 4    1  0.7595604E-007  0.1079857E+04  0.7818608E-02  0.9283821E-01
          2   -1    0    0  501    0  0.00000000000E+00  0.00000000000E+00  0.23679199382E+04  0.23679199382E+04  0.25500000000E-02 0. -1.
         -2   -1    0    0    0  501 -0.00000000000E+00 -0.00000000000E+00 -0.40487683236E+03  0.40487683237E+03  0.25500000000E-02 0.  1.
    8880023    1    1    2    0    0  0.41101192359E+03 -0.75056678658E+03  0.95362927249E+03  0.14406596746E+04  0.65864270000E+03 0. -1.
    8880022    1    1    2    0    0 -0.41101192359E+03  0.75056678658E+03  0.10094138333E+04  0.13321370959E+04  0.15294330000E+03 0.  0.
<mgrwt>
<rscale>  0 0.10228607E+04</rscale>
<asrwt>0</asrwt>
<pdfrwt beam="1">  1        2 0.36429538E+00 0.10798572E+04</pdfrwt>
<pdfrwt beam="2">  1       -2 0.62288743E-01 0.10798572E+04</pdfrwt>
<totfact> 0.99191713E+00</totfact>
</mgrwt>
</event>
<event>
 4    1  0.7595604E-007  0.7540866E+03  0.7818608E-02  0.9820664E-01
          2   -1    0    0  501    0  0.00000000000E+00  0.00000000000E+00  0.95636768684E+03  0.95636768684E+03  0.25500000000E-02 0. -1.
         -2   -1    0    0    0  501 -0.00000000000E+00 -0.00000000000E+00 -0.40323635101E+03  0.40323635101E+03  0.25500000000E-02 0.  1.
    8880023    1    1    2    0    0 -0.26245541165E+03 -0.25681433873E+03  0.59371166540E+03  0.95976048865E+03  0.65864270000E+03 0.  0.
    8880022    1    1    2    0    0  0.26245541165E+03  0.25681433873E+03 -0.40580329567E+02  0.39984354921E+03  0.15294330000E+03 0.  0.
<mgrwt>
<rscale>  0 0.64265277E+03</rscale>
<asrwt>0</asrwt>
<pdfrwt beam="1">  1        2 0.14713349E+00 0.75408664E+03</pdfrwt>
<pdfrwt beam="2">  1       -2 0.62036362E-01 0.75408664E+03</pdfrwt>
<totfact> 0.65793346E+01</totfact>
</mgrwt>
</event>
<event>
 4    1  0.7595604E-007  0.8443123E+03  0.7818608E-02  0.9622102E-01
          2   -1    0    0  501    0  0.00000000000E+00  0.00000000000E+00  0.83632956423E+03  0.83632956424E+03  0.25500000000E-02 0. -1.
         -2   -1    0    0    0  501 -0.00000000000E+00 -0.00000000000E+00 -0.83154814472E+03  0.83154814472E+03  0.25500000000E-02 0.  1.
    8880023    1    1    2    0    0  0.49462313852E+03  0.18547488742E+03 -0.44773861837E+03  0.95568460261E+03  0.65864270000E+03 0.  1.
    8880022    1    1    2    0    0 -0.49462313852E+03 -0.18547488742E+03  0.45252003789E+03  0.71219310635E+03  0.15294330000E+03 0.  0.
<mgrwt>
<rscale>  0 0.75850432E+03</rscale>
<asrwt>0</asrwt>
<pdfrwt beam="1">  1        2 0.12866609E+00 0.84431226E+03</pdfrwt>
<pdfrwt beam="2">  1       -2 0.12793048E+00 0.84431226E+03</pdfrwt>
<totfact> 0.14762875E+01</totfact>
</mgrwt>
</event>
<event>
 4    1  0.7595604E-007  0.1056241E+04  0.7818608E-02  0.9311416E-01
         -2   -1    0    0    0  501 -0.00000000000E+00  0.00000000000E+00  0.41364981241E+04  0.41364981241E+04  0.25500000000E-02 0.  1.
          2   -1    0    0  501    0  0.00000000000E+00 -0.00000000000E+00 -0.10847504155E+04  0.10847504155E+04  0.25500000000E-02 0. -1.
    8880023    1    1    2    0    0  0.79660835156E+03  0.21737075284E+03 -0.77077284269E+03  0.13075686947E+04  0.65864270000E+03 0. -1.
    8880022    1    1    2    0    0 -0.79660835156E+03 -0.21737075284E+03  0.38225205514E+04  0.39136798449E+04  0.15294330000E+03 0.  0.
<mgrwt>
<rscale>  0 0.99738621E+03</rscale>
<asrwt>0</asrwt>
<pdfrwt beam="1">  1        2 0.16688468E+00 0.10562410E+04</pdfrwt>
<pdfrwt beam="2">  1       -2 0.63638433E+00 0.10562410E+04</pdfrwt>
<totfact> 0.80957514E-03</totfact>
</mgrwt>
</event>
<event>
 4    1  0.7595604E-007  0.1145898E+04  0.7818608E-02  0.9211596E-01
         -2   -1    0    0    0  501 -0.00000000000E+00  0.00000000000E+00  0.37321972986E+03  0.37321972987E+03  0.25500000000E-02 0.  1.
          2   -1    0    0  501    0  0.00000000000E+00 -0.00000000000E+00 -0.37444969603E+04  0.37444969603E+04  0.25500000000E-02 0. -1.
    8880023    1    1    2    0    0 -0.93552190661E+03  0.63809588622E+02 -0.85998005477E+03  0.14327068096E+04  0.65864270000E+03 0.  0.
    8880022    1    1    2    0    0  0.93552190661E+03 -0.63809588622E+02 -0.25112971757E+04  0.26850098806E+04  0.15294330000E+03 0.  0.
<mgrwt>
<rscale>  0 0.10934537E+04</rscale>
<asrwt>0</asrwt>
<pdfrwt beam="1">  1        2 0.57607643E+00 0.11458984E+04</pdfrwt>
<pdfrwt beam="2">  1       -2 0.57418423E-01 0.11458984E+04</pdfrwt>
<totfact> 0.15690576E+00</totfact>
</mgrwt>
</event>
<event>
 4    1  0.7595604E-007  0.6731353E+03  0.7818608E-02  0.1013508E+00
         -2   -1    0    0    0  501 -0.00000000000E+00  0.00000000000E+00  0.58673078336E+03  0.58673078337E+03  0.25500000000E-02 0.  1.
          2   -1    0    0  501    0  0.00000000000E+00 -0.00000000000E+00 -0.34324566839E+03  0.34324566840E+03  0.25500000000E-02 0. -1.
    8880023    1    1    2    0    0  0.52316588335E+02 -0.12870058926E+03  0.26244283748E+03  0.72248689697E+03  0.65864270000E+03 0.  0.
    8880022    1    1    2    0    0 -0.52316588335E+02  0.12870058926E+03 -0.18957722509E+02  0.20748955480E+03  0.15294330000E+03 0.  1.
<mgrwt>
<rscale>  0 0.50103807E+03</rscale>
<asrwt>0</asrwt>
<pdfrwt beam="1">  1        2 0.52807026E-01 0.67313526E+03</pdfrwt>
<pdfrwt beam="2">  1       -2 0.90266273E-01 0.67313526E+03</pdfrwt>
<totfact> 0.10051222E+02</totfact>
</mgrwt>
</event>
<event>
 4    1  0.7595604E-007  0.7905160E+03  0.7818608E-02  0.9731690E-01
          2   -1    0    0  501    0  0.00000000000E+00  0.00000000000E+00  0.53536134528E+03  0.53536134529E+03  0.25500000000E-02 0. -1.
         -2   -1    0    0    0  501 -0.00000000000E+00 -0.00000000000E+00 -0.75945187254E+03  0.75945187255E+03  0.25500000000E-02 0.  1.
    8880023    1    1    2    0    0 -0.34541596380E+03 -0.26794247212E+03 -0.25504843938E+03  0.83064148049E+03  0.65864270000E+03 0.  0.
    8880022    1    1    2    0    0  0.34541596380E+03  0.26794247212E+03  0.30957912121E+02  0.46417173735E+03  0.15294330000E+03 0.  0.
<mgrwt>
<rscale>  0 0.69160903E+03</rscale>
<asrwt>0</asrwt>
<pdfrwt beam="1">  1        2 0.82363283E-01 0.79051601E+03</pdfrwt>
<pdfrwt beam="2">  1       -2 0.11683875E+00 0.79051601E+03</pdfrwt>
<totfact> 0.32536888E+01</totfact>
</mgrwt>
</event>
<event>
 4    1  0.7595604E-007  0.9290801E+03  0.7818608E-02  0.9480875E-01
          2   -1    0    0  501    0  0.00000000000E+00  0.00000000000E+00  0.16142417350E+04  0.16142417350E+04  0.25500000000E-02 0. -1.
         -2   -1    0    0    0  501 -0.00000000000E+00 -0.00000000000E+00 -0.44508686197E+03  0.44508686198E+03  0.25500000000E-02 0.  1.
    8880023    1    1    2    0    0 -0.14428135975E+03  0.63918894185E+03  0.33505279917E+03  0.98764882354E+03  0.65864270000E+03 0. -1.
    8880022    1    1    2    0    0  0.14428135975E+03 -0.63918894185E+03  0.83410207382E+03  0.10716797734E+04  0.15294330000E+03 0.  0.
<mgrwt>
<rscale>  0 0.85708664E+03</rscale>
<asrwt>0</asrwt>
<pdfrwt beam="1">  1        2 0.24834488E+00 0.92908009E+03</pdfrwt>
<pdfrwt beam="2">  1       -2 0.68474903E-01 0.92908009E+03</pdfrwt>
<totfact> 0.21477582E+01</totfact>
</mgrwt>
</event>
<event>
 4    1  0.7595604E-007  0.7009811E+03  0.7818608E-02  0.9993155E-01
          2   -1    0    0  501    0  0.00000000000E+00  0.00000000000E+00  0.99558693084E+03  0.99558693084E+03  0.25500000000E-02 0. -1.
         -2   -1    0    0    0  501 -0.00000000000E+00 -0.00000000000E+00 -0.24588777676E+03  0.24588777678E+03  0.25500000000E-02 0.  1.
    8880023    1    1    2    0    0  0.16546770040E+03  0.17373768389E+03  0.58280308699E+03  0.91161065546E+03  0.65864270000E+03 0.  0.
    8880022    1    1    2    0    0 -0.16546770040E+03 -0.17373768389E+03  0.16689606709E+03  0.32986405216E+03  0.15294330000E+03 0.  0.
<mgrwt>
<rscale>  0 0.55951389E+03</rscale>
<asrwt>0</asrwt>
<pdfrwt beam="1">  1        2 0.15316722E+00 0.70098113E+03</pdfrwt>
<pdfrwt beam="2">  1       -2 0.37828889E-01 0.70098113E+03</pdfrwt>
<totfact> 0.16956842E+02</totfact>
</mgrwt>
</event>
<event>
 4    1  0.7595604E-007  0.7340963E+03  0.7818608E-02  0.9877490E-01
          2   -1    0    0  501    0  0.00000000000E+00  0.00000000000E+00  0.29935550710E+04  0.29935550710E+04  0.25500000000E-02 0. -1.
         -2   -1    0    0    0  501 -0.00000000000E+00 -0.00000000000E+00 -0.14632548343E+03  0.14632548345E+03  0.25500000000E-02 0.  1.
    8880023    1    1    2    0    0  0.13427438819E+03  0.29505516293E+03  0.90716320381E+03  0.11669800534E+04  0.65864270000E+03 0.  1.
    8880022    1    1    2    0    0 -0.13427438819E+03 -0.29505516293E+03  0.19400663838E+04  0.19729005010E+04  0.15294330000E+03 0.  0.
<mgrwt>
<rscale>  0 0.61364714E+03</rscale>
<asrwt>0</asrwt>
<pdfrwt beam="1">  1        2 0.46054693E+00 0.73409629E+03</pdfrwt>
<pdfrwt beam="2">  1       -2 0.22511613E-01 0.73409629E+03</pdfrwt>
<totfact> 0.32224980E+01</totfact>
</mgrwt>
</event>
<event>
 4    1  0.7595604E-007  0.7248116E+03  0.7818608E-02  0.9906629E-01
          2   -1    0    0  501    0  0.00000000000E+00  0.00000000000E+00  0.55446594194E+03  0.55446594195E+03  0.25500000000E-02 0. -1.
         -2   -1    0    0    0  501 -0.00000000000E+00 -0.00000000000E+00 -0.55392530278E+03  0.55392530279E+03  0.25500000000E-02 0.  1.
    8880023    1    1    2    0    0  0.28936213778E+03  0.88381010635E+02 -0.14547333189E+03  0.73926608632E+03  0.65864270000E+03 0.  1.
    8880022    1    1    2    0    0 -0.28936213778E+03 -0.88381010635E+02  0.14601397105E+03  0.36912515842E+03  0.15294330000E+03 0.  0.
<mgrwt>
<rscale>  0 0.59941083E+03</rscale>
<asrwt>0</asrwt>
<pdfrwt beam="1">  1        2 0.85302453E-01 0.72481160E+03</pdfrwt>
<pdfrwt beam="2">  1       -2 0.85219277E-01 0.72481160E+03</pdfrwt>
<totfact> 0.66188473E+01</totfact>
</mgrwt>
</event>
<event>
 4    1  0.7595604E-007  0.7972096E+03  0.7818608E-02  0.9716862E-01
         -2   -1    0    0    0  501 -0.00000000000E+00  0.00000000000E+00  0.73464500276E+03  0.73464500276E+03  0.25500000000E-02 0.  1.
          2   -1    0    0  501    0  0.00000000000E+00 -0.00000000000E+00 -0.13125104867E+04  0.13125104867E+04  0.25500000000E-02 0. -1.
    8880023    1    1    2    0    0  0.27441405178E+03  0.35556967368E+03  0.44972609625E+03  0.91531231422E+03  0.65864270000E+03 0.  0.
    8880022    1    1    2    0    0 -0.27441405178E+03 -0.35556967368E+03 -0.10275915802E+04  0.11318431752E+04  0.15294330000E+03 0. -1.
<mgrwt>
<rscale>  0 0.70021631E+03</rscale>
<asrwt>0</asrwt>
<pdfrwt beam="1">  1        2 0.20192469E+00 0.79720955E+03</pdfrwt>
<pdfrwt beam="2">  1       -2 0.11302231E+00 0.79720955E+03</pdfrwt>
<totfact> 0.10154326E+01</totfact>
</mgrwt>
</event>
<event>
 4    1  0.7595604E-007  0.1009698E+04  0.7818608E-02  0.9368979E-01
          2   -1    0    0  501    0  0.00000000000E+00  0.00000000000E+00  0.97307899359E+03  0.97307899360E+03  0.25500000000E-02 0. -1.
         -2   -1    0    0    0  501 -0.00000000000E+00 -0.00000000000E+00 -0.13364240294E+04  0.13364240294E+04  0.25500000000E-02 0.  1.
    8880023    1    1    2    0    0 -0.46829831177E+03 -0.60528975008E+03 -0.90790940938E+03  0.13578618090E+04  0.65864270000E+03 0.  1.
    8880022    1    1    2    0    0  0.46829831177E+03  0.60528975008E+03  0.54456437354E+03  0.95164121406E+03  0.15294330000E+03 0.  0.
<mgrwt>
<rscale>  0 0.94673175E+03</rscale>
<asrwt>0</asrwt>
<pdfrwt beam="1">  1        2 0.14970446E+00 0.10096976E+04</pdfrwt>
<pdfrwt beam="2">  1       -2 0.20560370E+00 0.10096976E+04</pdfrwt>
<totfact> 0.31782903E+00</totfact>
</mgrwt>
</event>
<event>
 4    1  0.7595604E-007  0.6750960E+03  0.7818608E-02  0.1012246E+00
         -2   -1    0    0    0  501 -0.00000000000E+00  0.00000000000E+00  0.43872240694E+03  0.43872240695E+03  0.25500000000E-02 0.  1.
          2   -1    0    0  501    0  0.00000000000E+00 -0.00000000000E+00 -0.17345001233E+04  0.17345001233E+04  0.25500000000E-02 0. -1.
    8880023    1    1    2    0    0  0.16175412615E+02  0.14725047427E+03  0.16666216179E+03  0.69536381023E+03  0.65864270000E+03 0.  1.
    8880022    1    1    2    0    0 -0.16175412615E+02 -0.14725047427E+03 -0.14624398782E+04  0.14778587201E+04  0.15294330000E+03 0.  0.
<mgrwt>
<rscale>  0 0.50591730E+03</rscale>
<asrwt>0</asrwt>
<pdfrwt beam="1">  1        2 0.26684617E+00 0.67509596E+03</pdfrwt>
<pdfrwt beam="2">  1       -2 0.67495756E-01 0.67509596E+03</pdfrwt>
<totfact> 0.19622257E+01</totfact>
</mgrwt>
</event>
<event>
 4    1  0.7595604E-007  0.6869673E+03  0.7818608E-02  0.1005629E+00
          2   -1    0    0  501    0  0.00000000000E+00  0.00000000000E+00  0.98250843674E+03  0.98250843675E+03  0.25500000000E-02 0. -1.
         -2   -1    0    0    0  501 -0.00000000000E+00 -0.00000000000E+00 -0.94192119237E+03  0.94192119237E+03  0.25500000000E-02 0.  1.
    8880023    1    1    2    0    0  0.28410413880E+02 -0.19314932024E+03 -0.79623893074E+03  0.10516275256E+04  0.65864270000E+03 0.  1.
    8880022    1    1    2    0    0 -0.28410413880E+02  0.19314932024E+03  0.83682617511E+03  0.87280210351E+03  0.15294330000E+03 0.  0.
<mgrwt>
<rscale>  0 0.53249587E+03</rscale>
<asrwt>0</asrwt>
<pdfrwt beam="1">  1        2 0.15115514E+00 0.68696726E+03</pdfrwt>
<pdfrwt beam="2">  1       -2 0.14491095E+00 0.68696726E+03</pdfrwt>
<totfact> 0.87067374E+00</totfact>
</mgrwt>
</event>
<event>
 4    1  0.7595604E-007  0.9873304E+03  0.7818608E-02  0.9398324E-01
         -2   -1    0    0    0  501 -0.00000000000E+00  0.00000000000E+00  0.80258294420E+03  0.80258294420E+03  0.25500000000E-02 0.  1.
          2   -1    0    0  501    0  0.00000000000E+00 -0.00000000000E+00 -0.20347754715E+04  0.20347754715E+04  0.25500000000E-02 0. -1.
    8880023    1    1    2    0    0  0.66899502238E+03  0.30570714607E+03  0.38061912033E+03  0.10581551494E+04  0.65864270000E+03 0.  1.
    8880022    1    1    2    0    0 -0.66899502238E+03 -0.30570714607E+03 -0.16128116476E+04  0.17792032663E+04  0.15294330000E+03 0.  0.
<mgrwt>
<rscale>  0 0.92213721E+03</rscale>
<asrwt>0</asrwt>
<pdfrwt beam="1">  1        2 0.31304238E+00 0.98733044E+03</pdfrwt>
<pdfrwt beam="2">  1       -2 0.12347430E+00 0.98733044E+03</pdfrwt>
<totfact> 0.31626484E+00</totfact>
</mgrwt>
</event>
<event>
 4    1  0.7595604E-007  0.7483409E+03  0.7818608E-02  0.9836284E-01
          2   -1    0    0  501    0  0.00000000000E+00  0.00000000000E+00  0.86754495787E+03  0.86754495788E+03  0.25500000000E-02 0. -1.
         -2   -1    0    0    0  501 -0.00000000000E+00 -0.00000000000E+00 -0.82950366637E+03  0.82950366638E+03  0.25500000000E-02 0.  1.
    8880023    1    1    2    0    0  0.31800964716E+03 -0.15834699422E+03 -0.59442238188E+03  0.95569455403E+03  0.65864270000E+03 0.  1.
    8880022    1    1    2    0    0 -0.31800964716E+03  0.15834699422E+03  0.63246367338E+03  0.74135407022E+03  0.15294330000E+03 0.  0.
<mgrwt>
<rscale>  0 0.63451143E+03</rscale>
<asrwt>0</asrwt>
<pdfrwt beam="1">  1        2 0.13346845E+00 0.74834091E+03</pdfrwt>
<pdfrwt beam="2">  1       -2 0.12761595E+00 0.74834091E+03</pdfrwt>
<totfact> 0.14267308E+01</totfact>
</mgrwt>
</event>
<event>
 4    1  0.7595604E-007  0.7137161E+03  0.7818608E-02  0.9944452E-01
         -2   -1    0    0    0  501 -0.00000000000E+00  0.00000000000E+00  0.73669386123E+03  0.73669386124E+03  0.25500000000E-02 0.  1.
          2   -1    0    0  501    0  0.00000000000E+00 -0.00000000000E+00 -0.50943212472E+03  0.50943212472E+03  0.25500000000E-02 0. -1.
    8880023    1    1    2    0    0 -0.24729146533E+03  0.12011401863E+03  0.46497476608E+03  0.85181699071E+03  0.65864270000E+03 0.  1.
    8880022    1    1    2    0    0  0.24729146533E+03 -0.12011401863E+03 -0.23771302956E+03  0.39430899526E+03  0.15294330000E+03 0.  0.
<mgrwt>
<rscale>  0 0.58154485E+03</rscale>
<asrwt>0</asrwt>
<pdfrwt beam="1">  1        2 0.78374173E-01 0.71371609E+03</pdfrwt>
<pdfrwt beam="2">  1       -2 0.11333752E+00 0.71371609E+03</pdfrwt>
<totfact> 0.37358356E+01</totfact>
</mgrwt>
</event>
<event>
 4    1  0.7595604E-007  0.7747629E+03  0.7818608E-02  0.9768286E-01
         -2   -1    0    0    0  501 -0.00000000000E+00  0.00000000000E+00  0.15859333691E+03  0.15859333693E+03  0.25500000000E-02 0.  1.
          2   -1    0    0  501    0  0.00000000000E+00 -0.00000000000E+00 -0.28567159629E+04  0.28567159629E+04  0.25500000000E-02 0. -1.
    8880023    1    1    2    0    0 -0.34347867605E+03  0.22015838507E+03 -0.10161403264E+04  0.12778101129E+04  0.65864270000E+03 0.  1.
    8880022    1    1    2    0    0  0.34347867605E+03 -0.22015838507E+03 -0.16819822996E+04  0.17374991869E+04  0.15294330000E+03 0.  0.
<mgrwt>
<rscale>  0 0.67092624E+03</rscale>
<asrwt>0</asrwt>
<pdfrwt beam="1">  1        2 0.43949472E+00 0.77476288E+03</pdfrwt>
<pdfrwt beam="2">  1       -2 0.24398977E-01 0.77476288E+03</pdfrwt>
<totfact> 0.33546136E+01</totfact>
</mgrwt>
</event>
<event>
 4    1  0.7595604E-007  0.8301587E+03  0.7818608E-02  0.9649024E-01
         -2   -1    0    0    0  501 -0.00000000000E+00  0.00000000000E+00  0.90697629991E+03  0.90697629991E+03  0.25500000000E-02 0.  1.
          2   -1    0    0  501    0  0.00000000000E+00 -0.00000000000E+00 -0.66853326394E+03  0.66853326394E+03  0.25500000000E-02 0. -1.
    8880023    1    1    2    0    0 -0.47349539803E+03 -0.17650899237E+03  0.51758674441E+03  0.97829420963E+03  0.65864270000E+03 0.  0.
    8880022    1    1    2    0    0  0.47349539803E+03  0.17650899237E+03 -0.27914370844E+03  0.59721535422E+03  0.15294330000E+03 0.  0.
<mgrwt>
<rscale>  0 0.74134734E+03</rscale>
<asrwt>0</asrwt>
<pdfrwt beam="1">  1        2 0.10285127E+00 0.83015873E+03</pdfrwt>
<pdfrwt beam="2">  1       -2 0.13953481E+00 0.83015873E+03</pdfrwt>
<totfact> 0.15835690E+01</totfact>
</mgrwt>
</event>
<event>
 4    1  0.7595604E-007  0.6705301E+03  0.7818608E-02  0.1015286E+00
          2   -1    0    0  501    0  0.00000000000E+00  0.00000000000E+00  0.61476090183E+03  0.61476090184E+03  0.25500000000E-02 0. -1.
         -2   -1    0    0    0  501 -0.00000000000E+00 -0.00000000000E+00 -0.98849259116E+03  0.98849259117E+03  0.25500000000E-02 0.  1.
    8880023    1    1    2    0    0 -0.31171954781E+00  0.12569930233E+03 -0.85283030461E+03  0.10848641143E+04  0.65864270000E+03 0.  1.
    8880022    1    1    2    0    0  0.31171954781E+00 -0.12569930233E+03  0.47909861528E+03  0.51838937870E+03  0.15294330000E+03 0.  0.
<mgrwt>
<rscale>  0 0.49426912E+03</rscale>
<asrwt>0</asrwt>
<pdfrwt beam="1">  1        2 0.94578600E-01 0.67053010E+03</pdfrwt>
<pdfrwt beam="2">  1       -2 0.15207578E+00 0.67053010E+03</pdfrwt>
<totfact> 0.14231789E+01</totfact>
</mgrwt>
</event>
<event>
 4    1  0.7595604E-007  0.9142223E+03  0.7818608E-02  0.9503575E-01
         -2   -1    0    0    0  501 -0.00000000000E+00  0.00000000000E+00  0.90200279735E+03  0.90200279735E+03  0.25500000000E-02 0.  1.
          2   -1    0    0  501    0  0.00000000000E+00 -0.00000000000E+00 -0.79459402619E+03  0.79459402620E+03  0.25500000000E-02 0. -1.
    8880023    1    1    2    0    0 -0.36158616283E+03 -0.52081446644E+03  0.37955474182E+03  0.98988093724E+03  0.65864270000E+03 0.  0.
    8880022    1    1    2    0    0  0.36158616283E+03  0.52081446644E+03 -0.27214597066E+03  0.70671588631E+03  0.15294330000E+03 0.  0.
<mgrwt>
<rscale>  0 0.84020740E+03</rscale>
<asrwt>0</asrwt>
<pdfrwt beam="1">  1        2 0.12224523E+00 0.91422233E+03</pdfrwt>
<pdfrwt beam="2">  1       -2 0.13876966E+00 0.91422233E+03</pdfrwt>
<totfact> 0.12766537E+01</totfact>
</mgrwt>
</event>
<event>
 4    1  0.7595604E-007  0.1265058E+04  0.7818608E-02  0.9096338E-01
         -2   -1    0    0    0  501 -0.00000000000E+00  0.00000000000E+00  0.34891312634E+03  0.34891312635E+03  0.25500000000E-02 0.  1.
          2   -1    0    0  501    0  0.00000000000E+00 -0.00000000000E+00 -0.41573484069E+04  0.41573484069E+04  0.25500000000E-02 0. -1.
    8880023    1    1    2    0    0  0.98013597282E+03 -0.45375542014E+03 -0.15706607392E+04  0.20167661913E+04  0.65864270000E+03 0.  0.
    8880022    1    1    2    0    0 -0.98013597282E+03  0.45375542014E+03 -0.22377745414E+04  0.24894953420E+04  0.15294330000E+03 0.  0.
<mgrwt>
<rscale>  0 0.12190567E+04</rscale>
<asrwt>0</asrwt>
<pdfrwt beam="1">  1        2 0.63959203E+00 0.12650576E+04</pdfrwt>
<pdfrwt beam="2">  1       -2 0.53678945E-01 0.12650576E+04</pdfrwt>
<totfact> 0.84013486E-01</totfact>
</mgrwt>
</event>
<event>
 4    1  0.8726750E-007  0.6802973E+03  0.7818608E-02  0.1009156E+00
         -2   -1    0    0    0  501 -0.00000000000E+00  0.00000000000E+00  0.36513629901E+03  0.36513629902E+03  0.25500000000E-02 0.  1.
          2   -1    0    0  501    0  0.00000000000E+00 -0.00000000000E+00 -0.24884214606E+04  0.24884214606E+04  0.25500000000E-02 0. -1.
    8880023    1    1    2    0    0  0.52979161969E+02  0.16182529286E+03  0.36884553323E+02  0.68129647992E+03  0.65864270000E+03 0.  1.
    8880022    1    1    2    0    0 -0.52979161969E+02 -0.16182529286E+03 -0.21601697149E+04  0.21722612797E+04  0.15294330000E+03 0.  0.
<mgrwt>
<rscale>  0 0.51811460E+03</rscale>
<asrwt>0</asrwt>
<pdfrwt beam="1">  1        2 0.38283406E+00 0.68029731E+03</pdfrwt>
<pdfrwt beam="2">  1       -2 0.56174817E-01 0.68029731E+03</pdfrwt>
<totfact> 0.11155006E+01</totfact>
</mgrwt>
</event>
<event>
 4    1  0.7595604E-007  0.9108168E+03  0.7818608E-02  0.9508886E-01
         -2   -1    0    0    0  501 -0.00000000000E+00  0.00000000000E+00  0.54593607388E+03  0.54593607388E+03  0.25500000000E-02 0.  1.
          2   -1    0    0  501    0  0.00000000000E+00 -0.00000000000E+00 -0.19815721299E+04  0.19815721299E+04  0.25500000000E-02 0. -1.
    8880023    1    1    2    0    0  0.19961400885E+03  0.59659978124E+03  0.44566696968E+02  0.91190649095E+03  0.65864270000E+03 0.  1.
    8880022    1    1    2    0    0 -0.19961400885E+03 -0.59659978124E+03 -0.14802027530E+04  0.16156017128E+04  0.15294330000E+03 0.  0.
<mgrwt>
<rscale>  0 0.83631885E+03</rscale>
<asrwt>0</asrwt>
<pdfrwt beam="1">  1        2 0.30485725E+00 0.91081681E+03</pdfrwt>
<pdfrwt beam="2">  1       -2 0.83990167E-01 0.91081681E+03</pdfrwt>
<totfact> 0.85740536E+00</totfact>
</mgrwt>
</event>
<event>
 4    1  0.7595604E-007  0.8131412E+03  0.7818608E-02  0.9683071E-01
          2   -1    0    0  501    0  0.00000000000E+00  0.00000000000E+00  0.91260992091E+03  0.91260992092E+03  0.25500000000E-02 0. -1.
         -2   -1    0    0    0  501 -0.00000000000E+00 -0.00000000000E+00 -0.98706271086E+03  0.98706271087E+03  0.25500000000E-02 0.  1.
    8880023    1    1    2    0    0 -0.13072047035E+03  0.45858533107E+03  0.63470145807E+03  0.10315253242E+04  0.65864270000E+03 0. -1.
    8880022    1    1    2    0    0  0.13072047035E+03 -0.45858533107E+03 -0.70915424802E+03  0.86814730762E+03  0.15294330000E+03 0.  0.
<mgrwt>
<rscale>  0 0.72033758E+03</rscale>
<asrwt>0</asrwt>
<pdfrwt beam="1">  1        2 0.14040153E+00 0.81314116E+03</pdfrwt>
<pdfrwt beam="2">  1       -2 0.15185580E+00 0.81314116E+03</pdfrwt>
<totfact> 0.84219133E+00</totfact>
</mgrwt>
</event>
<event>
 4    1  0.7595604E-007  0.6729032E+03  0.7818608E-02  0.1013662E+00
         -2   -1    0    0    0  501 -0.00000000000E+00  0.00000000000E+00  0.14346036154E+03  0.14346036156E+03  0.25500000000E-02 0.  1.
          2   -1    0    0  501    0  0.00000000000E+00 -0.00000000000E+00 -0.36453276560E+04  0.36453276560E+04  0.25500000000E-02 0. -1.
    8880023    1    1    2    0    0  0.12440115059E+03 -0.59269518697E+02 -0.67044682778E+03  0.94989350838E+03  0.65864270000E+03 0.  1.
    8880022    1    1    2    0    0 -0.12440115059E+03  0.59269518697E+02 -0.28314204666E+04  0.28388945091E+04  0.15294330000E+03 0.  0.
<mgrwt>
<rscale>  0 0.50044896E+03</rscale>
<asrwt>0</asrwt>
<pdfrwt beam="1">  1        2 0.56081957E+00 0.67290321E+03</pdfrwt>
<pdfrwt beam="2">  1       -2 0.22070828E-01 0.67290321E+03</pdfrwt>
<totfact> 0.12642590E+01</totfact>
</mgrwt>
</event>
<event>
 4    1  0.7595604E-007  0.8274516E+03  0.7818608E-02  0.9654311E-01
          2   -1    0    0  501    0  0.00000000000E+00  0.00000000000E+00  0.25858259552E+04  0.25858259552E+04  0.25500000000E-02 0. -1.
         -2   -1    0    0    0  501 -0.00000000000E+00 -0.00000000000E+00 -0.23168915285E+03  0.23168915287E+03  0.25500000000E-02 0.  1.
    8880023    1    1    2    0    0 -0.38712669478E+03  0.31780320016E+03  0.70446673279E+03  0.10867150205E+04  0.65864270000E+03 0.  1.
    8880022    1    1    2    0    0  0.38712669478E+03 -0.31780320016E+03  0.16496700696E+04  0.17308000876E+04  0.15294330000E+03 0.  0.
<mgrwt>
<rscale>  0 0.73803471E+03</rscale>
<asrwt>0</asrwt>
<pdfrwt beam="1">  1        2 0.39781938E+00 0.82745160E+03</pdfrwt>
<pdfrwt beam="2">  1       -2 0.35644485E-01 0.82745160E+03</pdfrwt>
<totfact> 0.23756357E+01</totfact>
</mgrwt>
</event>
<event>
 4    1  0.7595604E-007  0.1045556E+04  0.7818608E-02  0.9324243E-01
         -2   -1    0    0    0  501 -0.00000000000E+00  0.00000000000E+00  0.20321605099E+04  0.20321605099E+04  0.25500000000E-02 0.  1.
          2   -1    0    0  501    0  0.00000000000E+00 -0.00000000000E+00 -0.11707245586E+04  0.11707245586E+04  0.25500000000E-02 0. -1.
    8880023    1    1    2    0    0  0.68639421808E+03  0.43386659042E+03  0.17190052327E+04  0.20120055758E+04  0.65864270000E+03 0.  0.
    8880022    1    1    2    0    0 -0.68639421808E+03 -0.43386659042E+03 -0.85756928137E+03  0.11908794928E+04  0.15294330000E+03 0.  0.
<mgrwt>
<rscale>  0 0.98581337E+03</rscale>
<asrwt>0</asrwt>
<pdfrwt beam="1">  1        2 0.18011147E+00 0.10455560E+04</pdfrwt>
<pdfrwt beam="2">  1       -2 0.31264008E+00 0.10455560E+04</pdfrwt>
<totfact> 0.52370911E-01</totfact>
</mgrwt>
</event>
<event>
 4    1  0.7595604E-007  0.7358350E+03  0.7818608E-02  0.9872250E-01
         -2   -1    0    0    0  501 -0.00000000000E+00  0.00000000000E+00  0.30658778126E+03  0.30658778127E+03  0.25500000000E-02 0.  1.
          2   -1    0    0  501    0  0.00000000000E+00 -0.00000000000E+00 -0.15618519424E+04  0.15618519424E+04  0.25500000000E-02 0. -1.
    8880023    1    1    2    0    0 -0.12729988856E+03 -0.30238672248E+03 -0.21441056947E+03  0.76643661846E+03  0.65864270000E+03 0.  1.
    8880022    1    1    2    0    0  0.12729988856E+03  0.30238672248E+03 -0.10408535917E+04  0.11020031052E+04  0.15294330000E+03 0.  0.
<mgrwt>
<rscale>  0 0.61625238E+03</rscale>
<asrwt>0</asrwt>
<pdfrwt beam="1">  1        2 0.24028491E+00 0.73583503E+03</pdfrwt>
<pdfrwt beam="2">  1       -2 0.47167352E-01 0.73583503E+03</pdfrwt>
<totfact> 0.51111919E+01</totfact>
</mgrwt>
</event>
<event>
 4    1  0.7595604E-007  0.1067374E+04  0.7818608E-02  0.9298282E-01
          2   -1    0    0  501    0  0.00000000000E+00  0.00000000000E+00  0.18174582960E+04  0.18174582960E+04  0.25500000000E-02 0. -1.
         -2   -1    0    0    0  501 -0.00000000000E+00 -0.00000000000E+00 -0.64653388798E+03  0.64653388799E+03  0.25500000000E-02 0.  1.
    8880023    1    1    2    0    0  0.67328025722E+03  0.50216543451E+03  0.12047710936E+04  0.16095838041E+04  0.65864270000E+03 0.  0.
    8880022    1    1    2    0    0 -0.67328025722E+03 -0.50216543451E+03 -0.33846685574E+02  0.85440837982E+03  0.15294330000E+03 0.  0.
<mgrwt>
<rscale>  0 0.10094121E+04</rscale>
<asrwt>0</asrwt>
<pdfrwt beam="1">  1        2 0.27960897E+00 0.10673737E+04</pdfrwt>
<pdfrwt beam="2">  1       -2 0.99466753E-01 0.10673737E+04</pdfrwt>
<totfact> 0.69956129E+00</totfact>
</mgrwt>
</event>
<event>
 4    1  0.7595604E-007  0.6722735E+03  0.7818608E-02  0.1014083E+00
         -2   -1    0    0    0  501 -0.00000000000E+00  0.00000000000E+00  0.17213419767E+03  0.17213419769E+03  0.25500000000E-02 0.  1.
          2   -1    0    0  501    0  0.00000000000E+00 -0.00000000000E+00 -0.14851960311E+04  0.14851960311E+04  0.25500000000E-02 0. -1.
    8880023    1    1    2    0    0  0.13466848669E+03 -0.24228881501E+01 -0.55322426581E+03  0.87063698878E+03  0.65864270000E+03 0.  0.
    8880022    1    1    2    0    0 -0.13466848669E+03  0.24228881501E+01 -0.75983756760E+03  0.78669323999E+03  0.15294330000E+03 0.  0.
<mgrwt>
<rscale>  0 0.49883719E+03</rscale>
<asrwt>0</asrwt>
<pdfrwt beam="1">  1        2 0.22849169E+00 0.67227351E+03</pdfrwt>
<pdfrwt beam="2">  1       -2 0.26482185E-01 0.67227351E+03</pdfrwt>
<totfact> 0.17068215E+02</totfact>
</mgrwt>
</event>
<event>
 4    1  0.7595604E-007  0.6771824E+03  0.7818608E-02  0.1010965E+00
         -2   -1    0    0    0  501 -0.00000000000E+00  0.00000000000E+00  0.21252098335E+03  0.21252098337E+03  0.25500000000E-02 0.  1.
          2   -1    0    0  501    0  0.00000000000E+00 -0.00000000000E+00 -0.19738689619E+04  0.19738689619E+04  0.25500000000E-02 0. -1.
    8880023    1    1    2    0    0 -0.46638585852E+02  0.15030185157E+03 -0.35800389461E+03  0.76599138317E+03  0.65864270000E+03 0.  1.
    8880022    1    1    2    0    0  0.46638585852E+02 -0.15030185157E+03 -0.14033440840E+04  0.14203985621E+04  0.15294330000E+03 0.  0.
<mgrwt>
<rscale>  0 0.51093093E+03</rscale>
<asrwt>0</asrwt>
<pdfrwt beam="1">  1        2 0.30367214E+00 0.67718241E+03</pdfrwt>
<pdfrwt beam="2">  1       -2 0.32695537E-01 0.67718241E+03</pdfrwt>
<totfact> 0.62497314E+01</totfact>
</mgrwt>
</event>
<event>
 4    1  0.7595604E-007  0.6879149E+03  0.7818608E-02  0.1005160E+00
         -2   -1    0    0    0  501 -0.00000000000E+00  0.00000000000E+00  0.62236416157E+03  0.62236416158E+03  0.25500000000E-02 0.  1.
          2   -1    0    0  501    0  0.00000000000E+00 -0.00000000000E+00 -0.15990902199E+04  0.15990902199E+04  0.25500000000E-02 0. -1.
    8880023    1    1    2    0    0 -0.18397200322E+03 -0.74639071913E+02  0.41762540601E+03  0.80475951379E+03  0.65864270000E+03 0.  1.
    8880022    1    1    2    0    0  0.18397200322E+03  0.74639071913E+02 -0.13943514644E+04  0.14166948677E+04  0.15294330000E+03 0.  0.
<mgrwt>
<rscale>  0 0.53444522E+03</rscale>
<asrwt>0</asrwt>
<pdfrwt beam="1">  1        2 0.24601388E+00 0.68791489E+03</pdfrwt>
<pdfrwt beam="2">  1       -2 0.95748333E-01 0.68791489E+03</pdfrwt>
<totfact> 0.10581790E+01</totfact>
</mgrwt>
</event>
<event>
 4    1  0.7595604E-007  0.7144189E+03  0.7818608E-02  0.9941944E-01
          2   -1    0    0  501    0  0.00000000000E+00  0.00000000000E+00  0.44524765132E+03  0.44524765132E+03  0.25500000000E-02 0. -1.
         -2   -1    0    0    0  501 -0.00000000000E+00 -0.00000000000E+00 -0.83077131217E+03  0.83077131218E+03  0.25500000000E-02 0.  1.
    8880023    1    1    2    0    0 -0.68054149877E+02 -0.26824020259E+03 -0.56644131988E+03  0.91172920800E+03  0.65864270000E+03 0.  1.
    8880022    1    1    2    0    0  0.68054149877E+02  0.26824020259E+03  0.18091765902E+03  0.36428975550E+03  0.15294330000E+03 0.  0.
<mgrwt>
<rscale>  0 0.58270881E+03</rscale>
<asrwt>0</asrwt>
<pdfrwt beam="1">  1        2 0.68499639E-01 0.71441891E+03</pdfrwt>
<pdfrwt beam="2">  1       -2 0.12781097E+00 0.71441891E+03</pdfrwt>
<totfact> 0.32387432E+01</totfact>
</mgrwt>
</event>
<event>
 4    1  0.7595604E-007  0.7769704E+03  0.7818608E-02  0.9763002E-01
          2   -1    0    0  501    0  0.00000000000E+00  0.00000000000E+00  0.18068571602E+04  0.18068571602E+04  0.25500000000E-02 0. -1.
         -2   -1    0    0    0  501 -0.00000000000E+00 -0.00000000000E+00 -0.35093937904E+03  0.35093937904E+03  0.25500000000E-02 0.  1.
    8880023    1    1    2    0    0  0.34893592249E+03 -0.21935471821E+03  0.16529911051E+03  0.79435934728E+03  0.65864270000E+03 0.  1.
    8880022    1    1    2    0    0 -0.34893592249E+03  0.21935471821E+03  0.12906186707E+04  0.13634371920E+04  0.15294330000E+03 0.  0.
<mgrwt>
<rscale>  0 0.67386413E+03</rscale>
<asrwt>0</asrwt>
<pdfrwt beam="1">  1        2 0.27797802E+00 0.77697038E+03</pdfrwt>
<pdfrwt beam="2">  1       -2 0.53990674E-01 0.77697038E+03</pdfrwt>
<totfact> 0.28341688E+01</totfact>
</mgrwt>
</event>
<event>
 4    1  0.7595604E-007  0.8672232E+03  0.7818608E-02  0.9580842E-01
         -2   -1    0    0    0  501 -0.00000000000E+00  0.00000000000E+00  0.24495932761E+03  0.24495932763E+03  0.25500000000E-02 0.  1.
          2   -1    0    0  501    0  0.00000000000E+00 -0.00000000000E+00 -0.34501331695E+04  0.34501331695E+04  0.25500000000E-02 0. -1.
    8880023    1    1    2    0    0  0.56390611158E+03  0.16603968898E+02 -0.67687692571E+03  0.11001083462E+04  0.65864270000E+03 0.  0.
    8880022    1    1    2    0    0 -0.56390611158E+03 -0.16603968898E+02 -0.25282969162E+04  0.25949841510E+04  0.15294330000E+03 0.  0.
<mgrwt>
<rscale>  0 0.78577283E+03</rscale>
<asrwt>0</asrwt>
<pdfrwt beam="1">  1        2 0.53078968E+00 0.86722316E+03</pdfrwt>
<pdfrwt beam="2">  1       -2 0.37686053E-01 0.86722316E+03</pdfrwt>
<totfact> 0.61857525E+00</totfact>
</mgrwt>
</event>
<event>
 4    1  0.7595604E-007  0.8851963E+03  0.7818608E-02  0.9550227E-01
          2   -1    0    0  501    0  0.00000000000E+00  0.00000000000E+00  0.25845218491E+04  0.25845218491E+04  0.25500000000E-02 0. -1.
         -2   -1    0    0    0  501 -0.00000000000E+00 -0.00000000000E+00 -0.40756321976E+03  0.40756321977E+03  0.25500000000E-02 0.  1.
    8880023    1    1    2    0    0  0.18459623827E+03  0.56185982103E+03  0.17937549613E+03  0.90318769065E+03  0.65864270000E+03 0.  0.
    8880022    1    1    2    0    0 -0.18459623827E+03 -0.56185982103E+03  0.19975831332E+04  0.20888973782E+04  0.15294330000E+03 0.  0.
<mgrwt>
<rscale>  0 0.80679961E+03</rscale>
<asrwt>0</asrwt>
<pdfrwt beam="1">  1        2 0.39761874E+00 0.88519627E+03</pdfrwt>
<pdfrwt beam="2">  1       -2 0.62702034E-01 0.88519627E+03</pdfrwt>
<totfact> 0.75430705E+00</totfact>
</mgrwt>
</event>
<event>
 4    1  0.7595604E-007  0.8884808E+03  0.7818608E-02  0.9544782E-01
          2   -1    0    0  501    0  0.00000000000E+00  0.00000000000E+00  0.12282654201E+04  0.12282654201E+04  0.25500000000E-02 0. -1.
         -2   -1    0    0    0  501 -0.00000000000E+00 -0.00000000000E+00 -0.69028907665E+03  0.69028907666E+03  0.25500000000E-02 0.  1.
    8880023    1    1    2    0    0  0.54423236387E+03  0.24371925341E+03 -0.24585995703E+03  0.92187052513E+03  0.65864270000E+03 0.  0.
    8880022    1    1    2    0    0 -0.54423236387E+03 -0.24371925341E+03  0.78383630049E+03  0.99668397165E+03  0.15294330000E+03 0.  1.
<mgrwt>
<rscale>  0 0.81061198E+03</rscale>
<asrwt>0</asrwt>
<pdfrwt beam="1">  1        2 0.18896391E+00 0.88848081E+03</pdfrwt>
<pdfrwt beam="2">  1       -2 0.10619832E+00 0.88848081E+03</pdfrwt>
<totfact> 0.13089612E+01</totfact>
</mgrwt>
</event>
<event>
 4    1  0.7595604E-007  0.1104199E+04  0.7818608E-02  0.9256396E-01
         -2   -1    0    0    0  501 -0.00000000000E+00  0.00000000000E+00  0.79746033304E+03  0.79746033304E+03  0.25500000000E-02 0.  1.
          2   -1    0    0  501    0  0.00000000000E+00 -0.00000000000E+00 -0.18233857453E+04  0.18233857453E+04  0.25500000000E-02 0. -1.
    8880023    1    1    2    0    0  0.88190935799E+03  0.87637843274E+02  0.17762229708E+03  0.11183936668E+04  0.65864270000E+03 0.  1.
    8880022    1    1    2    0    0 -0.88190935799E+03 -0.87637843274E+02 -0.12035477094E+04  0.15024524116E+04  0.15294330000E+03 0.  0.
<mgrwt>
<rscale>  0 0.10489819E+04</rscale>
<asrwt>0</asrwt>
<pdfrwt beam="1">  1        2 0.28052088E+00 0.11041987E+04</pdfrwt>
<pdfrwt beam="2">  1       -2 0.12268621E+00 0.11041987E+04</pdfrwt>
<totfact> 0.41445885E+00</totfact>
</mgrwt>
</event>
<event>
 4    1  0.7595604E-007  0.6682132E+03  0.7818608E-02  0.1016977E+00
         -2   -1    0    0    0  501 -0.00000000000E+00  0.00000000000E+00  0.17097503632E+03  0.17097503634E+03  0.25500000000E-02 0.  1.
          2   -1    0    0  501    0  0.00000000000E+00 -0.00000000000E+00 -0.18666673347E+04  0.18666673347E+04  0.25500000000E-02 0. -1.
    8880023    1    1    2    0    0 -0.10394164517E+03  0.43529949298E+02 -0.52001162668E+03  0.84671188738E+03  0.65864270000E+03 0.  1.
    8880022    1    1    2    0    0  0.10394164517E+03 -0.43529949298E+02 -0.11756806717E+04  0.11909304837E+04  0.15294330000E+03 0.  0.
<mgrwt>
<rscale>  0 0.48793304E+03</rscale>
<asrwt>0</asrwt>
<pdfrwt beam="1">  1        2 0.28717958E+00 0.66821324E+03</pdfrwt>
<pdfrwt beam="2">  1       -2 0.26303853E-01 0.66821324E+03</pdfrwt>
<totfact> 0.10690124E+02</totfact>
</mgrwt>
</event>
<event>
 4    1  0.7595604E-007  0.8043319E+03  0.7818608E-02  0.9701507E-01
          2   -1    0    0  501    0  0.00000000000E+00  0.00000000000E+00  0.12030222209E+04  0.12030222209E+04  0.25500000000E-02 0. -1.
         -2   -1    0    0    0  501 -0.00000000000E+00 -0.00000000000E+00 -0.44290793932E+03  0.44290793933E+03  0.25500000000E-02 0.  1.
    8880023    1    1    2    0    0 -0.34623864415E+03 -0.30538244621E+03  0.77883882232E+02  0.80809389463E+03  0.65864270000E+03 0.  0.
    8880022    1    1    2    0    0  0.34623864415E+03  0.30538244621E+03  0.68223039934E+03  0.83783626560E+03  0.15294330000E+03 0.  0.
<mgrwt>
<rscale>  0 0.70927157E+03</rscale>
<asrwt>0</asrwt>
<pdfrwt beam="1">  1        2 0.18508034E+00 0.80433192E+03</pdfrwt>
<pdfrwt beam="2">  1       -2 0.68139683E-01 0.80433192E+03</pdfrwt>
<totfact> 0.37669287E+01</totfact>
</mgrwt>
</event>
<event>
 4    1  0.7595604E-007  0.7575725E+03  0.7818608E-02  0.9811433E-01
         -2   -1    0    0    0  501 -0.00000000000E+00  0.00000000000E+00  0.59452215101E+03  0.59452215102E+03  0.25500000000E-02 0.  1.
          2   -1    0    0  501    0  0.00000000000E+00 -0.00000000000E+00 -0.81739842345E+03  0.81739842346E+03  0.25500000000E-02 0. -1.
    8880023    1    1    2    0    0 -0.44860552948E+02 -0.37160924784E+03  0.24248282247E+03  0.79543323274E+03  0.65864270000E+03 0.  0.
    8880022    1    1    2    0    0  0.44860552948E+02  0.37160924784E+03 -0.46535909491E+03  0.61648734174E+03  0.15294330000E+03 0.  0.
<mgrwt>
<rscale>  0 0.64752578E+03</rscale>
<asrwt>0</asrwt>
<pdfrwt beam="1">  1        2 0.12575360E+00 0.75757251E+03</pdfrwt>
<pdfrwt beam="2">  1       -2 0.91464946E-01 0.75757251E+03</pdfrwt>
<totfact> 0.34532833E+01</totfact>
</mgrwt>
</event>
<event>
 4    1  0.7595604E-007  0.6968411E+03  0.7818608E-02  0.1001057E+00
          2   -1    0    0  501    0  0.00000000000E+00  0.00000000000E+00  0.11497248451E+04  0.11497248451E+04  0.25500000000E-02 0. -1.
         -2   -1    0    0    0  501 -0.00000000000E+00 -0.00000000000E+00 -0.28843974384E+03  0.28843974385E+03  0.25500000000E-02 0.  1.
    8880023    1    1    2    0    0 -0.15258885934E+03 -0.16880151331E+03  0.20415242131E+03  0.72613065510E+03  0.65864270000E+03 0.  0.
    8880022    1    1    2    0    0  0.15258885934E+03  0.16880151331E+03  0.65713267996E+03  0.71203393387E+03  0.15294330000E+03 0.  0.
<mgrwt>
<rscale>  0 0.55189332E+03</rscale>
<asrwt>0</asrwt>
<pdfrwt beam="1">  1        2 0.17688075E+00 0.69684110E+03</pdfrwt>
<pdfrwt beam="2">  1       -2 0.44375345E-01 0.69684110E+03</pdfrwt>
<totfact> 0.99686167E+01</totfact>
</mgrwt>
</event>
<event>
 4    1  0.7595604E-007  0.9880557E+03  0.7818608E-02  0.9397354E-01
         -2   -1    0    0    0  501 -0.00000000000E+00  0.00000000000E+00  0.74519348362E+03  0.74519348363E+03  0.25500000000E-02 0.  1.
          2   -1    0    0  501    0  0.00000000000E+00 -0.00000000000E+00 -0.17224868939E+04  0.17224868939E+04  0.25500000000E-02 0. -1.
    8880023    1    1    2    0    0  0.42409863780E+03  0.60214965622E+03 -0.13135905964E+04  0.16437074936E+04  0.65864270000E+03 0. -1.
    8880022    1    1    2    0    0 -0.42409863780E+03 -0.60214965622E+03  0.33629718617E+03  0.82397288396E+03  0.15294330000E+03 0.  0.
<mgrwt>
<rscale>  0 0.92293762E+03</rscale>
<asrwt>0</asrwt>
<pdfrwt beam="1">  1        2 0.26499798E+00 0.98805570E+03</pdfrwt>
<pdfrwt beam="2">  1       -2 0.11464515E+00 0.98805570E+03</pdfrwt>
<totfact> 0.56473247E+00</totfact>
</mgrwt>
</event>
<event>
 4    1  0.7595604E-007  0.6907933E+03  0.7818608E-02  0.1003778E+00
          2   -1    0    0  501    0  0.00000000000E+00  0.00000000000E+00  0.13671345822E+04  0.13671345822E+04  0.25500000000E-02 0. -1.
         -2   -1    0    0    0  501 -0.00000000000E+00 -0.00000000000E+00 -0.20718092202E+03  0.20718092204E+03  0.25500000000E-02 0.  1.
    8880023    1    1    2    0    0  0.20648594027E+03 -0.27363352807E+02  0.46459372732E+03  0.83249188244E+03  0.65864270000E+03 0.  0.
    8880022    1    1    2    0    0 -0.20648594027E+03  0.27363352807E+02  0.69535993287E+03  0.74182362180E+03  0.15294330000E+03 0.  0.
<mgrwt>
<rscale>  0 0.54024323E+03</rscale>
<asrwt>0</asrwt>
<pdfrwt beam="1">  1        2 0.21032838E+00 0.69079331E+03</pdfrwt>
<pdfrwt beam="2">  1       -2 0.31873990E-01 0.69079331E+03</pdfrwt>
<totfact> 0.14103675E+02</totfact>
</mgrwt>
</event>
<event>
 4    1  0.7595604E-007  0.9989360E+03  0.7818608E-02  0.9382951E-01
          2   -1    0    0  501    0  0.00000000000E+00  0.00000000000E+00  0.13209580293E+04  0.13209580293E+04  0.25500000000E-02 0. -1.
         -2   -1    0    0    0  501 -0.00000000000E+00 -0.00000000000E+00 -0.11268592344E+04  0.11268592344E+04  0.25500000000E-02 0.  1.
    8880023    1    1    2    0    0  0.34636465901E+03  0.66640413347E+03  0.94480395163E+03  0.13749646030E+04  0.65864270000E+03 0.  0.
    8880022    1    1    2    0    0 -0.34636465901E+03 -0.66640413347E+03 -0.75070515673E+03  0.10728526607E+04  0.15294330000E+03 0.  0.
<mgrwt>
<rscale>  0 0.93492127E+03</rscale>
<asrwt>0</asrwt>
<pdfrwt beam="1">  1        2 0.20322431E+00 0.99893601E+03</pdfrwt>
<pdfrwt beam="2">  1       -2 0.17336296E+00 0.99893601E+03</pdfrwt>
<totfact> 0.32163655E+00</totfact>
</mgrwt>
</event>
<event>
 4    1  0.7595604E-007  0.7206705E+03  0.7818608E-02  0.9920324E-01
          2   -1    0    0  501    0  0.00000000000E+00  0.00000000000E+00  0.81527754263E+03  0.81527754264E+03  0.25500000000E-02 0. -1.
         -2   -1    0    0    0  501 -0.00000000000E+00 -0.00000000000E+00 -0.38509691039E+03  0.38509691040E+03  0.25500000000E-02 0.  1.
    8880023    1    1    2    0    0 -0.15144286743E+03  0.25024150776E+03  0.48095523567E+03  0.86642016325E+03  0.65864270000E+03 0.  0.
    8880022    1    1    2    0    0  0.15144286743E+03 -0.25024150776E+03 -0.50774603425E+02  0.33395428979E+03  0.15294330000E+03 0.  0.
<mgrwt>
<rscale>  0 0.59286344E+03</rscale>
<asrwt>0</asrwt>
<pdfrwt beam="1">  1        2 0.12542731E+00 0.72067049E+03</pdfrwt>
<pdfrwt beam="2">  1       -2 0.59245679E-01 0.72067049E+03</pdfrwt>
<totfact> 0.90660052E+01</totfact>
</mgrwt>
</event>
<event>
 4    1  0.7595604E-007  0.1004861E+04  0.7818608E-02  0.9375225E-01
         -2   -1    0    0    0  501 -0.00000000000E+00  0.00000000000E+00  0.15503964125E+04  0.15503964125E+04  0.25500000000E-02 0.  1.
          2   -1    0    0  501    0  0.00000000000E+00 -0.00000000000E+00 -0.73346099053E+03  0.73346099053E+03  0.25500000000E-02 0. -1.
    8880023    1    1    2    0    0  0.75696510740E+03  0.54218599778E+02  0.10714522686E+04  0.14689302231E+04  0.65864270000E+03 0.  1.
    8880022    1    1    2    0    0 -0.75696510740E+03 -0.54218599778E+02 -0.25451684656E+03  0.81492717993E+03  0.15294330000E+03 0. -1.
<mgrwt>
<rscale>  0 0.94142902E+03</rscale>
<asrwt>0</asrwt>
<pdfrwt beam="1">  1        2 0.11284015E+00 0.10048612E+04</pdfrwt>
<pdfrwt beam="2">  1       -2 0.23852252E+00 0.10048612E+04</pdfrwt>
<totfact> 0.29085801E+00</totfact>
</mgrwt>
</event>
<event>
 4    1  0.7595604E-007  0.7875890E+03  0.7818608E-02  0.9738303E-01
         -2   -1    0    0    0  501 -0.00000000000E+00  0.00000000000E+00  0.66151810575E+03  0.66151810575E+03  0.25500000000E-02 0.  1.
          2   -1    0    0  501    0  0.00000000000E+00 -0.00000000000E+00 -0.22437432874E+04  0.22437432874E+04  0.25500000000E-02 0. -1.
    8880023    1    1    2    0    0 -0.31611079946E+03  0.29421115811E+03  0.39117454635E+03  0.87938272389E+03  0.65864270000E+03 0.  0.
    8880022    1    1    2    0    0  0.31611079946E+03 -0.29421115811E+03 -0.19733997280E+04  0.20258786692E+04  0.15294330000E+03 0. -1.
<mgrwt>
<rscale>  0 0.68781331E+03</rscale>
<asrwt>0</asrwt>
<pdfrwt beam="1">  1        2 0.34519127E+00 0.78758901E+03</pdfrwt>
<pdfrwt beam="2">  1       -2 0.10177202E+00 0.78758901E+03</pdfrwt>
<totfact> 0.40035990E+00</totfact>
</mgrwt>
</event>
<event>
 4    1  0.7595604E-007  0.6657123E+03  0.7818608E-02  0.1018943E+00
          2   -1    0    0  501    0  0.00000000000E+00  0.00000000000E+00  0.31903630849E+03  0.31903630850E+03  0.25500000000E-02 0. -1.
         -2   -1    0    0    0  501 -0.00000000000E+00 -0.00000000000E+00 -0.80297650676E+03  0.80297650677E+03  0.25500000000E-02 0.  1.
    8880023    1    1    2    0    0 -0.90265012069E+02  0.34855577972E+02 -0.60882016527E+03  0.90212797519E+03  0.65864270000E+03 0.  1.
    8880022    1    1    2    0    0  0.90265012069E+02 -0.34855577972E+02  0.12487996700E+03  0.21988484007E+03  0.15294330000E+03 0.  0.
<mgrwt>
<rscale>  0 0.48069936E+03</rscale>
<asrwt>0</asrwt>
<pdfrwt beam="1">  1        2 0.49082509E-01 0.66571232E+03</pdfrwt>
<pdfrwt beam="2">  1       -2 0.12353485E+00 0.66571232E+03</pdfrwt>
<totfact> 0.51430780E+01</totfact>
</mgrwt>
</event>
<event>
 4    1  0.7595604E-007  0.1017295E+04  0.7818608E-02  0.9359272E-01
          2   -1    0    0  501    0  0.00000000000E+00  0.00000000000E+00  0.89191955352E+03  0.89191955353E+03  0.25500000000E-02 0. -1.
         -2   -1    0    0    0  501 -0.00000000000E+00 -0.00000000000E+00 -0.98583319120E+03  0.98583319120E+03  0.25500000000E-02 0.  1.
    8880023    1    1    2    0    0 -0.77107009528E+03 -0.80812259416E+02 -0.30089294224E+03  0.10608611983E+04  0.65864270000E+03 0.  0.
    8880022    1    1    2    0    0  0.77107009528E+03  0.80812259416E+02  0.20697930456E+03  0.81689154643E+03  0.15294330000E+03 0.  0.
<mgrwt>
<rscale>  0 0.95504619E+03</rscale>
<asrwt>0</asrwt>
<pdfrwt beam="1">  1        2 0.13721839E+00 0.10172954E+04</pdfrwt>
<pdfrwt beam="2">  1       -2 0.15166665E+00 0.10172954E+04</pdfrwt>
<totfact> 0.85531884E+00</totfact>
</mgrwt>
</event>
<event>
 4    1  0.7595604E-007  0.7244447E+03  0.7818608E-02  0.9907824E-01
          2   -1    0    0  501    0  0.00000000000E+00  0.00000000000E+00  0.21482306897E+04  0.21482306897E+04  0.25500000000E-02 0. -1.
         -2   -1    0    0    0  501 -0.00000000000E+00 -0.00000000000E+00 -0.29409186713E+03  0.29409186714E+03  0.25500000000E-02 0.  1.
    8880023    1    1    2    0    0 -0.27901484902E+03 -0.11471974810E+03  0.19662965093E+03  0.75065526873E+03  0.65864270000E+03 0.  1.
    8880022    1    1    2    0    0  0.27901484902E+03  0.11471974810E+03  0.16575091716E+04  0.16916672881E+04  0.15294330000E+03 0.  0.
<mgrwt>
<rscale>  0 0.59883603E+03</rscale>
<asrwt>0</asrwt>
<pdfrwt beam="1">  1        2 0.33049702E+00 0.72444469E+03</pdfrwt>
<pdfrwt beam="2">  1       -2 0.45244904E-01 0.72444469E+03</pdfrwt>
<totfact> 0.26598143E+01</totfact>
</mgrwt>
</event>
<event>
 4    1  0.1750783E-006  0.7675995E+03  0.7818608E-02  0.9785816E-01
          2   -1    0    0  501    0  0.00000000000E+00  0.00000000000E+00  0.16573155171E+04  0.16573155171E+04  0.25500000000E-02 0. -1.
         -2   -1    0    0    0  501 -0.00000000000E+00 -0.00000000000E+00 -0.18714916061E+04  0.18714916061E+04  0.25500000000E-02 0.  1.
    8880023    1    1    2    0    0  0.35293232532E+03 -0.17560639434E+03 -0.17632367599E+04  0.19230738181E+04  0.65864270000E+03 0.  1.
    8880022    1    1    2    0    0 -0.35293232532E+03  0.17560639434E+03  0.15490606709E+04  0.16057333051E+04  0.15294330000E+03 0.  0.
<mgrwt>
<rscale>  0 0.66129323E+03</rscale>
<asrwt>0</asrwt>
<pdfrwt beam="1">  1        2 0.25497162E+00 0.76759953E+03</pdfrwt>
<pdfrwt beam="2">  1       -2 0.28792179E+00 0.76759953E+03</pdfrwt>
<totfact> 0.41011829E-01</totfact>
</mgrwt>
</event>
<event>
 4    1  0.7595604E-007  0.9295382E+03  0.7818608E-02  0.9480186E-01
         -2   -1    0    0    0  501 -0.00000000000E+00  0.00000000000E+00  0.10209317754E+04  0.10209317754E+04  0.25500000000E-02 0.  1.
          2   -1    0    0  501    0  0.00000000000E+00 -0.00000000000E+00 -0.93828137796E+03  0.93828137796E+03  0.25500000000E-02 0. -1.
    8880023    1    1    2    0    0  0.27210457935E+03 -0.59681671318E+03  0.60309551330E+03  0.11080458003E+04  0.65864270000E+03 0.  1.
    8880022    1    1    2    0    0 -0.27210457935E+03  0.59681671318E+03 -0.52044511585E+03  0.85116735303E+03  0.15294330000E+03 0.  0.
<mgrwt>
<rscale>  0 0.85760497E+03</rscale>
<asrwt>0</asrwt>
<pdfrwt beam="1">  1        2 0.14435098E+00 0.92953822E+03</pdfrwt>
<pdfrwt beam="2">  1       -2 0.15706643E+00 0.92953822E+03</pdfrwt>
<totfact> 0.73067242E+00</totfact>
</mgrwt>
</event>
<event>
 4    1  0.7595604E-007  0.7357314E+03  0.7818608E-02  0.9872560E-01
          2   -1    0    0  501    0  0.00000000000E+00  0.00000000000E+00  0.96063794785E+03  0.96063794785E+03  0.25500000000E-02 0. -1.
         -2   -1    0    0    0  501 -0.00000000000E+00 -0.00000000000E+00 -0.78354922987E+03  0.78354922988E+03  0.25500000000E-02 0.  1.
    8880023    1    1    2    0    0  0.31706470339E+03 -0.83429048155E+02 -0.55899728779E+03  0.92400141030E+03  0.65864270000E+03 0.  1.
    8880022    1    1    2    0    0 -0.31706470339E+03  0.83429048155E+02  0.73608600576E+03  0.82018576744E+03  0.15294330000E+03 0.  0.
<mgrwt>
<rscale>  0 0.61609754E+03</rscale>
<asrwt>0</asrwt>
<pdfrwt beam="1">  1        2 0.14779045E+00 0.73573136E+03</pdfrwt>
<pdfrwt beam="2">  1       -2 0.12054604E+00 0.73573136E+03</pdfrwt>
<totfact> 0.14280384E+01</totfact>
</mgrwt>
</event>
<event>
 4    1  0.1775210E-006  0.6747825E+03  0.7818608E-02  0.1012444E+00
          2   -1    0    0  501    0  0.00000000000E+00  0.00000000000E+00  0.17522008841E+04  0.17522008841E+04  0.25500000000E-02 0. -1.
         -2   -1    0    0    0  501 -0.00000000000E+00 -0.00000000000E+00 -0.14760207651E+04  0.14760207651E+04  0.25500000000E-02 0.  1.
    8880023    1    1    2    0    0  0.12640004191E+03  0.74459897146E+02 -0.13918428993E+04  0.15467896138E+04  0.65864270000E+03 0.  1.
    8880022    1    1    2    0    0 -0.12640004191E+03 -0.74459897146E+02  0.16680230184E+04  0.16814320354E+04  0.15294330000E+03 0.  0.
<mgrwt>
<rscale>  0 0.50514872E+03</rscale>
<asrwt>0</asrwt>
<pdfrwt beam="1">  1        2 0.26956937E+00 0.67478252E+03</pdfrwt>
<pdfrwt beam="2">  1       -2 0.22708012E+00 0.67478252E+03</pdfrwt>
<totfact> 0.86705633E-01</totfact>
</mgrwt>
</event>
<event>
 4    1  0.7595604E-007  0.9288289E+03  0.7818608E-02  0.9481252E-01
         -2   -1    0    0    0  501 -0.00000000000E+00  0.00000000000E+00  0.29471375569E+03  0.29471375570E+03  0.25500000000E-02 0.  1.
          2   -1    0    0  501    0  0.00000000000E+00 -0.00000000000E+00 -0.24587199094E+04  0.24587199094E+04  0.25500000000E-02 0. -1.
    8880023    1    1    2    0    0  0.36420750015E+03  0.54430312313E+03 -0.77312594178E+03  0.12084895205E+04  0.65864270000E+03 0.  1.
    8880022    1    1    2    0    0 -0.36420750015E+03 -0.54430312313E+03 -0.13908802119E+04  0.15449441446E+04  0.15294330000E+03 0. -1.
<mgrwt>
<rscale>  0 0.85680242E+03</rscale>
<asrwt>0</asrwt>
<pdfrwt beam="1">  1        2 0.37826459E+00 0.92882894E+03</pdfrwt>
<pdfrwt beam="2">  1       -2 0.45340579E-01 0.92882894E+03</pdfrwt>
<totfact> 0.17305033E+01</totfact>
</mgrwt>
</event>
<event>
 4    1  0.7595604E-007  0.7363260E+03  0.7818608E-02  0.9870781E-01
         -2   -1    0    0    0  501 -0.00000000000E+00  0.00000000000E+00  0.15642746657E+03  0.15642746659E+03  0.25500000000E-02 0.  1.
          2   -1    0    0  501    0  0.00000000000E+00 -0.00000000000E+00 -0.24628727654E+04  0.24628727654E+04  0.25500000000E-02 0. -1.
    8880023    1    1    2    0    0 -0.30638004607E+03 -0.12040370754E+03 -0.88012853463E+03  0.11475200343E+04  0.65864270000E+03 0.  1.
    8880022    1    1    2    0    0  0.30638004607E+03  0.12040370754E+03 -0.14263167642E+04  0.14717801977E+04  0.15294330000E+03 0.  0.
<mgrwt>
<rscale>  0 0.61698485E+03</rscale>
<asrwt>0</asrwt>
<pdfrwt beam="1">  1        2 0.37890347E+00 0.73632601E+03</pdfrwt>
<pdfrwt beam="2">  1       -2 0.24065766E-01 0.73632601E+03</pdfrwt>
<totfact> 0.58465184E+01</totfact>
</mgrwt>
</event>
<event>
 4    1  0.7595604E-007  0.7461785E+03  0.7818608E-02  0.9842302E-01
         -2   -1    0    0    0  501 -0.00000000000E+00  0.00000000000E+00  0.16205134921E+03  0.16205134923E+03  0.25500000000E-02 0.  1.
          2   -1    0    0  501    0  0.00000000000E+00 -0.00000000000E+00 -0.22964508000E+04  0.22964508000E+04  0.25500000000E-02 0. -1.
    8880023    1    1    2    0    0  0.34898487301E+03 -0.34376665630E+02 -0.91603140339E+03  0.11814803998E+04  0.65864270000E+03 0.  1.
    8880022    1    1    2    0    0 -0.34898487301E+03  0.34376665630E+02 -0.12183680474E+04  0.12770217495E+04  0.15294330000E+03 0.  0.
<mgrwt>
<rscale>  0 0.63140976E+03</rscale>
<asrwt>0</asrwt>
<pdfrwt beam="1">  1        2 0.35330010E+00 0.74617853E+03</pdfrwt>
<pdfrwt beam="2">  1       -2 0.24930978E-01 0.74617853E+03</pdfrwt>
<totfact> 0.67903167E+01</totfact>
</mgrwt>
</event>
<event>
 4    1  0.7595604E-007  0.7791604E+03  0.7818608E-02  0.9757813E-01
          2   -1    0    0  501    0  0.00000000000E+00  0.00000000000E+00  0.20892893918E+04  0.20892893918E+04  0.25500000000E-02 0. -1.
         -2   -1    0    0    0  501 -0.00000000000E+00 -0.00000000000E+00 -0.81023262371E+03  0.81023262372E+03  0.25500000000E-02 0.  1.
    8880023    1    1    2    0    0  0.40739830864E+03 -0.85482918498E+02 -0.59078265451E+03  0.97781136339E+03  0.65864270000E+03 0.  1.
    8880022    1    1    2    0    0 -0.40739830864E+03  0.85482918498E+02  0.18698394226E+04  0.19217106521E+04  0.15294330000E+03 0.  0.
<mgrwt>
<rscale>  0 0.67676528E+03</rscale>
<asrwt>0</asrwt>
<pdfrwt beam="1">  1        2 0.32142913E+00 0.77916039E+03</pdfrwt>
<pdfrwt beam="2">  1       -2 0.12465117E+00 0.77916039E+03</pdfrwt>
<totfact> 0.29735239E+00</totfact>
</mgrwt>
</event>
<event>
 4    1  0.7595604E-007  0.6975195E+03  0.7818608E-02  0.1000765E+00
         -2   -1    0    0    0  501 -0.00000000000E+00  0.00000000000E+00  0.25393144294E+03  0.25393144295E+03  0.25500000000E-02 0.  1.
          2   -1    0    0  501    0  0.00000000000E+00 -0.00000000000E+00 -0.11556748215E+04  0.11556748215E+04  0.25500000000E-02 0. -1.
    8880023    1    1    2    0    0 -0.15720763647E+03 -0.16735911229E+03 -0.32343195744E+03  0.76885743203E+03  0.65864270000E+03 0.  1.
    8880022    1    1    2    0    0  0.15720763647E+03  0.16735911229E+03 -0.57831142108E+03  0.64074883238E+03  0.15294330000E+03 0.  0.
<mgrwt>
<rscale>  0 0.55316035E+03</rscale>
<asrwt>0</asrwt>
<pdfrwt beam="1">  1        2 0.17779612E+00 0.69751955E+03</pdfrwt>
<pdfrwt beam="2">  1       -2 0.39066377E-01 0.69751955E+03</pdfrwt>
<totfact> 0.12695892E+02</totfact>
</mgrwt>
</event>
<event>
 4    1  0.7595604E-007  0.9658048E+03  0.7818608E-02  0.9427730E-01
          2   -1    0    0  501    0  0.00000000000E+00  0.00000000000E+00  0.14938406270E+04  0.14938406270E+04  0.25500000000E-02 0. -1.
         -2   -1    0    0    0  501 -0.00000000000E+00 -0.00000000000E+00 -0.55715856777E+03  0.55715856778E+03  0.25500000000E-02 0.  1.
    8880023    1    1    2    0    0  0.20009347215E+03 -0.67744469210E+03  0.91120117559E+03  0.13278051427E+04  0.65864270000E+03 0.  0.
    8880022    1    1    2    0    0 -0.20009347215E+03  0.67744469210E+03  0.25480883630E+02  0.72319405203E+03  0.15294330000E+03 0.  0.
<mgrwt>
<rscale>  0 0.89828324E+03</rscale>
<asrwt>0</asrwt>
<pdfrwt beam="1">  1        2 0.22982163E+00 0.96580480E+03</pdfrwt>
<pdfrwt beam="2">  1       -2 0.85716705E-01 0.96580480E+03</pdfrwt>
<totfact> 0.15123808E+01</totfact>
</mgrwt>
</event>
<event>
 4    1  0.7595604E-007  0.7711403E+03  0.7818608E-02  0.9777076E-01
          2   -1    0    0  501    0  0.00000000000E+00  0.00000000000E+00  0.13857869529E+04  0.13857869529E+04  0.25500000000E-02 0. -1.
         -2   -1    0    0    0  501 -0.00000000000E+00 -0.00000000000E+00 -0.26431200809E+03  0.26431200810E+03  0.25500000000E-02 0.  1.
    8880023    1    1    2    0    0  0.38844664021E+03 -0.99781231697E+02  0.61603275813E+03  0.98699222481E+03  0.65864270000E+03 0.  1.
    8880022    1    1    2    0    0 -0.38844664021E+03  0.99781231697E+02  0.50544218670E+03  0.66310673620E+03  0.15294330000E+03 0. -1.
<mgrwt>
<rscale>  0 0.66607426E+03</rscale>
<asrwt>0</asrwt>
<pdfrwt beam="1">  1        2 0.21319800E+00 0.77114025E+03</pdfrwt>
<pdfrwt beam="2">  1       -2 0.40663385E-01 0.77114025E+03</pdfrwt>
<totfact> 0.85773094E+01</totfact>
</mgrwt>
</event>
<event>
 4    1  0.7595604E-007  0.7659190E+03  0.7818608E-02  0.9790018E-01
         -2   -1    0    0    0  501 -0.00000000000E+00  0.00000000000E+00  0.36865755683E+03  0.36865755684E+03  0.25500000000E-02 0.  1.
          2   -1    0    0  501    0  0.00000000000E+00 -0.00000000000E+00 -0.15701118278E+04  0.15701118278E+04  0.25500000000E-02 0. -1.
    8880023    1    1    2    0    0 -0.38980087083E+03 -0.29614815281E+02 -0.11559329343E+03  0.77459264903E+03  0.65864270000E+03 0.  1.
    8880022    1    1    2    0    0  0.38980087083E+03  0.29614815281E+02 -0.10858609775E+04  0.11641767356E+04  0.15294330000E+03 0.  0.
<mgrwt>
<rscale>  0 0.65901002E+03</rscale>
<asrwt>0</asrwt>
<pdfrwt beam="1">  1        2 0.24155566E+00 0.76591903E+03</pdfrwt>
<pdfrwt beam="2">  1       -2 0.56716548E-01 0.76591903E+03</pdfrwt>
<totfact> 0.34546567E+01</totfact>
</mgrwt>
</event>
<event>
 4    1  0.7595604E-007  0.7456486E+03  0.7818608E-02  0.9843788E-01
         -2   -1    0    0    0  501 -0.00000000000E+00  0.00000000000E+00  0.59957224178E+03  0.59957224178E+03  0.25500000000E-02 0.  1.
          2   -1    0    0  501    0  0.00000000000E+00 -0.00000000000E+00 -0.11910949327E+04  0.11910949327E+04  0.25500000000E-02 0. -1.
    8880023    1    1    2    0    0 -0.32504471682E+03  0.12855965335E+03  0.31322074193E+03  0.80876392838E+03  0.65864270000E+03 0.  1.
    8880022    1    1    2    0    0  0.32504471682E+03 -0.12855965335E+03 -0.90474343284E+03  0.98190324609E+03  0.15294330000E+03 0.  0.
<mgrwt>
<rscale>  0 0.63064634E+03</rscale>
<asrwt>0</asrwt>
<pdfrwt beam="1">  1        2 0.18324537E+00 0.74564862E+03</pdfrwt>
<pdfrwt beam="2">  1       -2 0.92241883E-01 0.74564862E+03</pdfrwt>
<totfact> 0.19515102E+01</totfact>
</mgrwt>
</event>
<event>
 4    1  0.7595604E-007  0.7050363E+03  0.7818608E-02  0.9976917E-01
          2   -1    0    0  501    0  0.00000000000E+00  0.00000000000E+00  0.10103090357E+04  0.10103090357E+04  0.25500000000E-02 0. -1.
         -2   -1    0    0    0  501 -0.00000000000E+00 -0.00000000000E+00 -0.56565617159E+03  0.56565617160E+03  0.25500000000E-02 0.  1.
    8880023    1    1    2    0    0 -0.24894887951E+03 -0.35922256171E+02 -0.30680944823E+03  0.76890064175E+03  0.65864270000E+03 0.  0.
    8880022    1    1    2    0    0  0.24894887951E+03  0.35922256171E+02  0.75146231237E+03  0.80706456559E+03  0.15294330000E+03 0.  0.
<mgrwt>
<rscale>  0 0.56674074E+03</rscale>
<asrwt>0</asrwt>
<pdfrwt beam="1">  1        2 0.15543216E+00 0.70503628E+03</pdfrwt>
<pdfrwt beam="2">  1       -2 0.87024028E-01 0.70503628E+03</pdfrwt>
<totfact> 0.28917903E+01</totfact>
</mgrwt>
</event>
<event>
 4    1  0.7595604E-007  0.7392060E+03  0.7818608E-02  0.9862266E-01
          2   -1    0    0  501    0  0.00000000000E+00  0.00000000000E+00  0.98214612634E+03  0.98214612635E+03  0.25500000000E-02 0. -1.
         -2   -1    0    0    0  501 -0.00000000000E+00 -0.00000000000E+00 -0.32777935603E+03  0.32777935604E+03  0.25500000000E-02 0.  1.
    8880023    1    1    2    0    0 -0.29614243676E+03  0.15784450603E+03  0.29777165986E+03  0.79692747387E+03  0.65864270000E+03 0. -1.
    8880022    1    1    2    0    0  0.29614243676E+03 -0.15784450603E+03  0.35659511045E+03  0.51299800852E+03  0.15294330000E+03 0.  1.
<mgrwt>
<rscale>  0 0.62125401E+03</rscale>
<asrwt>0</asrwt>
<pdfrwt beam="1">  1        2 0.15109940E+00 0.73920595E+03</pdfrwt>
<pdfrwt beam="2">  1       -2 0.50427593E-01 0.73920595E+03</pdfrwt>
<totfact> 0.97573082E+01</totfact>
</mgrwt>
</event>
<event>
 4    1  0.7595604E-007  0.7260722E+03  0.7818608E-02  0.9902551E-01
          2   -1    0    0  501    0  0.00000000000E+00  0.00000000000E+00  0.12515576035E+04  0.12515576035E+04  0.25500000000E-02 0. -1.
         -2   -1    0    0    0  501 -0.00000000000E+00 -0.00000000000E+00 -0.15304047453E+04  0.15304047453E+04  0.25500000000E-02 0.  1.
    8880023    1    1    2    0    0  0.27646480391E+03  0.13014572070E+03 -0.14177744761E+04  0.15928795836E+04  0.65864270000E+03 0.  1.
    8880022    1    1    2    0    0 -0.27646480391E+03 -0.13014572070E+03  0.11389273344E+04  0.11890827651E+04  0.15294330000E+03 0.  0.
<mgrwt>
<rscale>  0 0.60137827E+03</rscale>
<asrwt>0</asrwt>
<pdfrwt beam="1">  1        2 0.19254732E+00 0.72607224E+03</pdfrwt>
<pdfrwt beam="2">  1       -2 0.23544688E+00 0.72607224E+03</pdfrwt>
<totfact> 0.14499001E+00</totfact>
</mgrwt>
</event>
<event>
 4    1  0.7595604E-007  0.7692160E+03  0.7818608E-02  0.9781807E-01
          2   -1    0    0  501    0  0.00000000000E+00  0.00000000000E+00  0.16545296952E+04  0.16545296952E+04  0.25500000000E-02 0. -1.
         -2   -1    0    0    0  501 -0.00000000000E+00 -0.00000000000E+00 -0.25944924236E+03  0.25944924238E+03  0.25500000000E-02 0.  1.
    8880023    1    1    2    0    0  0.39611793168E+03  0.31201872480E+02  0.48532430055E+03  0.90952342225E+03  0.65864270000E+03 0.  1.
    8880022    1    1    2    0    0 -0.39611793168E+03 -0.31201872480E+02  0.90975615226E+03  0.10044555153E+04  0.15294330000E+03 0. -1.
<mgrwt>
<rscale>  0 0.66348077E+03</rscale>
<asrwt>0</asrwt>
<pdfrwt beam="1">  1        2 0.25454303E+00 0.76921595E+03</pdfrwt>
<pdfrwt beam="2">  1       -2 0.39915268E-01 0.76921595E+03</pdfrwt>
<totfact> 0.63029276E+01</totfact>
</mgrwt>
</event>
<event>
 4    1  0.7595604E-007  0.8768946E+03  0.7818608E-02  0.9564190E-01
         -2   -1    0    0    0  501 -0.00000000000E+00  0.00000000000E+00  0.18080813510E+04  0.18080813510E+04  0.25500000000E-02 0.  1.
          2   -1    0    0  501    0  0.00000000000E+00 -0.00000000000E+00 -0.42487296297E+03  0.42487296298E+03  0.25500000000E-02 0. -1.
    8880023    1    1    2    0    0  0.22002339273E+03 -0.53546576578E+03  0.13789725392E+04  0.16341693149E+04  0.65864270000E+03 0.  0.
    8880022    1    1    2    0    0 -0.22002339273E+03  0.53546576578E+03  0.42358488286E+01  0.59878499906E+03  0.15294330000E+03 0.  1.
<mgrwt>
<rscale>  0 0.79712338E+03</rscale>
<asrwt>0</asrwt>
<pdfrwt beam="1">  1        2 0.65365070E-01 0.87689457E+03</pdfrwt>
<pdfrwt beam="2">  1       -2 0.27816637E+00 0.87689457E+03</pdfrwt>
<totfact> 0.32684332E+00</totfact>
</mgrwt>
</event>
<event>
 4    1  0.7595604E-007  0.8101089E+03  0.7818608E-02  0.9689350E-01
         -2   -1    0    0    0  501 -0.00000000000E+00  0.00000000000E+00  0.45999647058E+03  0.45999647059E+03  0.25500000000E-02 0.  1.
          2   -1    0    0  501    0  0.00000000000E+00 -0.00000000000E+00 -0.15849111766E+04  0.15849111766E+04  0.25500000000E-02 0. -1.
    8880023    1    1    2    0    0 -0.45432938499E+03  0.12669246797E+03  0.59330061471E+01  0.81013059338E+03  0.65864270000E+03 0.  1.
    8880022    1    1    2    0    0  0.45432938499E+03 -0.12669246797E+03 -0.11308477122E+04  0.12347770539E+04  0.15294330000E+03 0.  0.
<mgrwt>
<rscale>  0 0.71654430E+03</rscale>
<asrwt>0</asrwt>
<pdfrwt beam="1">  1        2 0.24383249E+00 0.81010887E+03</pdfrwt>
<pdfrwt beam="2">  1       -2 0.70768689E-01 0.81010887E+03</pdfrwt>
<totfact> 0.21012735E+01</totfact>
</mgrwt>
</event>
<event>
 4    1  0.7595604E-007  0.7401129E+03  0.7818608E-02  0.9859618E-01
         -2   -1    0    0    0  501 -0.00000000000E+00  0.00000000000E+00  0.49632204387E+03  0.49632204388E+03  0.25500000000E-02 0.  1.
          2   -1    0    0  501    0  0.00000000000E+00 -0.00000000000E+00 -0.94009242134E+03  0.94009242134E+03  0.25500000000E-02 0. -1.
    8880023    1    1    2    0    0 -0.33592123314E+03 -0.33374465297E+02  0.13189069738E+03  0.75177276629E+03  0.65864270000E+03 0.  1.
    8880022    1    1    2    0    0  0.33592123314E+03  0.33374465297E+02 -0.57566107485E+03  0.68464169894E+03  0.15294330000E+03 0.  0.
<mgrwt>
<rscale>  0 0.62258910E+03</rscale>
<asrwt>0</asrwt>
<pdfrwt beam="1">  1        2 0.14462960E+00 0.74011292E+03</pdfrwt>
<pdfrwt beam="2">  1       -2 0.76357237E-01 0.74011292E+03</pdfrwt>
<totfact> 0.42967095E+01</totfact>
</mgrwt>
</event>
<event>
 4    1  0.7595604E-007  0.6850089E+03  0.7818608E-02  0.1006621E+00
          2   -1    0    0  501    0  0.00000000000E+00  0.00000000000E+00  0.98472481347E+03  0.98472481347E+03  0.25500000000E-02 0. -1.
         -2   -1    0    0    0  501 -0.00000000000E+00 -0.00000000000E+00 -0.21855777961E+03  0.21855777963E+03  0.25500000000E-02 0.  1.
    8880023    1    1    2    0    0  0.94697864751E+02  0.16266335381E+03  0.55227023349E+03  0.87990889831E+03  0.65864270000E+03 0.  0.
    8880022    1    1    2    0    0 -0.94697864751E+02 -0.16266335381E+03  0.21389680036E+03  0.32337369479E+03  0.15294330000E+03 0. -1.
<mgrwt>
<rscale>  0 0.52839855E+03</rscale>
<asrwt>0</asrwt>
<pdfrwt beam="1">  1        2 0.15149612E+00 0.68500895E+03</pdfrwt>
<pdfrwt beam="2">  1       -2 0.33624274E-01 0.68500895E+03</pdfrwt>
<totfact> 0.21596728E+02</totfact>
</mgrwt>
</event>
<event>
 4    1  0.7595604E-007  0.7153095E+03  0.7818608E-02  0.9938789E-01
          2   -1    0    0  501    0  0.00000000000E+00  0.00000000000E+00  0.16015183426E+04  0.16015183426E+04  0.25500000000E-02 0. -1.
         -2   -1    0    0    0  501 -0.00000000000E+00 -0.00000000000E+00 -0.42403630725E+03  0.42403630725E+03  0.25500000000E-02 0.  1.
    8880023    1    1    2    0    0 -0.27612780162E+03 -0.40135417820E+02 -0.87981098636E+02  0.72069986442E+03  0.65864270000E+03 0.  1.
    8880022    1    1    2    0    0  0.27612780162E+03  0.40135417820E+02  0.12654631340E+04  0.13048547854E+04  0.15294330000E+03 0.  0.
<mgrwt>
<rscale>  0 0.58417687E+03</rscale>
<asrwt>0</asrwt>
<pdfrwt beam="1">  1        2 0.24638744E+00 0.71530946E+03</pdfrwt>
<pdfrwt beam="2">  1       -2 0.65236355E-01 0.71530946E+03</pdfrwt>
<totfact> 0.24829869E+01</totfact>
</mgrwt>
</event>
<event>
 4    1  0.7595604E-007  0.1006713E+04  0.7818608E-02  0.9372827E-01
         -2   -1    0    0    0  501 -0.00000000000E+00  0.00000000000E+00  0.68688974195E+03  0.68688974195E+03  0.25500000000E-02 0.  1.
          2   -1    0    0  501    0  0.00000000000E+00 -0.00000000000E+00 -0.29507743705E+04  0.29507743705E+04  0.25500000000E-02 0. -1.
    8880023    1    1    2    0    0 -0.51736775483E+03  0.55856257354E+03  0.22405546200E+03  0.10313450434E+04  0.65864270000E+03 0.  1.
    8880022    1    1    2    0    0  0.51736775483E+03 -0.55856257354E+03 -0.24879400906E+04  0.26063190690E+04  0.15294330000E+03 0.  0.
<mgrwt>
<rscale>  0 0.94346071E+03</rscale>
<asrwt>0</asrwt>
<pdfrwt beam="1">  1        2 0.45396528E+00 0.10067133E+04</pdfrwt>
<pdfrwt beam="2">  1       -2 0.10567535E+00 0.10067133E+04</pdfrwt>
<totfact> 0.13755007E+00</totfact>
</mgrwt>
</event>
<event>
 4    1  0.7595604E-007  0.7367196E+03  0.7818608E-02  0.9869608E-01
         -2   -1    0    0    0  501 -0.00000000000E+00  0.00000000000E+00  0.83516435616E+03  0.83516435616E+03  0.25500000000E-02 0.  1.
          2   -1    0    0  501    0  0.00000000000E+00 -0.00000000000E+00 -0.55616669110E+03  0.55616669110E+03  0.25500000000E-02 0. -1.
    8880023    1    1    2    0    0  0.30519860597E+03  0.12569570032E+03  0.56512639159E+03  0.92850613509E+03  0.65864270000E+03 0.  0.
    8880022    1    1    2    0    0 -0.30519860597E+03 -0.12569570032E+03 -0.28612872653E+03  0.46282491217E+03  0.15294330000E+03 0.  0.
<mgrwt>
<rscale>  0 0.61757107E+03</rscale>
<asrwt>0</asrwt>
<pdfrwt beam="1">  1        2 0.85564106E-01 0.73671962E+03</pdfrwt>
<pdfrwt beam="2">  1       -2 0.12848682E+00 0.73671962E+03</pdfrwt>
<totfact> 0.24645134E+01</totfact>
</mgrwt>
</event>
<event>
 4    1  0.7595604E-007  0.8712692E+03  0.7818608E-02  0.9573824E-01
          2   -1    0    0  501    0  0.00000000000E+00  0.00000000000E+00  0.19437579973E+04  0.19437579973E+04  0.25500000000E-02 0. -1.
         -2   -1    0    0    0  501 -0.00000000000E+00 -0.00000000000E+00 -0.60514672346E+03  0.60514672346E+03  0.25500000000E-02 0.  1.
    8880023    1    1    2    0    0  0.83343238191E+02  0.56422836948E+03 -0.20597999711E+03  0.89528638645E+03  0.65864270000E+03 0.  0.
    8880022    1    1    2    0    0 -0.83343238191E+02 -0.56422836948E+03  0.15445912710E+04  0.16536183343E+04  0.15294330000E+03 0.  0.
<mgrwt>
<rscale>  0 0.79053192E+03</rscale>
<asrwt>0</asrwt>
<pdfrwt beam="1">  1        2 0.29903969E+00 0.87126916E+03</pdfrwt>
<pdfrwt beam="2">  1       -2 0.93099495E-01 0.87126916E+03</pdfrwt>
<totfact> 0.71301536E+00</totfact>
</mgrwt>
</event>
<event>
 4    1  0.7595604E-007  0.7060133E+03  0.7818608E-02  0.9973114E-01
          2   -1    0    0  501    0  0.00000000000E+00  0.00000000000E+00  0.19263427453E+04  0.19263427453E+04  0.25500000000E-02 0. -1.
         -2   -1    0    0    0  501 -0.00000000000E+00 -0.00000000000E+00 -0.14409490546E+03  0.14409490548E+03  0.25500000000E-02 0.  1.
    8880023    1    1    2    0    0 -0.14634969578E+03  0.20790930732E+03  0.92737714632E+03  0.11655398283E+04  0.65864270000E+03 0.  1.
    8880022    1    1    2    0    0  0.14634969578E+03 -0.20790930732E+03  0.85487069348E+03  0.90489782247E+03  0.15294330000E+03 0.  0.
<mgrwt>
<rscale>  0 0.56845002E+03</rscale>
<asrwt>0</asrwt>
<pdfrwt beam="1">  1        2 0.29636039E+00 0.70601326E+03</pdfrwt>
<pdfrwt beam="2">  1       -2 0.22168449E-01 0.70601326E+03</pdfrwt>
<totfact> 0.13426813E+02</totfact>
</mgrwt>
</event>
<event>
 4    1  0.7595604E-007  0.8239084E+03  0.7818608E-02  0.9661303E-01
          2   -1    0    0  501    0  0.00000000000E+00  0.00000000000E+00  0.20039904327E+03  0.20039904328E+03  0.25500000000E-02 0. -1.
         -2   -1    0    0    0  501 -0.00000000000E+00 -0.00000000000E+00 -0.24697327522E+04  0.24697327522E+04  0.25500000000E-02 0.  1.
    8880023    1    1    2    0    0  0.42489987189E+03  0.25391906132E+03 -0.17615202303E+04  0.19446795414E+04  0.65864270000E+03 0.  1.
    8880022    1    1    2    0    0 -0.42489987189E+03 -0.25391906132E+03 -0.50781347868E+03  0.72545225410E+03  0.15294330000E+03 0. -1.
<mgrwt>
<rscale>  0 0.73368274E+03</rscale>
<asrwt>0</asrwt>
<pdfrwt beam="1">  1        2 0.30830624E-01 0.82390837E+03</pdfrwt>
<pdfrwt beam="2">  1       -2 0.37995886E+00 0.82390837E+03</pdfrwt>
<totfact> 0.18081858E+00</totfact>
</mgrwt>
</event>
<event>
 4    1  0.7595604E-007  0.7080299E+03  0.7818608E-02  0.9965391E-01
         -2   -1    0    0    0  501 -0.00000000000E+00  0.00000000000E+00  0.15610985714E+03  0.15610985716E+03  0.25500000000E-02 0.  1.
          2   -1    0    0  501    0  0.00000000000E+00 -0.00000000000E+00 -0.32878769563E+04  0.32878769563E+04  0.25500000000E-02 0. -1.
    8880023    1    1    2    0    0 -0.25975284081E+03 -0.49561459367E+01 -0.70709603704E+03  0.10006453485E+04  0.65864270000E+03 0.  1.
    8880022    1    1    2    0    0  0.25975284081E+03  0.49561459367E+01 -0.24246710622E+04  0.24433414650E+04  0.15294330000E+03 0.  0.
<mgrwt>
<rscale>  0 0.57194183E+03</rscale>
<asrwt>0</asrwt>
<pdfrwt beam="1">  1        2 0.50582717E+00 0.70802988E+03</pdfrwt>
<pdfrwt beam="2">  1       -2 0.24016903E-01 0.70802988E+03</pdfrwt>
<totfact> 0.18835829E+01</totfact>
</mgrwt>
</event>
<event>
 4    1  0.7595604E-007  0.8198924E+03  0.7818608E-02  0.9669328E-01
         -2   -1    0    0    0  501 -0.00000000000E+00  0.00000000000E+00  0.53173991604E+03  0.53173991605E+03  0.25500000000E-02 0.  1.
          2   -1    0    0  501    0  0.00000000000E+00 -0.00000000000E+00 -0.14459419942E+04  0.14459419942E+04  0.25500000000E-02 0. -1.
    8880023    1    1    2    0    0 -0.36281947634E+03 -0.32676512661E+03  0.11537604068E+03  0.82797056554E+03  0.65864270000E+03 0.  1.
    8880022    1    1    2    0    0  0.36281947634E+03  0.32676512661E+03 -0.10295781189E+04  0.11497113447E+04  0.15294330000E+03 0.  0.
<mgrwt>
<rscale>  0 0.72872710E+03</rscale>
<asrwt>0</asrwt>
<pdfrwt beam="1">  1        2 0.22245261E+00 0.81989245E+03</pdfrwt>
<pdfrwt beam="2">  1       -2 0.81806142E-01 0.81989245E+03</pdfrwt>
<totfact> 0.18170183E+01</totfact>
</mgrwt>
</event>
<event>
 4    1  0.7595604E-007  0.7443698E+03  0.7818608E-02  0.9847396E-01
         -2   -1    0    0    0  501 -0.00000000000E+00  0.00000000000E+00  0.79387317979E+03  0.79387317979E+03  0.25500000000E-02 0.  1.
          2   -1    0    0  501    0  0.00000000000E+00 -0.00000000000E+00 -0.11035795915E+04  0.11035795915E+04  0.25500000000E-02 0. -1.
    8880023    1    1    2    0    0  0.14357149723E+03  0.31569514082E+03  0.57132364751E+03  0.93834807679E+03  0.65864270000E+03 0.  1.
    8880022    1    1    2    0    0 -0.14357149723E+03 -0.31569514082E+03 -0.88103005923E+03  0.95910469451E+03  0.15294330000E+03 0.  0.
<mgrwt>
<rscale>  0 0.62879852E+03</rscale>
<asrwt>0</asrwt>
<pdfrwt beam="1">  1        2 0.16978148E+00 0.74436980E+03</pdfrwt>
<pdfrwt beam="2">  1       -2 0.12213434E+00 0.74436980E+03</pdfrwt>
<totfact> 0.11225292E+01</totfact>
</mgrwt>
</event>
<event>
 4    1  0.7595604E-007  0.8589924E+03  0.7818608E-02  0.9595358E-01
         -2   -1    0    0    0  501 -0.00000000000E+00  0.00000000000E+00  0.69725832584E+03  0.69725832585E+03  0.25500000000E-02 0.  1.
          2   -1    0    0  501    0  0.00000000000E+00 -0.00000000000E+00 -0.98697817013E+03  0.98697817013E+03  0.25500000000E-02 0. -1.
    8880023    1    1    2    0    0  0.16294983080E+03  0.52678749520E+03  0.25309745368E+03  0.89550334437E+03  0.65864270000E+03 0.  1.
    8880022    1    1    2    0    0 -0.16294983080E+03 -0.52678749520E+03 -0.54281729797E+03  0.78873315161E+03  0.15294330000E+03 0.  0.
<mgrwt>
<rscale>  0 0.77604160E+03</rscale>
<asrwt>0</asrwt>
<pdfrwt beam="1">  1        2 0.15184280E+00 0.85899239E+03</pdfrwt>
<pdfrwt beam="2">  1       -2 0.10727051E+00 0.85899239E+03</pdfrwt>
<totfact> 0.18029519E+01</totfact>
</mgrwt>
</event>
<event>
 4    1  0.7595604E-007  0.7036188E+03  0.7818608E-02  0.9982508E-01
         -2   -1    0    0    0  501 -0.00000000000E+00  0.00000000000E+00  0.15858252957E+03  0.15858252959E+03  0.25500000000E-02 0.  1.
          2   -1    0    0  501    0  0.00000000000E+00 -0.00000000000E+00 -0.17874297322E+04  0.17874297322E+04  0.25500000000E-02 0. -1.
    8880023    1    1    2    0    0  0.23707426021E+03 -0.71168474720E+02 -0.78887764068E+03  0.10570748767E+04  0.65864270000E+03 0.  0.
    8880022    1    1    2    0    0 -0.23707426021E+03  0.71168474720E+02 -0.83996956196E+03  0.88893738513E+03  0.15294330000E+03 0.  0.
<mgrwt>
<rscale>  0 0.56423934E+03</rscale>
<asrwt>0</asrwt>
<pdfrwt beam="1">  1        2 0.27498917E+00 0.70361876E+03</pdfrwt>
<pdfrwt beam="2">  1       -2 0.24397314E-01 0.70361876E+03</pdfrwt>
<totfact> 0.13471296E+02</totfact>
</mgrwt>
</event>
<event>
 4    1  0.7595604E-007  0.7093385E+03  0.7818608E-02  0.9960466E-01
          2   -1    0    0  501    0  0.00000000000E+00  0.00000000000E+00  0.58265354825E+03  0.58265354825E+03  0.25500000000E-02 0. -1.
         -2   -1    0    0    0  501 -0.00000000000E+00 -0.00000000000E+00 -0.19108137588E+04  0.19108137588E+04  0.25500000000E-02 0.  1.
    8880023    1    1    2    0    0 -0.47182997366E+02 -0.25908422452E+03 -0.17983952063E+04  0.19332321110E+04  0.65864270000E+03 0.  1.
    8880022    1    1    2    0    0  0.47182997366E+02  0.25908422452E+03  0.47023499577E+03  0.56023519605E+03  0.15294330000E+03 0.  0.
<mgrwt>
<rscale>  0 0.57418257E+03</rscale>
<asrwt>0</asrwt>
<pdfrwt beam="1">  1        2 0.89639008E-01 0.70933848E+03</pdfrwt>
<pdfrwt beam="2">  1       -2 0.29397135E+00 0.70933848E+03</pdfrwt>
<totfact> 0.18626208E+00</totfact>
</mgrwt>
</event>
<event>
 4    1  0.7595604E-007  0.6686400E+03  0.7818608E-02  0.1016657E+00
          2   -1    0    0  501    0  0.00000000000E+00  0.00000000000E+00  0.96695746609E+03  0.96695746609E+03  0.25500000000E-02 0. -1.
         -2   -1    0    0    0  501 -0.00000000000E+00 -0.00000000000E+00 -0.56535969348E+03  0.56535969349E+03  0.25500000000E-02 0.  1.
    8880023    1    1    2    0    0  0.10916131943E+03 -0.36784432833E+02 -0.35140149147E+03  0.75535587813E+03  0.65864270000E+03 0.  1.
    8880022    1    1    2    0    0 -0.10916131943E+03  0.36784432833E+02  0.75299926407E+03  0.77696128145E+03  0.15294330000E+03 0.  0.
<mgrwt>
<rscale>  0 0.48912486E+03</rscale>
<asrwt>0</asrwt>
<pdfrwt beam="1">  1        2 0.14876269E+00 0.66864003E+03</pdfrwt>
<pdfrwt beam="2">  1       -2 0.86978415E-01 0.66864003E+03</pdfrwt>
<totfact> 0.30980768E+01</totfact>
</mgrwt>
</event>
<event>
 4    1  0.7595604E-007  0.6685452E+03  0.7818608E-02  0.1016728E+00
          2   -1    0    0  501    0  0.00000000000E+00  0.00000000000E+00  0.13397926303E+04  0.13397926303E+04  0.25500000000E-02 0. -1.
         -2   -1    0    0    0  501 -0.00000000000E+00 -0.00000000000E+00 -0.16692021142E+03  0.16692021144E+03  0.25500000000E-02 0.  1.
    8880023    1    1    2    0    0 -0.62425034868E+02  0.96153786169E+02  0.58434736097E+03  0.88792706914E+03  0.65864270000E+03 0.  1.
    8880022    1    1    2    0    0  0.62425034868E+02 -0.96153786169E+02  0.58852505795E+03  0.61878577264E+03  0.15294330000E+03 0.  0.
<mgrwt>
<rscale>  0 0.48886095E+03</rscale>
<asrwt>0</asrwt>
<pdfrwt beam="1">  1        2 0.20612194E+00 0.66854517E+03</pdfrwt>
<pdfrwt beam="2">  1       -2 0.25680032E-01 0.66854517E+03</pdfrwt>
<totfact> 0.21790767E+02</totfact>
</mgrwt>
</event>
<event>
 4    1  0.7884597E-007  0.7181048E+03  0.7818608E-02  0.9929051E-01
         -2   -1    0    0    0  501 -0.00000000000E+00  0.00000000000E+00  0.56562546225E+03  0.56562546226E+03  0.25500000000E-02 0.  1.
          2   -1    0    0  501    0  0.00000000000E+00 -0.00000000000E+00 -0.12626566617E+04  0.12626566617E+04  0.25500000000E-02 0. -1.
    8880023    1    1    2    0    0  0.19900418222E+01 -0.28611257122E+03  0.30115406718E+03  0.77869656614E+03  0.65864270000E+03 0.  0.
    8880022    1    1    2    0    0 -0.19900418222E+01  0.28611257122E+03 -0.99818526667E+03  0.10495855579E+04  0.15294330000E+03 0.  0.
<mgrwt>
<rscale>  0 0.58873758E+03</rscale>
<asrwt>0</asrwt>
<pdfrwt beam="1">  1        2 0.19425487E+00 0.71810485E+03</pdfrwt>
<pdfrwt beam="2">  1       -2 0.87019302E-01 0.71810485E+03</pdfrwt>
<totfact> 0.20326812E+01</totfact>
</mgrwt>
</event>
<event>
 4    1  0.7595604E-007  0.8445216E+03  0.7818608E-02  0.9621713E-01
         -2   -1    0    0    0  501 -0.00000000000E+00  0.00000000000E+00  0.12925025763E+03  0.12925025765E+03  0.25500000000E-02 0.  1.
          2   -1    0    0  501    0  0.00000000000E+00 -0.00000000000E+00 -0.37775381634E+04  0.37775381634E+04  0.25500000000E-02 0. -1.
    8880023    1    1    2    0    0 -0.19737906550E+03 -0.49035503427E+03 -0.23261745159E+04  0.24747332462E+04  0.65864270000E+03 0.  1.
    8880022    1    1    2    0    0  0.19737906550E+03  0.49035503427E+03 -0.13221133899E+04  0.14320551749E+04  0.15294330000E+03 0. -1.
<mgrwt>
<rscale>  0 0.75875618E+03</rscale>
<asrwt>0</asrwt>
<pdfrwt beam="1">  1        2 0.58115963E+00 0.84452162E+03</pdfrwt>
<pdfrwt beam="2">  1       -2 0.19884658E-01 0.84452162E+03</pdfrwt>
<totfact> 0.11801642E+01</totfact>
</mgrwt>
</event>
<event>
 4    1  0.7595604E-007  0.6801835E+03  0.7818608E-02  0.1009220E+00
         -2   -1    0    0    0  501 -0.00000000000E+00  0.00000000000E+00  0.31092127124E+03  0.31092127125E+03  0.25500000000E-02 0.  1.
          2   -1    0    0  501    0  0.00000000000E+00 -0.00000000000E+00 -0.17633833627E+04  0.17633833627E+04  0.25500000000E-02 0. -1.
    8880023    1    1    2    0    0  0.16662311293E+03  0.32803680404E+02 -0.82220633476E+02  0.68513486413E+03  0.65864270000E+03 0.  1.
    8880022    1    1    2    0    0 -0.16662311293E+03 -0.32803680404E+02 -0.13702414580E+04  0.13891697698E+04  0.15294330000E+03 0.  0.
<mgrwt>
<rscale>  0 0.51785788E+03</rscale>
<asrwt>0</asrwt>
<pdfrwt beam="1">  1        2 0.27128974E+00 0.68018347E+03</pdfrwt>
<pdfrwt beam="2">  1       -2 0.47834043E-01 0.68018347E+03</pdfrwt>
<totfact> 0.38791719E+01</totfact>
</mgrwt>
</event>
<event>
 4    1  0.7595604E-007  0.6677791E+03  0.7818608E-02  0.1017308E+00
         -2   -1    0    0    0  501 -0.00000000000E+00  0.00000000000E+00  0.11583765968E+03  0.11583765971E+03  0.25500000000E-02 0.  1.
          2   -1    0    0  501    0  0.00000000000E+00 -0.00000000000E+00 -0.36697583631E+04  0.36697583631E+04  0.25500000000E-02 0. -1.
    8880023    1    1    2    0    0  0.10498555470E+03  0.33116572579E+02 -0.87821856861E+03  0.11032663933E+04  0.65864270000E+03 0.  1.
    8880022    1    1    2    0    0 -0.10498555470E+03 -0.33116572579E+02 -0.26757021348E+04  0.26823296295E+04  0.15294330000E+03 0.  0.
<mgrwt>
<rscale>  0 0.48670850E+03</rscale>
<asrwt>0</asrwt>
<pdfrwt beam="1">  1        2 0.56457812E+00 0.66777907E+03</pdfrwt>
<pdfrwt beam="2">  1       -2 0.17821181E-01 0.66777907E+03</pdfrwt>
<totfact> 0.17663584E+01</totfact>
</mgrwt>
</event>
<event>
 4    1  0.7595604E-007  0.1064129E+04  0.7818608E-02  0.9302086E-01
         -2   -1    0    0    0  501 -0.00000000000E+00  0.00000000000E+00  0.15186101700E+04  0.15186101700E+04  0.25500000000E-02 0.  1.
          2   -1    0    0  501    0  0.00000000000E+00 -0.00000000000E+00 -0.11697478432E+04  0.11697478432E+04  0.25500000000E-02 0. -1.
    8880023    1    1    2    0    0 -0.34367294605E+03  0.76187254729E+03  0.11171385443E+04  0.15428446472E+04  0.65864270000E+03 0.  1.
    8880022    1    1    2    0    0  0.34367294605E+03 -0.76187254729E+03 -0.76827621745E+03  0.11455133659E+04  0.15294330000E+03 0.  0.
<mgrwt>
<rscale>  0 0.10059106E+04</rscale>
<asrwt>0</asrwt>
<pdfrwt beam="1">  1        2 0.17996121E+00 0.10641293E+04</pdfrwt>
<pdfrwt beam="2">  1       -2 0.23363233E+00 0.10641293E+04</pdfrwt>
<totfact> 0.15818966E+00</totfact>
</mgrwt>
</event>
<event>
 4    1  0.7595604E-007  0.6926419E+03  0.7818608E-02  0.1002921E+00
         -2   -1    0    0    0  501 -0.00000000000E+00  0.00000000000E+00  0.12546362143E+03  0.12546362146E+03  0.25500000000E-02 0.  1.
          2   -1    0    0  501    0  0.00000000000E+00 -0.00000000000E+00 -0.28168670564E+04  0.28168670564E+04  0.25500000000E-02 0. -1.
    8880023    1    1    2    0    0  0.84453936117E+02  0.19700277187E+03 -0.92064856474E+03  0.11521052667E+04  0.65864270000E+03 0.  1.
    8880022    1    1    2    0    0 -0.84453936117E+02 -0.19700277187E+03 -0.17707548703E+04  0.17902254112E+04  0.15294330000E+03 0.  0.
<mgrwt>
<rscale>  0 0.54387614E+03</rscale>
<asrwt>0</asrwt>
<pdfrwt beam="1">  1        2 0.43336412E+00 0.69264187E+03</pdfrwt>
<pdfrwt beam="2">  1       -2 0.19302098E-01 0.69264187E+03</pdfrwt>
<totfact> 0.54274054E+01</totfact>
</mgrwt>
</event>
<event>
 4    1  0.7595604E-007  0.8574237E+03  0.7818608E-02  0.9598163E-01
          2   -1    0    0  501    0  0.00000000000E+00  0.00000000000E+00  0.14219546596E+04  0.14219546596E+04  0.25500000000E-02 0. -1.
         -2   -1    0    0    0  501 -0.00000000000E+00 -0.00000000000E+00 -0.89395120407E+03  0.89395120407E+03  0.25500000000E-02 0.  1.
    8880023    1    1    2    0    0 -0.52531085395E+03  0.15941654284E+03 -0.60382722123E+03  0.10487052240E+04  0.65864270000E+03 0.  1.
    8880022    1    1    2    0    0  0.52531085395E+03 -0.15941654284E+03  0.11318306768E+04  0.12672006397E+04  0.15294330000E+03 0.  0.
<mgrwt>
<rscale>  0 0.77417898E+03</rscale>
<asrwt>0</asrwt>
<pdfrwt beam="1">  1        2 0.21876225E+00 0.85742366E+03</pdfrwt>
<pdfrwt beam="2">  1       -2 0.13753096E+00 0.85742366E+03</pdfrwt>
<totfact> 0.53372237E+00</totfact>
</mgrwt>
</event>
<event>
 4    1  0.7595604E-007  0.7396963E+03  0.7818608E-02  0.9860833E-01
         -2   -1    0    0    0  501 -0.00000000000E+00  0.00000000000E+00  0.12269828735E+04  0.12269828735E+04  0.25500000000E-02 0.  1.
          2   -1    0    0  501    0  0.00000000000E+00 -0.00000000000E+00 -0.73328918686E+03  0.73328918687E+03  0.25500000000E-02 0. -1.
    8880023    1    1    2    0    0  0.25380995560E+03  0.22118072471E+03  0.10547797169E+04  0.12882976613E+04  0.65864270000E+03 0.  1.
    8880022    1    1    2    0    0 -0.25380995560E+03 -0.22118072471E+03 -0.56108603033E+03  0.67197439906E+03  0.15294330000E+03 0.  0.
<mgrwt>
<rscale>  0 0.62197636E+03</rscale>
<asrwt>0</asrwt>
<pdfrwt beam="1">  1        2 0.11281372E+00 0.73969630E+03</pdfrwt>
<pdfrwt beam="2">  1       -2 0.18876659E+00 0.73969630E+03</pdfrwt>
<totfact> 0.62275631E+00</totfact>
</mgrwt>
</event>
<event>
 4    1  0.7595604E-007  0.1203522E+04  0.7818608E-02  0.9153707E-01
         -2   -1    0    0    0  501 -0.00000000000E+00  0.00000000000E+00  0.92235310115E+03  0.92235310115E+03  0.25500000000E-02 0.  1.
          2   -1    0    0  501    0  0.00000000000E+00 -0.00000000000E+00 -0.22389290791E+04  0.22389290791E+04  0.25500000000E-02 0. -1.
    8880023    1    1    2    0    0  0.53265221290E+03 -0.85494786960E+03 -0.16912205785E+04  0.20757387820E+04  0.65864270000E+03 0. -1.
    8880022    1    1    2    0    0 -0.53265221290E+03  0.85494786960E+03  0.37464460061E+03  0.10855433982E+04  0.15294330000E+03 0.  0.
<mgrwt>
<rscale>  0 0.11544297E+04</rscale>
<asrwt>0</asrwt>
<pdfrwt beam="1">  1        2 0.34445063E+00 0.12035217E+04</pdfrwt>
<pdfrwt beam="2">  1       -2 0.14190048E+00 0.12035217E+04</pdfrwt>
<totfact> 0.16604089E+00</totfact>
</mgrwt>
</event>
<event>
 4    1  0.7595604E-007  0.7696904E+03  0.7818608E-02  0.9780637E-01
         -2   -1    0    0    0  501 -0.00000000000E+00  0.00000000000E+00  0.23320457056E+03  0.23320457057E+03  0.25500000000E-02 0.  1.
          2   -1    0    0  501    0  0.00000000000E+00 -0.00000000000E+00 -0.21008728790E+04  0.21008728790E+04  0.25500000000E-02 0. -1.
    8880023    1    1    2    0    0 -0.64258906502E+02  0.39304431482E+03 -0.54179157088E+03  0.94125520079E+03  0.65864270000E+03 0.  0.
    8880022    1    1    2    0    0  0.64258906502E+02 -0.39304431482E+03 -0.13258767375E+04  0.13928222488E+04  0.15294330000E+03 0.  0.
<mgrwt>
<rscale>  0 0.66412122E+03</rscale>
<asrwt>0</asrwt>
<pdfrwt beam="1">  1        2 0.32321120E+00 0.76969036E+03</pdfrwt>
<pdfrwt beam="2">  1       -2 0.35877628E-01 0.76969036E+03</pdfrwt>
<totfact> 0.44161153E+01</totfact>
</mgrwt>
</event>
<event>
 4    1  0.7595604E-007  0.6876799E+03  0.7818608E-02  0.1005275E+00
         -2   -1    0    0    0  501 -0.00000000000E+00  0.00000000000E+00  0.42662194553E+03  0.42662194553E+03  0.25500000000E-02 0.  1.
          2   -1    0    0  501    0  0.00000000000E+00 -0.00000000000E+00 -0.11829903681E+04  0.11829903681E+04  0.25500000000E-02 0. -1.
    8880023    1    1    2    0    0  0.17540088345E+03 -0.91257402460E+02  0.12019370625E+03  0.69810466028E+03  0.65864270000E+03 0.  1.
    8880022    1    1    2    0    0 -0.17540088345E+03  0.91257402460E+02 -0.87656212884E+03  0.91150765337E+03  0.15294330000E+03 0.  0.
<mgrwt>
<rscale>  0 0.53396370E+03</rscale>
<asrwt>0</asrwt>
<pdfrwt beam="1">  1        2 0.18199852E+00 0.68767986E+03</pdfrwt>
<pdfrwt beam="2">  1       -2 0.65634146E-01 0.68767986E+03</pdfrwt>
<totfact> 0.42466130E+01</totfact>
</mgrwt>
</event>
<event>
 4    1  0.7595604E-007  0.9016631E+03  0.7818608E-02  0.9523367E-01
         -2   -1    0    0    0  501 -0.00000000000E+00  0.00000000000E+00  0.31806515981E+03  0.31806515982E+03  0.25500000000E-02 0.  1.
          2   -1    0    0  501    0  0.00000000000E+00 -0.00000000000E+00 -0.21674624751E+04  0.21674624751E+04  0.25500000000E-02 0. -1.
    8880023    1    1    2    0    0 -0.26324482723E+03 -0.55667619517E+03 -0.59645132667E+03  0.10810877007E+04  0.65864270000E+03 0.  0.
    8880022    1    1    2    0    0  0.26324482723E+03  0.55667619517E+03 -0.12529459887E+04  0.14044399342E+04  0.15294330000E+03 0.  1.
<mgrwt>
<rscale>  0 0.82582776E+03</rscale>
<asrwt>0</asrwt>
<pdfrwt beam="1">  1        2 0.33345576E+00 0.90166315E+03</pdfrwt>
<pdfrwt beam="2">  1       -2 0.48933103E-01 0.90166315E+03</pdfrwt>
<totfact> 0.21669364E+01</totfact>
</mgrwt>
</event>
<event>
 4    1  0.7595604E-007  0.7951975E+03  0.7818608E-02  0.9721278E-01
          2   -1    0    0  501    0  0.00000000000E+00  0.00000000000E+00  0.18591057452E+04  0.18591057452E+04  0.25500000000E-02 0. -1.
         -2   -1    0    0    0  501 -0.00000000000E+00 -0.00000000000E+00 -0.21790651833E+03  0.21790651834E+03  0.25500000000E-02 0.  1.
    8880023    1    1    2    0    0 -0.40072590606E+03  0.19480155366E+03  0.92564901141E+03  0.12203135645E+04  0.65864270000E+03 0.  1.
    8880022    1    1    2    0    0  0.40072590606E+03 -0.19480155366E+03  0.71555021545E+03  0.85669869904E+03  0.15294330000E+03 0. -1.
<mgrwt>
<rscale>  0 0.69763933E+03</rscale>
<asrwt>0</asrwt>
<pdfrwt beam="1">  1        2 0.28601627E+00 0.79519752E+03</pdfrwt>
<pdfrwt beam="2">  1       -2 0.33524080E-01 0.79519752E+03</pdfrwt>
<totfact> 0.67923053E+01</totfact>
</mgrwt>
</event>
<event>
 4    1  0.7595604E-007  0.6589911E+03  0.7818608E-02  0.1025215E+00
         -2   -1    0    0    0  501 -0.00000000000E+00  0.00000000000E+00  0.34271217378E+03  0.34271217379E+03  0.25500000000E-02 0.  1.
          2   -1    0    0  501    0  0.00000000000E+00 -0.00000000000E+00 -0.30208720193E+04  0.30208720193E+04  0.25500000000E-02 0. -1.
    8880023    1    1    2    0    0  0.21171223165E+02 -0.32833663668E+01  0.21663831207E+02  0.65934704749E+03  0.65864270000E+03 0.  0.
    8880022    1    1    2    0    0 -0.21171223165E+02  0.32833663668E+01 -0.26998236767E+04  0.27042371456E+04  0.15294330000E+03 0. -1.
<mgrwt>
<rscale>  0 0.45850827E+03</rscale>
<asrwt>0</asrwt>
<pdfrwt beam="1">  1        2 0.46474952E+00 0.65899105E+03</pdfrwt>
<pdfrwt beam="2">  1       -2 0.52724952E-01 0.65899105E+03</pdfrwt>
<totfact> 0.62260219E+00</totfact>
</mgrwt>
</event>
<event>
 4    1  0.7595604E-007  0.6791389E+03  0.7818608E-02  0.1009815E+00
         -2   -1    0    0    0  501 -0.00000000000E+00  0.00000000000E+00  0.79652798503E+03  0.79652798503E+03  0.25500000000E-02 0.  1.
          2   -1    0    0  501    0  0.00000000000E+00 -0.00000000000E+00 -0.74034330764E+03  0.74034330765E+03  0.25500000000E-02 0. -1.
    8880023    1    1    2    0    0  0.68571480250E+02 -0.15072300954E+03  0.62628177872E+03  0.92382820163E+03  0.65864270000E+03 0.  1.
    8880022    1    1    2    0    0 -0.68571480250E+02  0.15072300954E+03 -0.57009710134E+03  0.61304309104E+03  0.15294330000E+03 0.  0.
<mgrwt>
<rscale>  0 0.51548237E+03</rscale>
<asrwt>0</asrwt>
<pdfrwt beam="1">  1        2 0.11389897E+00 0.67913893E+03</pdfrwt>
<pdfrwt beam="2">  1       -2 0.12254277E+00 0.67913893E+03</pdfrwt>
<totfact> 0.19630361E+01</totfact>
</mgrwt>
</event>
<event>
 4    1  0.7595604E-007  0.7704148E+03  0.7818608E-02  0.9778855E-01
         -2   -1    0    0    0  501 -0.00000000000E+00  0.00000000000E+00  0.45655027291E+03  0.45655027291E+03  0.25500000000E-02 0.  1.
          2   -1    0    0  501    0  0.00000000000E+00 -0.00000000000E+00 -0.20726729473E+04  0.20726729473E+04  0.25500000000E-02 0. -1.
    8880023    1    1    2    0    0  0.23381582045E+03  0.32412782293E+03  0.85012163612E+02  0.77509093513E+03  0.65864270000E+03 0.  1.
    8880022    1    1    2    0    0 -0.23381582045E+03 -0.32412782293E+03 -0.17011348380E+04  0.17541322851E+04  0.15294330000E+03 0.  0.
<mgrwt>
<rscale>  0 0.66509781E+03</rscale>
<asrwt>0</asrwt>
<pdfrwt beam="1">  1        2 0.31887276E+00 0.77041475E+03</pdfrwt>
<pdfrwt beam="2">  1       -2 0.70238505E-01 0.77041475E+03</pdfrwt>
<totfact> 0.11609563E+01</totfact>
</mgrwt>
</event>
<event>
 4    1  0.7595604E-007  0.8490670E+03  0.7818608E-02  0.9613315E-01
         -2   -1    0    0    0  501 -0.00000000000E+00  0.00000000000E+00  0.60706234699E+03  0.60706234700E+03  0.25500000000E-02 0.  1.
          2   -1    0    0  501    0  0.00000000000E+00 -0.00000000000E+00 -0.35068590155E+04  0.35068590155E+04  0.25500000000E-02 0. -1.
    8880023    1    1    2    0    0  0.43748661044E+03 -0.30937036172E+03  0.27353338426E+03  0.89203995067E+03  0.65864270000E+03 0.  1.
    8880022    1    1    2    0    0 -0.43748661044E+03  0.30937036172E+03 -0.31733300528E+04  0.32218814119E+04  0.15294330000E+03 0.  0.
<mgrwt>
<rscale>  0 0.76421139E+03</rscale>
<asrwt>0</asrwt>
<pdfrwt beam="1">  1        2 0.53951676E+00 0.84906699E+03</pdfrwt>
<pdfrwt beam="2">  1       -2 0.93394209E-01 0.84906699E+03</pdfrwt>
<totfact> 0.83033902E-01</totfact>
</mgrwt>
</event>
<event>
 4    1  0.7595604E-007  0.7386108E+03  0.7818608E-02  0.9864012E-01
          2   -1    0    0  501    0  0.00000000000E+00  0.00000000000E+00  0.96574886920E+03  0.96574886920E+03  0.25500000000E-02 0. -1.
         -2   -1    0    0    0  501 -0.00000000000E+00 -0.00000000000E+00 -0.38982947592E+03  0.38982947592E+03  0.25500000000E-02 0.  1.
    8880023    1    1    2    0    0  0.75189479262E+02  0.32570280009E+03  0.86754880649E+02  0.74368836710E+03  0.65864270000E+03 0.  0.
    8880022    1    1    2    0    0 -0.75189479262E+02 -0.32570280009E+03  0.48916451264E+03  0.61188997803E+03  0.15294330000E+03 0.  0.
<mgrwt>
<rscale>  0 0.62037558E+03</rscale>
<asrwt>0</asrwt>
<pdfrwt beam="1">  1        2 0.14857675E+00 0.73861084E+03</pdfrwt>
<pdfrwt beam="2">  1       -2 0.59973767E-01 0.73861084E+03</pdfrwt>
<totfact> 0.69780648E+01</totfact>
</mgrwt>
</event>
<event>
 4    1  0.1054689E-006  0.7032077E+03  0.7818608E-02  0.9984146E-01
          2   -1    0    0  501    0  0.00000000000E+00  0.00000000000E+00  0.17031170702E+04  0.17031170702E+04  0.25500000000E-02 0. -1.
         -2   -1    0    0    0  501 -0.00000000000E+00 -0.00000000000E+00 -0.81232457870E+03  0.81232457871E+03  0.25500000000E-02 0.  1.
    8880023    1    1    2    0    0  0.24112121815E+03 -0.50511344029E+02 -0.64397465196E+03  0.95352210061E+03  0.65864270000E+03 0.  1.
    8880022    1    1    2    0    0 -0.24112121815E+03  0.50511344029E+02  0.15347671434E+04  0.15619195483E+04  0.15294330000E+03 0.  0.
<mgrwt>
<rscale>  0 0.56350906E+03</rscale>
<asrwt>0</asrwt>
<pdfrwt beam="1">  1        2 0.26201801E+00 0.70320768E+03</pdfrwt>
<pdfrwt beam="2">  1       -2 0.12497301E+00 0.70320768E+03</pdfrwt>
<totfact> 0.48611087E+00</totfact>
</mgrwt>
</event>
<event>
 4    1  0.7622237E-007  0.1132296E+04  0.7818608E-02  0.9225922E-01
         -2   -1    0    0    0  501 -0.00000000000E+00  0.00000000000E+00  0.20486102444E+04  0.20486102444E+04  0.25500000000E-02 0.  1.
          2   -1    0    0  501    0  0.00000000000E+00 -0.00000000000E+00 -0.15959948815E+04  0.15959948815E+04  0.25500000000E-02 0. -1.
    8880023    1    1    2    0    0 -0.52289532723E+03  0.75819879971E+03  0.17268293508E+04  0.20649539356E+04  0.65864270000E+03 0.  0.
    8880022    1    1    2    0    0  0.52289532723E+03 -0.75819879971E+03 -0.12742139879E+04  0.15796511904E+04  0.15294330000E+03 0.  0.
<mgrwt>
<rscale>  0 0.10789828E+04</rscale>
<asrwt>0</asrwt>
<pdfrwt beam="1">  1        2 0.24553768E+00 0.11322964E+04</pdfrwt>
<pdfrwt beam="2">  1       -2 0.31517080E+00 0.11322964E+04</pdfrwt>
<totfact> 0.28369526E-01</totfact>
</mgrwt>
</event>
<event>
 4    1  0.7595604E-007  0.1070409E+04  0.7818608E-02  0.9294739E-01
          2   -1    0    0  501    0  0.00000000000E+00  0.00000000000E+00  0.28574387663E+04  0.28574387663E+04  0.25500000000E-02 0. -1.
         -2   -1    0    0    0  501 -0.00000000000E+00 -0.00000000000E+00 -0.16540934474E+04  0.16540934474E+04  0.25500000000E-02 0.  1.
    8880023    1    1    2    0    0  0.75384847231E+03  0.37904981244E+03 -0.14047390137E+04  0.17660883847E+04  0.65864270000E+03 0.  0.
    8880022    1    1    2    0    0 -0.75384847231E+03 -0.37904981244E+03  0.26080843326E+04  0.27454438290E+04  0.15294330000E+03 0.  0.
<mgrwt>
<rscale>  0 0.10126860E+04</rscale>
<asrwt>0</asrwt>
<pdfrwt beam="1">  1        2 0.43960596E+00 0.10704095E+04</pdfrwt>
<pdfrwt beam="2">  1       -2 0.25447592E+00 0.10704095E+04</pdfrwt>
<totfact> 0.12939444E-01</totfact>
</mgrwt>
</event>
<event>
 4    1  0.7595604E-007  0.6871972E+03  0.7818608E-02  0.1005514E+00
          2   -1    0    0  501    0  0.00000000000E+00  0.00000000000E+00  0.97705993731E+03  0.97705993731E+03  0.25500000000E-02 0. -1.
         -2   -1    0    0    0  501 -0.00000000000E+00 -0.00000000000E+00 -0.23012334917E+03  0.23012334919E+03  0.25500000000E-02 0.  1.
    8880023    1    1    2    0    0 -0.62057912953E+02  0.18595313703E+03  0.45722581551E+03  0.82540620689E+03  0.65864270000E+03 0.  0.
    8880022    1    1    2    0    0  0.62057912953E+02 -0.18595313703E+03  0.28971077262E+03  0.38177707961E+03  0.15294330000E+03 0. -1.
<mgrwt>
<rscale>  0 0.53297076E+03</rscale>
<asrwt>0</asrwt>
<pdfrwt beam="1">  1        2 0.15031691E+00 0.68719718E+03</pdfrwt>
<pdfrwt beam="2">  1       -2 0.35403592E-01 0.68719718E+03</pdfrwt>
<totfact> 0.19804627E+02</totfact>
</mgrwt>
</event>
<event>
 4    1  0.7595604E-007  0.8833019E+03  0.7818608E-02  0.9553387E-01
          2   -1    0    0  501    0  0.00000000000E+00  0.00000000000E+00  0.22539783102E+04  0.22539783102E+04  0.25500000000E-02 0. -1.
         -2   -1    0    0    0  501 -0.00000000000E+00 -0.00000000000E+00 -0.26739867812E+03  0.26739867814E+03  0.25500000000E-02 0.  1.
    8880023    1    1    2    0    0 -0.53002818723E+03  0.25589480397E+03  0.81727815084E+03  0.12033976118E+04  0.65864270000E+03 0. -1.
    8880022    1    1    2    0    0  0.53002818723E+03 -0.25589480397E+03  0.11693014812E+04  0.13179793765E+04  0.15294330000E+03 0.  0.
<mgrwt>
<rscale>  0 0.80459675E+03</rscale>
<asrwt>0</asrwt>
<pdfrwt beam="1">  1        2 0.34676589E+00 0.88330189E+03</pdfrwt>
<pdfrwt beam="2">  1       -2 0.41138258E-01 0.88330189E+03</pdfrwt>
<totfact> 0.27502128E+01</totfact>
</mgrwt>
</event>
<event>
 4    1  0.7595604E-007  0.9188218E+03  0.7818608E-02  0.9496468E-01
         -2   -1    0    0    0  501 -0.00000000000E+00  0.00000000000E+00  0.10548959724E+04  0.10548959724E+04  0.25500000000E-02 0.  1.
          2   -1    0    0  501    0  0.00000000000E+00 -0.00000000000E+00 -0.73362022613E+03  0.73362022614E+03  0.25500000000E-02 0. -1.
    8880023    1    1    2    0    0 -0.39741587805E+03 -0.50247781675E+03  0.57362806863E+03  0.10831817501E+04  0.65864270000E+03 0.  0.
    8880022    1    1    2    0    0  0.39741587805E+03  0.50247781675E+03 -0.25235232238E+03  0.70533444839E+03  0.15294330000E+03 0.  0.
<mgrwt>
<rscale>  0 0.84544731E+03</rscale>
<asrwt>0</asrwt>
<pdfrwt beam="1">  1        2 0.11286465E+00 0.91882182E+03</pdfrwt>
<pdfrwt beam="2">  1       -2 0.16229169E+00 0.91882182E+03</pdfrwt>
<totfact> 0.93429098E+00</totfact>
</mgrwt>
</event>
<event>
 4    1  0.7595604E-007  0.7077214E+03  0.7818608E-02  0.9966562E-01
          2   -1    0    0  501    0  0.00000000000E+00  0.00000000000E+00  0.35646500392E+03  0.35646500393E+03  0.25500000000E-02 0. -1.
         -2   -1    0    0    0  501 -0.00000000000E+00 -0.00000000000E+00 -0.73142261987E+03  0.73142261987E+03  0.25500000000E-02 0.  1.
    8880023    1    1    2    0    0 -0.12860241911E+03 -0.22476815160E+03 -0.33986264242E+03  0.78509625279E+03  0.65864270000E+03 0.  1.
    8880022    1    1    2    0    0  0.12860241911E+03  0.22476815160E+03 -0.35094973535E+02  0.30279137101E+03  0.15294330000E+03 0. -1.
<mgrwt>
<rscale>  0 0.57141070E+03</rscale>
<asrwt>0</asrwt>
<pdfrwt beam="1">  1        2 0.54840770E-01 0.70772135E+03</pdfrwt>
<pdfrwt beam="2">  1       -2 0.11252656E+00 0.70772135E+03</pdfrwt>
<totfact> 0.57039001E+01</totfact>
</mgrwt>
</event>
<event>
 4    1  0.7595604E-007  0.9118801E+03  0.7818608E-02  0.9507223E-01
         -2   -1    0    0    0  501 -0.00000000000E+00  0.00000000000E+00  0.66300603918E+03  0.66300603919E+03  0.25500000000E-02 0.  1.
          2   -1    0    0  501    0  0.00000000000E+00 -0.00000000000E+00 -0.23141515976E+04  0.23141515976E+04  0.25500000000E-02 0. -1.
    8880023    1    1    2    0    0  0.31439338625E+02 -0.62986240471E+03  0.26866825926E+03  0.95063553514E+03  0.65864270000E+03 0.  1.
    8880022    1    1    2    0    0 -0.31439338625E+02  0.62986240471E+03 -0.19198138176E+04  0.20265221016E+04  0.15294330000E+03 0.  0.
<mgrwt>
<rscale>  0 0.83753376E+03</rscale>
<asrwt>0</asrwt>
<pdfrwt beam="1">  1        2 0.35602332E+00 0.91188008E+03</pdfrwt>
<pdfrwt beam="2">  1       -2 0.10200093E+00 0.91188008E+03</pdfrwt>
<totfact> 0.35682001E+00</totfact>
</mgrwt>
</event>
<event>
 4    1  0.7595604E-007  0.1421787E+04  0.7818608E-02  0.8966936E-01
         -2   -1    0    0    0  501 -0.00000000000E+00  0.00000000000E+00  0.61554062283E+03  0.61554062283E+03  0.25500000000E-02 0.  1.
          2   -1    0    0  501    0  0.00000000000E+00 -0.00000000000E+00 -0.44085089711E+04  0.44085089711E+04  0.25500000000E-02 0. -1.
    8880023    1    1    2    0    0 -0.11782044529E+04  0.44665783078E+03 -0.52053221672E+03  0.15140782495E+04  0.65864270000E+03 0.  0.
    8880022    1    1    2    0    0  0.11782044529E+04 -0.44665783078E+03 -0.32724361316E+04  0.35099713444E+04  0.15294330000E+03 0.  0.
<mgrwt>
<rscale>  0 0.13820220E+04</rscale>
<asrwt>0</asrwt>
<pdfrwt beam="1">  1        2 0.67823213E+00 0.14217873E+04</pdfrwt>
<pdfrwt beam="2">  1       -2 0.94698560E-01 0.14217873E+04</pdfrwt>
<totfact> 0.14017003E-01</totfact>
</mgrwt>
</event>
<event>
 4    1  0.7595604E-007  0.9436738E+03  0.7818608E-02  0.9459275E-01
          2   -1    0    0  501    0  0.00000000000E+00  0.00000000000E+00  0.89433516325E+03  0.89433516326E+03  0.25500000000E-02 0. -1.
         -2   -1    0    0    0  501 -0.00000000000E+00 -0.00000000000E+00 -0.20295318329E+04  0.20295318329E+04  0.25500000000E-02 0.  1.
    8880023    1    1    2    0    0  0.32477885513E+02 -0.67502239242E+03 -0.17560269878E+04  0.19935272839E+04  0.65864270000E+03 0. -1.
    8880022    1    1    2    0    0 -0.32477885513E+02  0.67502239242E+03  0.62083031816E+03  0.93033971230E+03  0.15294330000E+03 0. -1.
<mgrwt>
<rscale>  0 0.87354057E+03</rscale>
<asrwt>0</asrwt>
<pdfrwt beam="1">  1        2 0.13759003E+00 0.94367380E+03</pdfrwt>
<pdfrwt beam="2">  1       -2 0.31223567E+00 0.94367380E+03</pdfrwt>
<totfact> 0.80223375E-01</totfact>
</mgrwt>
</event>
<event>
 4    1  0.7595604E-007  0.7684331E+03  0.7818608E-02  0.9783745E-01
          2   -1    0    0  501    0  0.00000000000E+00  0.00000000000E+00  0.19379362819E+04  0.19379362819E+04  0.25500000000E-02 0. -1.
         -2   -1    0    0    0  501 -0.00000000000E+00 -0.00000000000E+00 -0.48272815765E+03  0.48272815766E+03  0.25500000000E-02 0.  1.
    8880023    1    1    2    0    0  0.37778104585E+03  0.11815522496E+03 -0.13025579328E+03  0.77939460720E+03  0.65864270000E+03 0.  1.
    8880022    1    1    2    0    0 -0.37778104585E+03 -0.11815522496E+03  0.15854639175E+04  0.16412698323E+04  0.15294330000E+03 0.  0.
<mgrwt>
<rscale>  0 0.66242232E+03</rscale>
<asrwt>0</asrwt>
<pdfrwt beam="1">  1        2 0.29814403E+00 0.76843307E+03</pdfrwt>
<pdfrwt beam="2">  1       -2 0.74265873E-01 0.76843307E+03</pdfrwt>
<totfact> 0.12170942E+01</totfact>
</mgrwt>
</event>
<event>
 4    1  0.7595604E-007  0.1057994E+04  0.7818608E-02  0.9309333E-01
          2   -1    0    0  501    0  0.00000000000E+00  0.00000000000E+00  0.91658416260E+03  0.91658416260E+03  0.25500000000E-02 0. -1.
         -2   -1    0    0    0  501 -0.00000000000E+00 -0.00000000000E+00 -0.18236909611E+04  0.18236909611E+04  0.25500000000E-02 0.  1.
    8880023    1    1    2    0    0  0.78677030015E+03  0.25794097569E+03 -0.14075196892E+04  0.17608131457E+04  0.65864270000E+03 0.  0.
    8880022    1    1    2    0    0 -0.78677030015E+03 -0.25794097569E+03  0.50041289075E+03  0.97946197801E+03  0.15294330000E+03 0.  0.
<mgrwt>
<rscale>  0 0.99928191E+03</rscale>
<asrwt>0</asrwt>
<pdfrwt beam="1">  1        2 0.14101295E+00 0.10579940E+04</pdfrwt>
<pdfrwt beam="2">  1       -2 0.28056784E+00 0.10579940E+04</pdfrwt>
<totfact> 0.11862838E+00</totfact>
</mgrwt>
</event>
<event>
 4    1  0.7595604E-007  0.6633799E+03  0.7818608E-02  0.1020933E+00
         -2   -1    0    0    0  501 -0.00000000000E+00  0.00000000000E+00  0.18938190527E+03  0.18938190529E+03  0.25500000000E-02 0.  1.
          2   -1    0    0  501    0  0.00000000000E+00 -0.00000000000E+00 -0.16463580135E+04  0.16463580135E+04  0.25500000000E-02 0. -1.
    8880023    1    1    2    0    0  0.65848084230E+02  0.43894291883E+02 -0.42132007032E+03  0.78586480197E+03  0.65864270000E+03 0.  1.
    8880022    1    1    2    0    0 -0.65848084230E+02 -0.43894291883E+02 -0.10356560379E+04  0.10498751168E+04  0.15294330000E+03 0.  0.
<mgrwt>
<rscale>  0 0.47351392E+03</rscale>
<asrwt>0</asrwt>
<pdfrwt beam="1">  1        2 0.25328584E+00 0.66337990E+03</pdfrwt>
<pdfrwt beam="2">  1       -2 0.29135679E-01 0.66337990E+03</pdfrwt>
<totfact> 0.11691571E+02</totfact>
</mgrwt>
</event>
<event>
 4    1  0.7595604E-007  0.7429970E+03  0.7818608E-02  0.9851302E-01
          2   -1    0    0  501    0  0.00000000000E+00  0.00000000000E+00  0.23674475033E+03  0.23674475034E+03  0.25500000000E-02 0. -1.
         -2   -1    0    0    0  501 -0.00000000000E+00 -0.00000000000E+00 -0.22320794731E+04  0.22320794731E+04  0.25500000000E-02 0.  1.
    8880023    1    1    2    0    0  0.24856482791E+03  0.23759170275E+03 -0.19536799241E+04  0.20901937094E+04  0.65864270000E+03 0.  1.
    8880022    1    1    2    0    0 -0.24856482791E+03 -0.23759170275E+03 -0.41654798716E+02  0.37863051404E+03  0.15294330000E+03 0.  0.
<mgrwt>
<rscale>  0 0.62680598E+03</rscale>
<asrwt>0</asrwt>
<pdfrwt beam="1">  1        2 0.36422271E-01 0.74299697E+03</pdfrwt>
<pdfrwt beam="2">  1       -2 0.34339683E+00 0.74299697E+03</pdfrwt>
<totfact> 0.25733544E+00</totfact>
</mgrwt>
</event>
<event>
 4    1  0.7595604E-007  0.6614489E+03  0.7818608E-02  0.1022719E+00
         -2   -1    0    0    0  501 -0.00000000000E+00  0.00000000000E+00  0.37992311440E+03  0.37992311440E+03  0.25500000000E-02 0.  1.
          2   -1    0    0  501    0  0.00000000000E+00 -0.00000000000E+00 -0.53888878506E+03  0.53888878507E+03  0.25500000000E-02 0. -1.
    8880023    1    1    2    0    0 -0.17853626933E+02  0.58186933157E+02  0.37488688973E+02  0.66251043709E+03  0.65864270000E+03 0.  1.
    8880022    1    1    2    0    0  0.17853626933E+02 -0.58186933157E+02 -0.19645435964E+03  0.25630146239E+03  0.15294330000E+03 0.  0.
<mgrwt>
<rscale>  0 0.46718149E+03</rscale>
<asrwt>0</asrwt>
<pdfrwt beam="1">  1        2 0.82905967E-01 0.66144892E+03</pdfrwt>
<pdfrwt beam="2">  1       -2 0.58449710E-01 0.66144892E+03</pdfrwt>
<totfact> 0.15663111E+02</totfact>
</mgrwt>
</event>
<event>
 4    1  0.7595604E-007  0.7082821E+03  0.7818608E-02  0.9964436E-01
          2   -1    0    0  501    0  0.00000000000E+00  0.00000000000E+00  0.25277065563E+04  0.25277065564E+04  0.25500000000E-02 0. -1.
         -2   -1    0    0    0  501 -0.00000000000E+00 -0.00000000000E+00 -0.19969496877E+03  0.19969496879E+03  0.25500000000E-02 0.  1.
    8880023    1    1    2    0    0  0.16208428672E+03  0.20391657262E+03  0.48174452116E+03  0.85658699180E+03  0.65864270000E+03 0.  1.
    8880022    1    1    2    0    0 -0.16208428672E+03 -0.20391657262E+03  0.18462670664E+04  0.18708145333E+04  0.15294330000E+03 0.  0.
<mgrwt>
<rscale>  0 0.57237517E+03</rscale>
<asrwt>0</asrwt>
<pdfrwt beam="1">  1        2 0.38887791E+00 0.70828207E+03</pdfrwt>
<pdfrwt beam="2">  1       -2 0.30722305E-01 0.70828207E+03</pdfrwt>
<totfact> 0.34528071E+01</totfact>
</mgrwt>
</event>
<event>
 4    1  0.7595604E-007  0.6777296E+03  0.7818608E-02  0.1010638E+00
         -2   -1    0    0    0  501 -0.00000000000E+00  0.00000000000E+00  0.59703950296E+03  0.59703950297E+03  0.25500000000E-02 0.  1.
          2   -1    0    0  501    0  0.00000000000E+00 -0.00000000000E+00 -0.66987530705E+03  0.66987530705E+03  0.25500000000E-02 0. -1.
    8880023    1    1    2    0    0 -0.74376138103E+02 -0.14133450012E+03  0.36984450888E+03  0.77207669169E+03  0.65864270000E+03 0.  1.
    8880022    1    1    2    0    0  0.74376138103E+02  0.14133450012E+03 -0.44268031297E+03  0.49483811833E+03  0.15294330000E+03 0.  0.
<mgrwt>
<rscale>  0 0.51221790E+03</rscale>
<asrwt>0</asrwt>
<pdfrwt beam="1">  1        2 0.10305774E+00 0.67772963E+03</pdfrwt>
<pdfrwt beam="2">  1       -2 0.91852231E-01 0.67772963E+03</pdfrwt>
<totfact> 0.44476679E+01</totfact>
</mgrwt>
</event>
<event>
 4    1  0.7595604E-007  0.6955253E+03  0.7818608E-02  0.1001630E+00
         -2   -1    0    0    0  501 -0.00000000000E+00  0.00000000000E+00  0.56387864399E+03  0.56387864400E+03  0.25500000000E-02 0.  1.
          2   -1    0    0  501    0  0.00000000000E+00 -0.00000000000E+00 -0.14171928407E+04  0.14171928407E+04  0.25500000000E-02 0. -1.
    8880023    1    1    2    0    0 -0.52882687086E+02 -0.21713757465E+03  0.32809154606E+03  0.76902508007E+03  0.65864270000E+03 0.  1.
    8880022    1    1    2    0    0  0.52882687086E+02  0.21713757465E+03 -0.11814057428E+04  0.12120464047E+04  0.15294330000E+03 0.  0.
<mgrwt>
<rscale>  0 0.54941446E+03</rscale>
<asrwt>0</asrwt>
<pdfrwt beam="1">  1        2 0.21802967E+00 0.69552535E+03</pdfrwt>
<pdfrwt beam="2">  1       -2 0.86750561E-01 0.69552535E+03</pdfrwt>
<totfact> 0.16755345E+01</totfact>
</mgrwt>
</event>
<event>
 4    1  0.7595604E-007  0.7067314E+03  0.7818608E-02  0.9970345E-01
         -2   -1    0    0    0  501 -0.00000000000E+00  0.00000000000E+00  0.14480690078E+04  0.14480690078E+04  0.25500000000E-02 0.  1.
          2   -1    0    0  501    0  0.00000000000E+00 -0.00000000000E+00 -0.23669904325E+03  0.23669904327E+03  0.25500000000E-02 0. -1.
    8880023    1    1    2    0    0  0.97637442738E+02  0.23690931545E+03  0.11919565386E+04  0.13857235258E+04  0.65864270000E+03 0.  1.
    8880022    1    1    2    0    0 -0.97637442738E+02 -0.23690931545E+03  0.19413426026E+02  0.29904452527E+03  0.15294330000E+03 0.  0.
<mgrwt>
<rscale>  0 0.56969905E+03</rscale>
<asrwt>0</asrwt>
<pdfrwt beam="1">  1        2 0.36415238E-01 0.70673142E+03</pdfrwt>
<pdfrwt beam="2">  1       -2 0.22277985E+00 0.70673142E+03</pdfrwt>
<totfact> 0.13918043E+01</totfact>
</mgrwt>
</event>
<event>
 4    1  0.7595604E-007  0.9574228E+03  0.7818608E-02  0.9439514E-01
          2   -1    0    0  501    0  0.00000000000E+00  0.00000000000E+00  0.19037841079E+04  0.19037841079E+04  0.25500000000E-02 0. -1.
         -2   -1    0    0    0  501 -0.00000000000E+00 -0.00000000000E+00 -0.56155096603E+03  0.56155096604E+03  0.25500000000E-02 0.  1.
    8880023    1    1    2    0    0 -0.39824897714E+03  0.56942601144E+03  0.12834749255E+02  0.95750883409E+03  0.65864270000E+03 0.  1.
    8880022    1    1    2    0    0  0.39824897714E+03 -0.56942601144E+03  0.13293983926E+04  0.15078262398E+04  0.15294330000E+03 0. -1.
<mgrwt>
<rscale>  0 0.88893984E+03</rscale>
<asrwt>0</asrwt>
<pdfrwt beam="1">  1        2 0.29288986E+00 0.95742281E+03</pdfrwt>
<pdfrwt beam="2">  1       -2 0.86392457E-01 0.95742281E+03</pdfrwt>
<totfact> 0.88199533E+00</totfact>
</mgrwt>
</event>
<event>
 4    1  0.7595604E-007  0.9685913E+03  0.7818608E-02  0.9423855E-01
          2   -1    0    0  501    0  0.00000000000E+00  0.00000000000E+00  0.12307473085E+04  0.12307473085E+04  0.25500000000E-02 0. -1.
         -2   -1    0    0    0  501 -0.00000000000E+00 -0.00000000000E+00 -0.15805268809E+04  0.15805268809E+04  0.25500000000E-02 0.  1.
    8880023    1    1    2    0    0  0.69336332139E+03  0.15364324506E+03 -0.12962423578E+04  0.16181512286E+04  0.65864270000E+03 0.  1.
    8880022    1    1    2    0    0 -0.69336332139E+03 -0.15364324506E+03  0.94646278542E+03  0.11931229607E+04  0.15294330000E+03 0.  0.
<mgrwt>
<rscale>  0 0.90138229E+03</rscale>
<asrwt>0</asrwt>
<pdfrwt beam="1">  1        2 0.18934574E+00 0.96859132E+03</pdfrwt>
<pdfrwt beam="2">  1       -2 0.24315798E+00 0.96859132E+03</pdfrwt>
<totfact> 0.12865376E+00</totfact>
</mgrwt>
</event>
<event>
 4    1  0.7595604E-007  0.8984892E+03  0.7818608E-02  0.9528461E-01
         -2   -1    0    0    0  501 -0.00000000000E+00  0.00000000000E+00  0.12635443377E+04  0.12635443377E+04  0.25500000000E-02 0.  1.
          2   -1    0    0  501    0  0.00000000000E+00 -0.00000000000E+00 -0.15286002231E+04  0.15286002231E+04  0.25500000000E-02 0. -1.
    8880023    1    1    2    0    0  0.41446985619E+03 -0.44909625455E+03  0.10210219086E+04  0.13600620029E+04  0.65864270000E+03 0.  0.
    8880022    1    1    2    0    0 -0.41446985619E+03  0.44909625455E+03 -0.12860777940E+04  0.14320825579E+04  0.15294330000E+03 0.  0.
<mgrwt>
<rscale>  0 0.82217624E+03</rscale>
<asrwt>0</asrwt>
<pdfrwt beam="1">  1        2 0.23516926E+00 0.89848924E+03</pdfrwt>
<pdfrwt beam="2">  1       -2 0.19439144E+00 0.89848924E+03</pdfrwt>
<totfact> 0.17852573E+00</totfact>
</mgrwt>
</event>
<event>
 4    1  0.7595604E-007  0.1505979E+04  0.7818608E-02  0.8905426E-01
         -2   -1    0    0    0  501 -0.00000000000E+00  0.00000000000E+00  0.17164723911E+04  0.17164723911E+04  0.25500000000E-02 0.  1.
          2   -1    0    0  501    0  0.00000000000E+00 -0.00000000000E+00 -0.20610680197E+04  0.20610680197E+04  0.25500000000E-02 0. -1.
    8880023    1    1    2    0    0 -0.11434935712E+04 -0.72566131151E+03  0.10435169287E+04  0.18321843994E+04  0.65864270000E+03 0.  0.
    8880022    1    1    2    0    0  0.11434935712E+04  0.72566131151E+03 -0.13881125573E+04  0.19453560114E+04  0.15294330000E+03 0.  0.
<mgrwt>
<rscale>  0 0.14688647E+04</rscale>
<asrwt>0</asrwt>
<pdfrwt beam="1">  1        2 0.31708739E+00 0.15059788E+04</pdfrwt>
<pdfrwt beam="2">  1       -2 0.26407268E+00 0.15059788E+04</pdfrwt>
<totfact> 0.30486472E-01</totfact>
</mgrwt>
</event>
<event>
 4    1  0.7595604E-007  0.7156960E+03  0.7818608E-02  0.9937428E-01
          2   -1    0    0  501    0  0.00000000000E+00  0.00000000000E+00  0.23530799219E+03  0.23530799220E+03  0.25500000000E-02 0. -1.
         -2   -1    0    0    0  501 -0.00000000000E+00 -0.00000000000E+00 -0.14002693309E+04  0.14002693309E+04  0.25500000000E-02 0.  1.
    8880023    1    1    2    0    0 -0.25752901025E+03  0.10995153960E+03 -0.10962589683E+04  0.13091999328E+04  0.65864270000E+03 0.  0.
    8880022    1    1    2    0    0  0.25752901025E+03 -0.10995153960E+03 -0.68702370394E+02  0.32637739029E+03  0.15294330000E+03 0.  0.
<mgrwt>
<rscale>  0 0.58481173E+03</rscale>
<asrwt>0</asrwt>
<pdfrwt beam="1">  1        2 0.36201230E-01 0.71569598E+03</pdfrwt>
<pdfrwt beam="2">  1       -2 0.21542605E+00 0.71569598E+03</pdfrwt>
<totfact> 0.15563555E+01</totfact>
</mgrwt>
</event>
<event>
 4    1  0.7595604E-007  0.1006419E+04  0.7818608E-02  0.9373208E-01
          2   -1    0    0  501    0  0.00000000000E+00  0.00000000000E+00  0.45946329667E+03  0.45946329668E+03  0.25500000000E-02 0. -1.
         -2   -1    0    0    0  501 -0.00000000000E+00 -0.00000000000E+00 -0.18463066946E+04  0.18463066946E+04  0.25500000000E-02 0.  1.
    8880023    1    1    2    0    0 -0.52037689071E+03 -0.55522612264E+03 -0.10656002574E+04  0.14657360848E+04  0.65864270000E+03 0. -1.
    8880022    1    1    2    0    0  0.52037689071E+03  0.55522612264E+03 -0.32124314059E+03  0.84003390648E+03  0.15294330000E+03 0.  1.
<mgrwt>
<rscale>  0 0.94313746E+03</rscale>
<asrwt>0</asrwt>
<pdfrwt beam="1">  1        2 0.70686662E-01 0.10064186E+04</pdfrwt>
<pdfrwt beam="2">  1       -2 0.28404718E+00 0.10064186E+04</pdfrwt>
<totfact> 0.27137950E+00</totfact>
</mgrwt>
</event>
<event>
 4    1  0.7595604E-007  0.6914674E+03  0.7818608E-02  0.1003463E+00
          2   -1    0    0  501    0  0.00000000000E+00  0.00000000000E+00  0.97064445685E+03  0.97064445685E+03  0.25500000000E-02 0. -1.
         -2   -1    0    0    0  501 -0.00000000000E+00 -0.00000000000E+00 -0.24545681225E+03  0.24545681226E+03  0.25500000000E-02 0.  1.
    8880023    1    1    2    0    0  0.20952057562E+03 -0.20446366747E+02  0.39719595892E+03  0.79742821719E+03  0.65864270000E+03 0.  0.
    8880022    1    1    2    0    0 -0.20952057562E+03  0.20446366747E+02  0.32799168568E+03  0.41867305193E+03  0.15294330000E+03 0.  0.
<mgrwt>
<rscale>  0 0.54157578E+03</rscale>
<asrwt>0</asrwt>
<pdfrwt beam="1">  1        2 0.14932992E+00 0.69146738E+03</pdfrwt>
<pdfrwt beam="2">  1       -2 0.37762586E-01 0.69146738E+03</pdfrwt>
<totfact> 0.17664203E+02</totfact>
</mgrwt>
</event>
<event>
 4    1  0.7595604E-007  0.7264062E+03  0.7818608E-02  0.9901477E-01
          2   -1    0    0  501    0  0.00000000000E+00  0.00000000000E+00  0.19267277866E+04  0.19267277866E+04  0.25500000000E-02 0. -1.
         -2   -1    0    0    0  501 -0.00000000000E+00 -0.00000000000E+00 -0.32388452240E+03  0.32388452241E+03  0.25500000000E-02 0.  1.
    8880023    1    1    2    0    0 -0.16796077566E+02 -0.30589806772E+03  0.12932028968E+03  0.73782767612E+03  0.65864270000E+03 0.  1.
    8880022    1    1    2    0    0  0.16796077566E+02  0.30589806772E+03  0.14735229745E+04  0.15127846328E+04  0.15294330000E+03 0.  0.
<mgrwt>
<rscale>  0 0.60189751E+03</rscale>
<asrwt>0</asrwt>
<pdfrwt beam="1">  1        2 0.29641965E+00 0.72640618E+03</pdfrwt>
<pdfrwt beam="2">  1       -2 0.49828390E-01 0.72640618E+03</pdfrwt>
<totfact> 0.28927727E+01</totfact>
</mgrwt>
</event>
<event>
 4    1  0.7595604E-007  0.7030551E+03  0.7818608E-02  0.9984756E-01
          2   -1    0    0  501    0  0.00000000000E+00  0.00000000000E+00  0.65348549875E+03  0.65348549875E+03  0.25500000000E-02 0. -1.
         -2   -1    0    0    0  501 -0.00000000000E+00 -0.00000000000E+00 -0.51490742363E+03  0.51490742364E+03  0.25500000000E-02 0.  1.
    8880023    1    1    2    0    0 -0.11993206429E+03 -0.21469174292E+03 -0.19210254638E+03  0.72882771566E+03  0.65864270000E+03 0.  1.
    8880022    1    1    2    0    0  0.11993206429E+03  0.21469174292E+03  0.33068062149E+03  0.43956520673E+03  0.15294330000E+03 0.  0.
<mgrwt>
<rscale>  0 0.56323740E+03</rscale>
<asrwt>0</asrwt>
<pdfrwt beam="1">  1        2 0.10053623E+00 0.70305508E+03</pdfrwt>
<pdfrwt beam="2">  1       -2 0.79216527E-01 0.70305508E+03</pdfrwt>
<totfact> 0.64114393E+01</totfact>
</mgrwt>
</event>
<event>
 4    1  0.7595604E-007  0.6670727E+03  0.7818608E-02  0.1017854E+00
          2   -1    0    0  501    0  0.00000000000E+00  0.00000000000E+00  0.12037425820E+04  0.12037425820E+04  0.25500000000E-02 0. -1.
         -2   -1    0    0    0  501 -0.00000000000E+00 -0.00000000000E+00 -0.18012820310E+03  0.18012820312E+03  0.25500000000E-02 0.  1.
    8880023    1    1    2    0    0  0.39916173179E+02 -0.97889812657E+02  0.51622269346E+03  0.84348787295E+03  0.65864270000E+03 0.  1.
    8880022    1    1    2    0    0 -0.39916173179E+02  0.97889812657E+02  0.50739168548E+03  0.54038291221E+03  0.15294330000E+03 0.  1.
<mgrwt>
<rscale>  0 0.48468898E+03</rscale>
<asrwt>0</asrwt>
<pdfrwt beam="1">  1        2 0.18519117E+00 0.66707265E+03</pdfrwt>
<pdfrwt beam="2">  1       -2 0.27712031E-01 0.66707265E+03</pdfrwt>
<totfact> 0.22745301E+02</totfact>
</mgrwt>
</event>
<event>
 4    1  0.7595604E-007  0.7562103E+03  0.7818608E-02  0.9815019E-01
          2   -1    0    0  501    0  0.00000000000E+00  0.00000000000E+00  0.26304886625E+04  0.26304886625E+04  0.25500000000E-02 0. -1.
         -2   -1    0    0    0  501 -0.00000000000E+00 -0.00000000000E+00 -0.25203120386E+03  0.25203120387E+03  0.25500000000E-02 0.  1.
    8880023    1    1    2    0    0 -0.12503006207E+03  0.34987325876E+03  0.38424191717E+03  0.84823102442E+03  0.65864270000E+03 0.  0.
    8880022    1    1    2    0    0  0.12503006207E+03 -0.34987325876E+03  0.19942155415E+04  0.20342888420E+04  0.15294330000E+03 0.  0.
<mgrwt>
<rscale>  0 0.64562719E+03</rscale>
<asrwt>0</asrwt>
<pdfrwt beam="1">  1        2 0.40469052E+00 0.75621030E+03</pdfrwt>
<pdfrwt beam="2">  1       -2 0.38774036E-01 0.75621030E+03</pdfrwt>
<totfact> 0.19238480E+01</totfact>
</mgrwt>
</event>
<event>
 4    1  0.7595604E-007  0.7082249E+03  0.7818608E-02  0.9964652E-01
          2   -1    0    0  501    0  0.00000000000E+00  0.00000000000E+00  0.87761777594E+03  0.87761777594E+03  0.25500000000E-02 0. -1.
         -2   -1    0    0    0  501 -0.00000000000E+00 -0.00000000000E+00 -0.44659960503E+03  0.44659960504E+03  0.25500000000E-02 0.  1.
    8880023    1    1    2    0    0  0.25451410035E+03  0.54725732024E+02 -0.98125993919E+02  0.71499038453E+03  0.65864270000E+03 0.  0.
    8880022    1    1    2    0    0 -0.25451410035E+03 -0.54725732024E+02  0.52914416482E+03  0.60922699645E+03  0.15294330000E+03 0.  0.
<mgrwt>
<rscale>  0 0.57227703E+03</rscale>
<asrwt>0</asrwt>
<pdfrwt beam="1">  1        2 0.13501812E+00 0.70822492E+03</pdfrwt>
<pdfrwt beam="2">  1       -2 0.68707632E-01 0.70822492E+03</pdfrwt>
<totfact> 0.59827482E+01</totfact>
</mgrwt>
</event>
<event>
 4    1  0.7595604E-007  0.6978313E+03  0.7818608E-02  0.1000632E+00
          2   -1    0    0  501    0  0.00000000000E+00  0.00000000000E+00  0.18438816923E+04  0.18438816923E+04  0.25500000000E-02 0. -1.
         -2   -1    0    0    0  501 -0.00000000000E+00 -0.00000000000E+00 -0.13817027381E+03  0.13817027384E+03  0.25500000000E-02 0.  1.
    8880023    1    1    2    0    0 -0.13512822979E+03  0.18681180557E+03  0.96127083043E+03  0.11878594634E+04  0.65864270000E+03 0.  0.
    8880022    1    1    2    0    0  0.13512822979E+03 -0.18681180557E+03  0.74444058806E+03  0.79419250271E+03  0.15294330000E+03 0.  0.
<mgrwt>
<rscale>  0 0.55374005E+03</rscale>
<asrwt>0</asrwt>
<pdfrwt beam="1">  1        2 0.28367412E+00 0.69783128E+03</pdfrwt>
<pdfrwt beam="2">  1       -2 0.21256964E-01 0.69783128E+03</pdfrwt>
<totfact> 0.16046868E+02</totfact>
</mgrwt>
</event>
<event>
 4    1  0.7595604E-007  0.7995144E+03  0.7818608E-02  0.9711847E-01
          2   -1    0    0  501    0  0.00000000000E+00  0.00000000000E+00  0.87891005197E+03  0.87891005198E+03  0.25500000000E-02 0. -1.
         -2   -1    0    0    0  501 -0.00000000000E+00 -0.00000000000E+00 -0.96626588491E+03  0.96626588492E+03  0.25500000000E-02 0.  1.
    8880023    1    1    2    0    0  0.16120424981E+03 -0.42358729123E+03 -0.70363334863E+03  0.10650460549E+04  0.65864270000E+03 0.  0.
    8880022    1    1    2    0    0 -0.16120424981E+03  0.42358729123E+03  0.61627751569E+03  0.78012988201E+03  0.15294330000E+03 0.  0.
<mgrwt>
<rscale>  0 0.70315782E+03</rscale>
<asrwt>0</asrwt>
<pdfrwt beam="1">  1        2 0.13521693E+00 0.79951436E+03</pdfrwt>
<pdfrwt beam="2">  1       -2 0.14865629E+00 0.79951436E+03</pdfrwt>
<totfact> 0.94047201E+00</totfact>
</mgrwt>
</event>
<event>
 4    1  0.7595604E-007  0.8226963E+03  0.7818608E-02  0.9663714E-01
          2   -1    0    0  501    0  0.00000000000E+00  0.00000000000E+00  0.27172570359E+04  0.27172570359E+04  0.25500000000E-02 0. -1.
         -2   -1    0    0    0  501 -0.00000000000E+00 -0.00000000000E+00 -0.40279832561E+03  0.40279832562E+03  0.25500000000E-02 0.  1.
    8880023    1    1    2    0    0 -0.15030706488E+03  0.46949623749E+03  0.79794374995E+02  0.82655688208E+03  0.65864270000E+03 0.  0.
    8880022    1    1    2    0    0  0.15030706488E+03 -0.46949623749E+03  0.22346643353E+04  0.22934984794E+04  0.15294330000E+03 0.  0.
<mgrwt>
<rscale>  0 0.73218964E+03</rscale>
<asrwt>0</asrwt>
<pdfrwt beam="1">  1        2 0.41803954E+00 0.82269626E+03</pdfrwt>
<pdfrwt beam="2">  1       -2 0.61968974E-01 0.82269626E+03</pdfrwt>
<totfact> 0.65406102E+00</totfact>
</mgrwt>
</event>
<event>
 4    1  0.7595604E-007  0.8974038E+03  0.7818608E-02  0.9530212E-01
          2   -1    0    0  501    0  0.00000000000E+00  0.00000000000E+00  0.94255150580E+03  0.94255150580E+03  0.25500000000E-02 0. -1.
         -2   -1    0    0    0  501 -0.00000000000E+00 -0.00000000000E+00 -0.88012072295E+03  0.88012072295E+03  0.25500000000E-02 0.  1.
    8880023    1    1    2    0    0  0.55323420366E+03  0.25584247084E+03 -0.45727506899E+03  0.10071912177E+04  0.65864270000E+03 0.  0.
    8880022    1    1    2    0    0 -0.55323420366E+03 -0.25584247084E+03  0.51970585183E+03  0.81548101108E+03  0.15294330000E+03 0.  0.
<mgrwt>
<rscale>  0 0.82092581E+03</rscale>
<asrwt>0</asrwt>
<pdfrwt beam="1">  1        2 0.14500792E+00 0.89740384E+03</pdfrwt>
<pdfrwt beam="2">  1       -2 0.13540319E+00 0.89740384E+03</pdfrwt>
<totfact> 0.10763390E+01</totfact>
</mgrwt>
</event>
<event>
 4    1  0.7595604E-007  0.7128430E+03  0.7818608E-02  0.9947592E-01
         -2   -1    0    0    0  501 -0.00000000000E+00  0.00000000000E+00  0.21772761317E+03  0.21772761319E+03  0.25500000000E-02 0.  1.
          2   -1    0    0  501    0  0.00000000000E+00 -0.00000000000E+00 -0.25091782868E+04  0.25091782868E+04  0.25500000000E-02 0. -1.
    8880023    1    1    2    0    0  0.18536335319E+03  0.19993822509E+03 -0.41552230658E+03  0.82510839293E+03  0.65864270000E+03 0.  1.
    8880022    1    1    2    0    0 -0.18536335319E+03 -0.19993822509E+03 -0.18759283670E+04  0.19017975070E+04  0.15294330000E+03 0.  0.
<mgrwt>
<rscale>  0 0.58009210E+03</rscale>
<asrwt>0</asrwt>
<pdfrwt beam="1">  1        2 0.38602741E+00 0.71284295E+03</pdfrwt>
<pdfrwt beam="2">  1       -2 0.33496558E-01 0.71284295E+03</pdfrwt>
<totfact> 0.30059292E+01</totfact>
</mgrwt>
</event>
<event>
 4    1  0.7595604E-007  0.9640330E+03  0.7818608E-02  0.9430205E-01
          2   -1    0    0  501    0  0.00000000000E+00  0.00000000000E+00  0.13971823166E+04  0.13971823166E+04  0.25500000000E-02 0. -1.
         -2   -1    0    0    0  501 -0.00000000000E+00 -0.00000000000E+00 -0.52227194363E+03  0.52227194363E+03  0.25500000000E-02 0.  1.
    8880023    1    1    2    0    0  0.58330225610E+03 -0.39409122025E+03  0.34013448434E+03  0.10222774015E+04  0.65864270000E+03 0.  0.
    8880022    1    1    2    0    0 -0.58330225610E+03  0.39409122025E+03  0.53477588863E+03  0.89717685877E+03  0.15294330000E+03 0.  0.
<mgrwt>
<rscale>  0 0.89631090E+03</rscale>
<asrwt>0</asrwt>
<pdfrwt beam="1">  1        2 0.21495112E+00 0.96403300E+03</pdfrwt>
<pdfrwt beam="2">  1       -2 0.80349531E-01 0.96403300E+03</pdfrwt>
<totfact> 0.19875292E+01</totfact>
</mgrwt>
</event>
<event>
 4    1  0.7595604E-007  0.7352328E+03  0.7818608E-02  0.9874058E-01
         -2   -1    0    0    0  501 -0.00000000000E+00  0.00000000000E+00  0.10483956339E+04  0.10483956339E+04  0.25500000000E-02 0.  1.
          2   -1    0    0  501    0  0.00000000000E+00 -0.00000000000E+00 -0.43175156367E+03  0.43175156368E+03  0.25500000000E-02 0. -1.
    8880023    1    1    2    0    0 -0.31475623349E+03 -0.87667097680E+02  0.79059921983E+03  0.10796362069E+04  0.65864270000E+03 0.  1.
    8880022    1    1    2    0    0  0.31475623349E+03  0.87667097680E+02 -0.17395514965E+03  0.40051099066E+03  0.15294330000E+03 0.  0.
<mgrwt>
<rscale>  0 0.61535198E+03</rscale>
<asrwt>0</asrwt>
<pdfrwt beam="1">  1        2 0.66423319E-01 0.73523276E+03</pdfrwt>
<pdfrwt beam="2">  1       -2 0.16129163E+00 0.73523276E+03</pdfrwt>
<totfact> 0.18244652E+01</totfact>
</mgrwt>
</event>
<event>
 4    1  0.7595604E-007  0.8074114E+03  0.7818608E-02  0.9694994E-01
         -2   -1    0    0    0  501 -0.00000000000E+00  0.00000000000E+00  0.30370897028E+03  0.30370897029E+03  0.25500000000E-02 0.  1.
          2   -1    0    0  501    0  0.00000000000E+00 -0.00000000000E+00 -0.18794235125E+04  0.18794235125E+04  0.25500000000E-02 0. -1.
    8880023    1    1    2    0    0 -0.32908132023E+03 -0.33137347370E+03 -0.38400584162E+03  0.89407694695E+03  0.65864270000E+03 0.  1.
    8880022    1    1    2    0    0  0.32908132023E+03  0.33137347370E+03 -0.11917087006E+04  0.12890555358E+04  0.15294330000E+03 0.  0.
<mgrwt>
<rscale>  0 0.71315603E+03</rscale>
<asrwt>0</asrwt>
<pdfrwt beam="1">  1        2 0.28914207E+00 0.80741136E+03</pdfrwt>
<pdfrwt beam="2">  1       -2 0.46724458E-01 0.80741136E+03</pdfrwt>
<totfact> 0.34614331E+01</totfact>
</mgrwt>
</event>
<event>
 4    1  0.7595604E-007  0.7881854E+03  0.7818608E-02  0.9736949E-01
          2   -1    0    0  501    0  0.00000000000E+00  0.00000000000E+00  0.16840959592E+04  0.16840959592E+04  0.25500000000E-02 0. -1.
         -2   -1    0    0    0  501 -0.00000000000E+00 -0.00000000000E+00 -0.30436733224E+03  0.30436733225E+03  0.25500000000E-02 0.  1.
    8880023    1    1    2    0    0  0.25186838031E+03 -0.35211983903E+03  0.35275710608E+03  0.86352408431E+03  0.65864270000E+03 0.  1.
    8880022    1    1    2    0    0 -0.25186838031E+03  0.35211983903E+03  0.10269715209E+04  0.11249392071E+04  0.15294330000E+03 0.  0.
<mgrwt>
<rscale>  0 0.68858838E+03</rscale>
<asrwt>0</asrwt>
<pdfrwt beam="1">  1        2 0.25909168E+00 0.78818543E+03</pdfrwt>
<pdfrwt beam="2">  1       -2 0.46825744E-01 0.78818543E+03</pdfrwt>
<totfact> 0.44170692E+01</totfact>
</mgrwt>
</event>
<event>
 4    1  0.7595604E-007  0.7135817E+03  0.7818608E-02  0.9944934E-01
          2   -1    0    0  501    0  0.00000000000E+00  0.00000000000E+00  0.19490728168E+04  0.19490728168E+04  0.25500000000E-02 0. -1.
         -2   -1    0    0    0  501 -0.00000000000E+00 -0.00000000000E+00 -0.42071819339E+03  0.42071819340E+03  0.25500000000E-02 0.  1.
    8880023    1    1    2    0    0  0.27451114845E+03 -0.56756457619E+01 -0.91773656182E+02  0.71945895909E+03  0.65864270000E+03 0.  1.
    8880022    1    1    2    0    0 -0.27451114845E+03  0.56756457619E+01  0.16201282796E+04  0.16503320511E+04  0.15294330000E+03 0.  0.
<mgrwt>
<rscale>  0 0.58132168E+03</rscale>
<asrwt>0</asrwt>
<pdfrwt beam="1">  1        2 0.29985736E+00 0.71358166E+03</pdfrwt>
<pdfrwt beam="2">  1       -2 0.64725874E-01 0.71358166E+03</pdfrwt>
<totfact> 0.16321578E+01</totfact>
</mgrwt>
</event>
<event>
 4    1  0.7595604E-007  0.6760962E+03  0.7818608E-02  0.1011624E+00
         -2   -1    0    0    0  501 -0.00000000000E+00  0.00000000000E+00  0.32544180767E+03  0.32544180768E+03  0.25500000000E-02 0.  1.
          2   -1    0    0  501    0  0.00000000000E+00 -0.00000000000E+00 -0.15736629842E+04  0.15736629842E+04  0.25500000000E-02 0. -1.
    8880023    1    1    2    0    0 -0.14458580254E+03 -0.48895573230E+02 -0.46041988472E+02  0.67766208566E+03  0.65864270000E+03 0.  1.
    8880022    1    1    2    0    0  0.14458580254E+03  0.48895573230E+02 -0.12021791881E+04  0.12214427062E+04  0.15294330000E+03 0.  0.
<mgrwt>
<rscale>  0 0.50834250E+03</rscale>
<asrwt>0</asrwt>
<pdfrwt beam="1">  1        2 0.24210199E+00 0.67609617E+03</pdfrwt>
<pdfrwt beam="2">  1       -2 0.50067971E-01 0.67609617E+03</pdfrwt>
<totfact> 0.44933882E+01</totfact>
</mgrwt>
</event>
<event>
 4    1  0.7595604E-007  0.7722113E+03  0.7818608E-02  0.9774461E-01
          2   -1    0    0  501    0  0.00000000000E+00  0.00000000000E+00  0.17814165722E+04  0.17814165722E+04  0.25500000000E-02 0. -1.
         -2   -1    0    0    0  501 -0.00000000000E+00 -0.00000000000E+00 -0.27374554611E+03  0.27374554612E+03  0.25500000000E-02 0.  1.
    8880023    1    1    2    0    0 -0.21465879198E+03  0.34120621847E+03  0.40666468639E+03  0.87274650038E+03  0.65864270000E+03 0.  0.
    8880022    1    1    2    0    0  0.21465879198E+03 -0.34120621847E+03  0.11010063397E+04  0.11824156180E+04  0.15294330000E+03 0.  0.
<mgrwt>
<rscale>  0 0.66751284E+03</rscale>
<asrwt>0</asrwt>
<pdfrwt beam="1">  1        2 0.27406409E+00 0.77221130E+03</pdfrwt>
<pdfrwt beam="2">  1       -2 0.42114699E-01 0.77221130E+03</pdfrwt>
<totfact> 0.48336393E+01</totfact>
</mgrwt>
</event>
<event>
 4    1  0.7595604E-007  0.6663682E+03  0.7818608E-02  0.1018412E+00
          2   -1    0    0  501    0  0.00000000000E+00  0.00000000000E+00  0.11365140651E+04  0.11365140651E+04  0.25500000000E-02 0. -1.
         -2   -1    0    0    0  501 -0.00000000000E+00 -0.00000000000E+00 -0.21492940575E+03  0.21492940576E+03  0.25500000000E-02 0.  1.
    8880023    1    1    2    0    0 -0.59099055093E+01 -0.10100239226E+03  0.35315317476E+03  0.75416429333E+03  0.65864270000E+03 0.  0.
    8880022    1    1    2    0    0  0.59099055093E+01  0.10100239226E+03  0.56843148461E+03  0.59727917755E+03  0.15294330000E+03 0.  0.
<mgrwt>
<rscale>  0 0.48264015E+03</rscale>
<asrwt>0</asrwt>
<pdfrwt beam="1">  1        2 0.17484832E+00 0.66636823E+03</pdfrwt>
<pdfrwt beam="2">  1       -2 0.33066063E-01 0.66636823E+03</pdfrwt>
<totfact> 0.17970637E+02</totfact>
</mgrwt>
</event>
<event>
 4    1  0.7595604E-007  0.7377925E+03  0.7818608E-02  0.9866425E-01
          2   -1    0    0  501    0  0.00000000000E+00  0.00000000000E+00  0.67767514019E+03  0.67767514019E+03  0.25500000000E-02 0. -1.
         -2   -1    0    0    0  501 -0.00000000000E+00 -0.00000000000E+00 -0.10414013442E+04  0.10414013442E+04  0.25500000000E-02 0.  1.
    8880023    1    1    2    0    0  0.10235807887E+03  0.31630735545E+03 -0.84028538423E+03  0.11182205742E+04  0.65864270000E+03 0.  1.
    8880022    1    1    2    0    0 -0.10235807887E+03 -0.31630735545E+03  0.47655918026E+03  0.60085591012E+03  0.15294330000E+03 0.  0.
<mgrwt>
<rscale>  0 0.61916444E+03</rscale>
<asrwt>0</asrwt>
<pdfrwt beam="1">  1        2 0.10425771E+00 0.73779247E+03</pdfrwt>
<pdfrwt beam="2">  1       -2 0.16021559E+00 0.73779247E+03</pdfrwt>
<totfact> 0.10896772E+01</totfact>
</mgrwt>
</event>
<event>
 4    1  0.9046916E-007  0.6694858E+03  0.7818608E-02  0.1016034E+00
         -2   -1    0    0    0  501 -0.00000000000E+00  0.00000000000E+00  0.56326884614E+03  0.56326884614E+03  0.25500000000E-02 0.  1.
          2   -1    0    0  501    0  0.00000000000E+00 -0.00000000000E+00 -0.31762272988E+04  0.31762272988E+04  0.25500000000E-02 0. -1.
    8880023    1    1    2    0    0  0.12000116597E+03  0.85954933643E+00  0.36003360552E+03  0.76015486713E+03  0.65864270000E+03 0.  1.
    8880022    1    1    2    0    0 -0.12000116597E+03 -0.85954933643E+00 -0.29729920582E+04  0.29793412778E+04  0.15294330000E+03 0.  0.
<mgrwt>
<rscale>  0 0.49145298E+03</rscale>
<asrwt>0</asrwt>
<pdfrwt beam="1">  1        2 0.48865034E+00 0.66948579E+03</pdfrwt>
<pdfrwt beam="2">  1       -2 0.86656748E-01 0.66948579E+03</pdfrwt>
<totfact> 0.16962384E+00</totfact>
</mgrwt>
</event>
<event>
 4    1  0.7595604E-007  0.9217415E+03  0.7818608E-02  0.9491994E-01
          2   -1    0    0  501    0  0.00000000000E+00  0.00000000000E+00  0.62023380218E+03  0.62023380219E+03  0.25500000000E-02 0. -1.
         -2   -1    0    0    0  501 -0.00000000000E+00 -0.00000000000E+00 -0.23227866822E+04  0.23227866822E+04  0.25500000000E-02 0.  1.
    8880023    1    1    2    0    0  0.15738265141E+03  0.62532224556E+03 -0.20108988855E+04  0.22120853835E+04  0.65864270000E+03 0.  0.
    8880022    1    1    2    0    0 -0.15738265141E+03 -0.62532224556E+03  0.30834600543E+03  0.73093510097E+03  0.15294330000E+03 0.  0.
<mgrwt>
<rscale>  0 0.84876659E+03</rscale>
<asrwt>0</asrwt>
<pdfrwt beam="1">  1        2 0.95420586E-01 0.92174151E+03</pdfrwt>
<pdfrwt beam="2">  1       -2 0.35735179E+00 0.92174151E+03</pdfrwt>
<totfact> 0.68325369E-01</totfact>
</mgrwt>
</event>
<event>
 4    1  0.7595604E-007  0.6912034E+03  0.7818608E-02  0.1003586E+00
          2   -1    0    0  501    0  0.00000000000E+00  0.00000000000E+00  0.24408397368E+03  0.24408397369E+03  0.25500000000E-02 0. -1.
         -2   -1    0    0    0  501 -0.00000000000E+00 -0.00000000000E+00 -0.16973081513E+04  0.16973081513E+04  0.25500000000E-02 0.  1.
    8880023    1    1    2    0    0 -0.55608212178E+01  0.20957331433E+03 -0.15231353258E+04  0.16726336490E+04  0.65864270000E+03 0.  1.
    8880022    1    1    2    0    0  0.55608212178E+01 -0.20957331433E+03  0.69911148097E+02  0.26875847606E+03  0.15294330000E+03 0.  0.
<mgrwt>
<rscale>  0 0.54105497E+03</rscale>
<asrwt>0</asrwt>
<pdfrwt beam="1">  1        2 0.37551382E-01 0.69120337E+03</pdfrwt>
<pdfrwt beam="2">  1       -2 0.26112432E+00 0.69120337E+03</pdfrwt>
<totfact> 0.78658690E+00</totfact>
</mgrwt>
</event>
<event>
 4    1  0.7595604E-007  0.7463216E+03  0.7818608E-02  0.9841901E-01
         -2   -1    0    0    0  501 -0.00000000000E+00  0.00000000000E+00  0.52676078672E+03  0.52676078673E+03  0.25500000000E-02 0.  1.
          2   -1    0    0  501    0  0.00000000000E+00 -0.00000000000E+00 -0.89315048602E+03  0.89315048602E+03  0.25500000000E-02 0. -1.
    8880023    1    1    2    0    0 -0.18092995611E+03 -0.30074917263E+03  0.16560642049E+03  0.76447459515E+03  0.65864270000E+03 0.  1.
    8880022    1    1    2    0    0  0.18092995611E+03  0.30074917263E+03 -0.53199611979E+03  0.65543667760E+03  0.15294330000E+03 0.  0.
<mgrwt>
<rscale>  0 0.63161563E+03</rscale>
<asrwt>0</asrwt>
<pdfrwt beam="1">  1        2 0.13740777E+00 0.74632159E+03</pdfrwt>
<pdfrwt beam="2">  1       -2 0.81040121E-01 0.74632159E+03</pdfrwt>
<totfact> 0.40390072E+01</totfact>
</mgrwt>
</event>
<event>
 4    1  0.7595604E-007  0.7075023E+03  0.7818608E-02  0.9967396E-01
         -2   -1    0    0    0  501 -0.00000000000E+00  0.00000000000E+00  0.61629540891E+03  0.61629540892E+03  0.25500000000E-02 0.  1.
          2   -1    0    0  501    0  0.00000000000E+00 -0.00000000000E+00 -0.91811344991E+03  0.91811344991E+03  0.25500000000E-02 0. -1.
    8880023    1    1    2    0    0 -0.23564876412E+03 -0.10591940500E+03  0.37010516625E+03  0.79845932942E+03  0.65864270000E+03 0.  1.
    8880022    1    1    2    0    0  0.23564876412E+03  0.10591940500E+03 -0.67192320725E+03  0.73594952941E+03  0.15294330000E+03 0.  0.
<mgrwt>
<rscale>  0 0.57103289E+03</rscale>
<asrwt>0</asrwt>
<pdfrwt beam="1">  1        2 0.14124822E+00 0.70750227E+03</pdfrwt>
<pdfrwt beam="2">  1       -2 0.94814678E-01 0.70750227E+03</pdfrwt>
<totfact> 0.27215000E+01</totfact>
</mgrwt>
</event>
<event>
 4    1  0.7595604E-007  0.9775977E+03  0.7818608E-02  0.9411472E-01
          2   -1    0    0  501    0  0.00000000000E+00  0.00000000000E+00  0.75330908470E+03  0.75330908470E+03  0.25500000000E-02 0. -1.
         -2   -1    0    0    0  501 -0.00000000000E+00 -0.00000000000E+00 -0.14870555638E+04  0.14870555638E+04  0.25500000000E-02 0.  1.
    8880023    1    1    2    0    0  0.71300709596E+03  0.11622374040E+03 -0.10521473738E+04  0.14362142525E+04  0.65864270000E+03 0.  0.
    8880022    1    1    2    0    0 -0.71300709596E+03 -0.11622374040E+03  0.31840089463E+03  0.80415039603E+03  0.15294330000E+03 0.  0.
<mgrwt>
<rscale>  0 0.91137571E+03</rscale>
<asrwt>0</asrwt>
<pdfrwt beam="1">  1        2 0.11589371E+00 0.97759771E+03</pdfrwt>
<pdfrwt beam="2">  1       -2 0.22877778E+00 0.97759771E+03</pdfrwt>
<totfact> 0.32376215E+00</totfact>
</mgrwt>
</event>
<event>
 4    1  0.7595604E-007  0.1154537E+04  0.7818608E-02  0.9202635E-01
          2   -1    0    0  501    0  0.00000000000E+00  0.00000000000E+00  0.24601561234E+04  0.24601561234E+04  0.25500000000E-02 0. -1.
         -2   -1    0    0    0  501 -0.00000000000E+00 -0.00000000000E+00 -0.52227473118E+03  0.52227473119E+03  0.25500000000E-02 0.  1.
    8880023    1    1    2    0    0  0.78170351600E+03  0.53673459251E+03  0.51140741267E+03  0.12627320213E+04  0.65864270000E+03 0.  1.
    8880022    1    1    2    0    0 -0.78170351600E+03 -0.53673459251E+03  0.14264739796E+04  0.17196988333E+04  0.15294330000E+03 0.  0.
<mgrwt>
<rscale>  0 0.11026271E+04</rscale>
<asrwt>0</asrwt>
<pdfrwt beam="1">  1        2 0.37848556E+00 0.11545365E+04</pdfrwt>
<pdfrwt beam="2">  1       -2 0.80349958E-01 0.11545365E+04</pdfrwt>
<totfact> 0.49782525E+00</totfact>
</mgrwt>
</event>
<event>
 4    1  0.7595604E-007  0.1067853E+04  0.7818608E-02  0.9297721E-01
         -2   -1    0    0    0  501 -0.00000000000E+00  0.00000000000E+00  0.86950570886E+03  0.86950570886E+03  0.25500000000E-02 0.  1.
          2   -1    0    0  501    0  0.00000000000E+00 -0.00000000000E+00 -0.18027288730E+04  0.18027288730E+04  0.25500000000E-02 0. -1.
    8880023    1    1    2    0    0 -0.37580999527E+03 -0.75184258637E+03 -0.13503080776E+04  0.17215233190E+04  0.65864270000E+03 0.  0.
    8880022    1    1    2    0    0  0.37580999527E+03  0.75184258637E+03  0.41708491346E+03  0.95071126284E+03  0.15294330000E+03 0.  0.
<mgrwt>
<rscale>  0 0.10099294E+04</rscale>
<asrwt>0</asrwt>
<pdfrwt beam="1">  1        2 0.27734290E+00 0.10678533E+04</pdfrwt>
<pdfrwt beam="2">  1       -2 0.13377011E+00 0.10678533E+04</pdfrwt>
<totfact> 0.34304735E+00</totfact>
</mgrwt>
</event>
<event>
 4    1  0.7595604E-007  0.9390023E+03  0.7818608E-02  0.9466117E-01
         -2   -1    0    0    0  501 -0.00000000000E+00  0.00000000000E+00  0.29141244333E+03  0.29141244335E+03  0.25500000000E-02 0.  1.
          2   -1    0    0  501    0  0.00000000000E+00 -0.00000000000E+00 -0.24675205431E+04  0.24675205431E+04  0.25500000000E-02 0. -1.
    8880023    1    1    2    0    0 -0.35353303116E+03  0.56826881706E+03 -0.85427336368E+03  0.12694519442E+04  0.65864270000E+03 0.  0.
    8880022    1    1    2    0    0  0.35353303116E+03 -0.56826881706E+03 -0.13218347361E+04  0.14894810422E+04  0.15294330000E+03 0.  0.
<mgrwt>
<rscale>  0 0.86828627E+03</rscale>
<asrwt>0</asrwt>
<pdfrwt beam="1">  1        2 0.37961853E+00 0.93900227E+03</pdfrwt>
<pdfrwt beam="2">  1       -2 0.44832685E-01 0.93900227E+03</pdfrwt>
<totfact> 0.17475228E+01</totfact>
</mgrwt>
</event>
<event>
 4    1  0.7595604E-007  0.1006881E+04  0.7818608E-02  0.9372611E-01
         -2   -1    0    0    0  501 -0.00000000000E+00  0.00000000000E+00  0.50653264990E+03  0.50653264991E+03  0.25500000000E-02 0.  1.
          2   -1    0    0  501    0  0.00000000000E+00 -0.00000000000E+00 -0.22360052100E+04  0.22360052100E+04  0.25500000000E-02 0. -1.
    8880023    1    1    2    0    0 -0.15982301712E+03  0.74461726258E+03 -0.19919237719E+03  0.10263946969E+04  0.65864270000E+03 0.  0.
    8880022    1    1    2    0    0  0.15982301712E+03 -0.74461726258E+03 -0.15302801829E+04  0.17161431629E+04  0.15294330000E+03 0.  0.
<mgrwt>
<rscale>  0 0.94364409E+03</rscale>
<asrwt>0</asrwt>
<pdfrwt beam="1">  1        2 0.34400080E+00 0.10068806E+04</pdfrwt>
<pdfrwt beam="2">  1       -2 0.77928101E-01 0.10068806E+04</pdfrwt>
<totfact> 0.72610136E+00</totfact>
</mgrwt>
</event>
<event>
 4    1  0.7595604E-007  0.8461044E+03  0.7818608E-02  0.9618775E-01
          2   -1    0    0  501    0  0.00000000000E+00  0.00000000000E+00  0.64001963665E+03  0.64001963666E+03  0.25500000000E-02 0. -1.
         -2   -1    0    0    0  501 -0.00000000000E+00 -0.00000000000E+00 -0.11418497194E+04  0.11418497194E+04  0.25500000000E-02 0.  1.
    8880023    1    1    2    0    0  0.12540663131E+02 -0.53096633995E+03 -0.79085396425E+03  0.11581635124E+04  0.65864270000E+03 0.  0.
    8880022    1    1    2    0    0 -0.12540663131E+02  0.53096633995E+03  0.28902388147E+03  0.62370584370E+03  0.15294330000E+03 0.  0.
<mgrwt>
<rscale>  0 0.76065863E+03</rscale>
<asrwt>0</asrwt>
<pdfrwt beam="1">  1        2 0.98464560E-01 0.84610444E+03</pdfrwt>
<pdfrwt beam="2">  1       -2 0.17566919E+00 0.84610444E+03</pdfrwt>
<totfact> 0.89699136E+00</totfact>
</mgrwt>
</event>
<event>
 4    1  0.7595604E-007  0.7533232E+03  0.7818608E-02  0.9822710E-01
          2   -1    0    0  501    0  0.00000000000E+00  0.00000000000E+00  0.16570590293E+04  0.16570590293E+04  0.25500000000E-02 0. -1.
         -2   -1    0    0    0  501 -0.00000000000E+00 -0.00000000000E+00 -0.33731552444E+03  0.33731552445E+03  0.25500000000E-02 0.  1.
    8880023    1    1    2    0    0  0.36258352183E+03 -0.47104966510E+02  0.16182738178E+03  0.77050892009E+03  0.65864270000E+03 0.  0.
    8880022    1    1    2    0    0 -0.36258352183E+03  0.47104966510E+02  0.11579161230E+04  0.12238656336E+04  0.15294330000E+03 0.  0.
<mgrwt>
<rscale>  0 0.64157911E+03</rscale>
<asrwt>0</asrwt>
<pdfrwt beam="1">  1        2 0.25493216E+00 0.75332323E+03</pdfrwt>
<pdfrwt beam="2">  1       -2 0.51894696E-01 0.75332323E+03</pdfrwt>
<totfact> 0.37239284E+01</totfact>
</mgrwt>
</event>
<event>
 4    1  0.7595604E-007  0.7662057E+03  0.7818608E-02  0.9789299E-01
          2   -1    0    0  501    0  0.00000000000E+00  0.00000000000E+00  0.13617913989E+04  0.13617913989E+04  0.25500000000E-02 0. -1.
         -2   -1    0    0    0  501 -0.00000000000E+00 -0.00000000000E+00 -0.34031008479E+03  0.34031008480E+03  0.25500000000E-02 0.  1.
    8880023    1    1    2    0    0 -0.28808794708E+02  0.39042415967E+03  0.22010324311E+03  0.79719295970E+03  0.65864270000E+03 0.  0.
    8880022    1    1    2    0    0  0.28808794708E+02 -0.39042415967E+03  0.80137807102E+03  0.90490852402E+03  0.15294330000E+03 0.  0.
<mgrwt>
<rscale>  0 0.65940016E+03</rscale>
<asrwt>0</asrwt>
<pdfrwt beam="1">  1        2 0.20950637E+00 0.76620570E+03</pdfrwt>
<pdfrwt beam="2">  1       -2 0.52355398E-01 0.76620570E+03</pdfrwt>
<totfact> 0.53349469E+01</totfact>
</mgrwt>
</event>
<event>
 4    1  0.7595604E-007  0.6758152E+03  0.7818608E-02  0.1011797E+00
          2   -1    0    0  501    0  0.00000000000E+00  0.00000000000E+00  0.32915968750E+03  0.32915968751E+03  0.25500000000E-02 0. -1.
         -2   -1    0    0    0  501 -0.00000000000E+00 -0.00000000000E+00 -0.13245381690E+04  0.13245381690E+04  0.25500000000E-02 0.  1.
    8880023    1    1    2    0    0  0.61860951560E+02  0.13816365073E+03 -0.11867719753E+04  0.13657063737E+04  0.65864270000E+03 0.  0.
    8880022    1    1    2    0    0 -0.61860951560E+02 -0.13816365073E+03  0.19139349374E+03  0.28799148281E+03  0.15294330000E+03 0. -1.
<mgrwt>
<rscale>  0 0.50766536E+03</rscale>
<asrwt>0</asrwt>
<pdfrwt beam="1">  1        2 0.50639953E-01 0.67581520E+03</pdfrwt>
<pdfrwt beam="2">  1       -2 0.20377510E+00 0.67581520E+03</pdfrwt>
<totfact> 0.12761288E+01</totfact>
</mgrwt>
</event>
<event>
 4    1  0.7595604E-007  0.7074586E+03  0.7818608E-02  0.9967562E-01
         -2   -1    0    0    0  501 -0.00000000000E+00  0.00000000000E+00  0.33655761684E+03  0.33655761684E+03  0.25500000000E-02 0.  1.
          2   -1    0    0  501    0  0.00000000000E+00 -0.00000000000E+00 -0.12070713733E+04  0.12070713733E+04  0.25500000000E-02 0. -1.
    8880023    1    1    2    0    0  0.23421137171E+03 -0.10877718614E+03 -0.97186883318E+02  0.71410289134E+03  0.65864270000E+03 0.  1.
    8880022    1    1    2    0    0 -0.23421137171E+03  0.10877718614E+03 -0.77332687315E+03  0.82952609882E+03  0.15294330000E+03 0.  0.
<mgrwt>
<rscale>  0 0.57095748E+03</rscale>
<asrwt>0</asrwt>
<pdfrwt beam="1">  1        2 0.18570329E+00 0.70745858E+03</pdfrwt>
<pdfrwt beam="2">  1       -2 0.51778096E-01 0.70745858E+03</pdfrwt>
<totfact> 0.67452032E+01</totfact>
</mgrwt>
</event>
<event>
 4    1  0.7595604E-007  0.7431709E+03  0.7818608E-02  0.9850805E-01
          2   -1    0    0  501    0  0.00000000000E+00  0.00000000000E+00  0.78584562158E+03  0.78584562159E+03  0.25500000000E-02 0. -1.
         -2   -1    0    0    0  501 -0.00000000000E+00 -0.00000000000E+00 -0.10104981421E+04  0.10104981421E+04  0.25500000000E-02 0.  1.
    8880023    1    1    2    0    0 -0.13696321592E+03  0.31580663813E+03 -0.81063245205E+03  0.10997399392E+04  0.65864270000E+03 0.  1.
    8880022    1    1    2    0    0  0.13696321592E+03 -0.31580663813E+03  0.58597993152E+03  0.69660382454E+03  0.15294330000E+03 0.  0.
<mgrwt>
<rscale>  0 0.62705892E+03</rscale>
<asrwt>0</asrwt>
<pdfrwt beam="1">  1        2 0.12089933E+00 0.74317088E+03</pdfrwt>
<pdfrwt beam="2">  1       -2 0.15546125E+00 0.74317088E+03</pdfrwt>
<totfact> 0.97716131E+00</totfact>
</mgrwt>
</event>
<event>
 4    1  0.7595604E-007  0.1263200E+04  0.7818608E-02  0.9098008E-01
          2   -1    0    0  501    0  0.00000000000E+00  0.00000000000E+00  0.33482497347E+04  0.33482497347E+04  0.25500000000E-02 0. -1.
         -2   -1    0    0    0  501 -0.00000000000E+00 -0.00000000000E+00 -0.61169036978E+03  0.61169036979E+03  0.25500000000E-02 0.  1.
    8880023    1    1    2    0    0  0.10107942131E+04  0.37437954098E+03  0.31050122554E+03  0.13008021369E+04  0.65864270000E+03 0.  0.
    8880022    1    1    2    0    0 -0.10107942131E+04 -0.37437954098E+03  0.24260581394E+04  0.26591379676E+04  0.15294330000E+03 0.  0.
<mgrwt>
<rscale>  0 0.12171125E+04</rscale>
<asrwt>0</asrwt>
<pdfrwt beam="1">  1        2 0.51511533E+00 0.12632004E+04</pdfrwt>
<pdfrwt beam="2">  1       -2 0.94106213E-01 0.12632004E+04</pdfrwt>
<totfact> 0.97448857E-01</totfact>
</mgrwt>
</event>
<event>
 4    1  0.7595604E-007  0.8230715E+03  0.7818608E-02  0.9662966E-01
         -2   -1    0    0    0  501 -0.00000000000E+00  0.00000000000E+00  0.87888961028E+03  0.87888961028E+03  0.25500000000E-02 0.  1.
          2   -1    0    0  501    0  0.00000000000E+00 -0.00000000000E+00 -0.61487055384E+03  0.61487055384E+03  0.25500000000E-02 0. -1.
    8880023    1    1    2    0    0  0.93352006316E+02 -0.48468743004E+03  0.45786188112E+03  0.94185147999E+03  0.65864270000E+03 0.  0.
    8880022    1    1    2    0    0 -0.93352006316E+02  0.48468743004E+03 -0.19384282468E+03  0.55190868413E+03  0.15294330000E+03 0.  0.
<mgrwt>
<rscale>  0 0.73265212E+03</rscale>
<asrwt>0</asrwt>
<pdfrwt beam="1">  1        2 0.94595470E-01 0.82307151E+03</pdfrwt>
<pdfrwt beam="2">  1       -2 0.13521379E+00 0.82307151E+03</pdfrwt>
<totfact> 0.19051745E+01</totfact>
</mgrwt>
</event>
<event>
 4    1  0.7595604E-007  0.9022419E+03  0.7818608E-02  0.9522442E-01
         -2   -1    0    0    0  501 -0.00000000000E+00  0.00000000000E+00  0.16810278467E+04  0.16810278467E+04  0.25500000000E-02 0.  1.
          2   -1    0    0  501    0  0.00000000000E+00 -0.00000000000E+00 -0.48909197154E+03  0.48909197155E+03  0.25500000000E-02 0. -1.
    8880023    1    1    2    0    0  0.61456557167E+03 -0.50393204893E+02  0.12394180432E+04  0.15330354233E+04  0.65864270000E+03 0.  1.
    8880022    1    1    2    0    0 -0.61456557167E+03  0.50393204893E+02 -0.47482168066E+02  0.63708439494E+03  0.15294330000E+03 0.  0.
<mgrwt>
<rscale>  0 0.82649287E+03</rscale>
<asrwt>0</asrwt>
<pdfrwt beam="1">  1        2 0.75244917E-01 0.90224194E+03</pdfrwt>
<pdfrwt beam="2">  1       -2 0.25861967E+00 0.90224194E+03</pdfrwt>
<totfact> 0.36366342E+00</totfact>
</mgrwt>
</event>
<event>
 4    1  0.7595604E-007  0.1046163E+04  0.7818608E-02  0.9323508E-01
          2   -1    0    0  501    0  0.00000000000E+00  0.00000000000E+00  0.12368558681E+04  0.12368558681E+04  0.25500000000E-02 0. -1.
         -2   -1    0    0    0  501 -0.00000000000E+00 -0.00000000000E+00 -0.74422726948E+03  0.74422726948E+03  0.25500000000E-02 0.  1.
    8880023    1    1    2    0    0 -0.76754138529E+00  0.81280121764E+03  0.60450324193E+02  0.10479078473E+04  0.65864270000E+03 0.  0.
    8880022    1    1    2    0    0  0.76754138529E+00 -0.81280121764E+03  0.43217827447E+03  0.93317529031E+03  0.15294330000E+03 0.  0.
<mgrwt>
<rscale>  0 0.98647138E+03</rscale>
<asrwt>0</asrwt>
<pdfrwt beam="1">  1        2 0.19028551E+00 0.10461628E+04</pdfrwt>
<pdfrwt beam="2">  1       -2 0.11449651E+00 0.10461628E+04</pdfrwt>
<totfact> 0.10614010E+01</totfact>
</mgrwt>
</event>
<event>
 4    1  0.7595604E-007  0.7419424E+03  0.7818608E-02  0.9854325E-01
         -2   -1    0    0    0  501 -0.00000000000E+00  0.00000000000E+00  0.54474496221E+03  0.54474496222E+03  0.25500000000E-02 0.  1.
          2   -1    0    0  501    0  0.00000000000E+00 -0.00000000000E+00 -0.10711804517E+04  0.10711804517E+04  0.25500000000E-02 0. -1.
    8880023    1    1    2    0    0 -0.24312906483E+03  0.23990942026E+03  0.22596423485E+03  0.77558901088E+03  0.65864270000E+03 0. -1.
    8880022    1    1    2    0    0  0.24312906483E+03 -0.23990942026E+03 -0.75239972434E+03  0.84033640306E+03  0.15294330000E+03 0.  0.
<mgrwt>
<rscale>  0 0.62526895E+03</rscale>
<asrwt>0</asrwt>
<pdfrwt beam="1">  1        2 0.16479699E+00 0.74194237E+03</pdfrwt>
<pdfrwt beam="2">  1       -2 0.83806917E-01 0.74194237E+03</pdfrwt>
<totfact> 0.28753786E+01</totfact>
</mgrwt>
</event>
<event>
 4    1  0.7595604E-007  0.7533578E+03  0.7818608E-02  0.9822617E-01
         -2   -1    0    0    0  501 -0.00000000000E+00  0.00000000000E+00  0.21098371695E+04  0.21098371695E+04  0.25500000000E-02 0.  1.
          2   -1    0    0  501    0  0.00000000000E+00 -0.00000000000E+00 -0.27202613529E+03  0.27202613531E+03  0.25500000000E-02 0. -1.
    8880023    1    1    2    0    0  0.29832595204E+03 -0.21151703597E+03  0.32937665353E+03  0.82221470208E+03  0.65864270000E+03 0. -1.
    8880022    1    1    2    0    0 -0.29832595204E+03  0.21151703597E+03  0.15084343806E+04  0.15596486027E+04  0.15294330000E+03 0.  0.
<mgrwt>
<rscale>  0 0.64162783E+03</rscale>
<asrwt>0</asrwt>
<pdfrwt beam="1">  1        2 0.41850174E-01 0.75335784E+03</pdfrwt>
<pdfrwt beam="2">  1       -2 0.32459034E+00 0.75335784E+03</pdfrwt>
<totfact> 0.28700887E+00</totfact>
</mgrwt>
</event>
<event>
 4    1  0.7595604E-007  0.1259950E+04  0.7818608E-02  0.9100941E-01
          2   -1    0    0  501    0  0.00000000000E+00  0.00000000000E+00  0.38227404306E+04  0.38227404306E+04  0.25500000000E-02 0. -1.
         -2   -1    0    0    0  501 -0.00000000000E+00 -0.00000000000E+00 -0.82539096415E+03  0.82539096416E+03  0.25500000000E-02 0.  1.
    8880023    1    1    2    0    0  0.35156668352E+03  0.10149208068E+04 -0.19637436032E+03  0.12751613516E+04  0.65864270000E+03 0.  0.
    8880022    1    1    2    0    0 -0.35156668352E+03 -0.10149208068E+04  0.31937238268E+04  0.33729700432E+04  0.15294330000E+03 0.  0.
<mgrwt>
<rscale>  0 0.12137089E+04</rscale>
<asrwt>0</asrwt>
<pdfrwt beam="1">  1        2 0.58811390E+00 0.12599498E+04</pdfrwt>
<pdfrwt beam="2">  1       -2 0.12698323E+00 0.12599498E+04</pdfrwt>
<totfact> 0.21642688E-01</totfact>
</mgrwt>
</event>
<event>
 4    1  0.7595604E-007  0.8168876E+03  0.7818608E-02  0.9675405E-01
          2   -1    0    0  501    0  0.00000000000E+00  0.00000000000E+00  0.35694154589E+04  0.35694154589E+04  0.25500000000E-02 0. -1.
         -2   -1    0    0    0  501 -0.00000000000E+00 -0.00000000000E+00 -0.23972939652E+03  0.23972939653E+03  0.25500000000E-02 0.  1.
    8880023    1    1    2    0    0 -0.45454513406E+03 -0.16396302389E+03  0.55272965838E+03  0.98631406439E+03  0.65864270000E+03 0.  0.
    8880022    1    1    2    0    0  0.45454513406E+03  0.16396302389E+03  0.27769564040E+04  0.28228307911E+04  0.15294330000E+03 0.  0.
<mgrwt>
<rscale>  0 0.72500242E+03</rscale>
<asrwt>0</asrwt>
<pdfrwt beam="1">  1        2 0.54914087E+00 0.81688760E+03</pdfrwt>
<pdfrwt beam="2">  1       -2 0.36881444E-01 0.81688760E+03</pdfrwt>
<totfact> 0.53902022E+00</totfact>
</mgrwt>
</event>
<event>
 4    1  0.7595604E-007  0.9726716E+03  0.7818608E-02  0.9418219E-01
          2   -1    0    0  501    0  0.00000000000E+00  0.00000000000E+00  0.17478068705E+04  0.17478068705E+04  0.25500000000E-02 0. -1.
         -2   -1    0    0    0  501 -0.00000000000E+00 -0.00000000000E+00 -0.51374201775E+03  0.51374201776E+03  0.25500000000E-02 0.  1.
    8880023    1    1    2    0    0 -0.56204794147E+03  0.44315007165E+03  0.11777686894E+04  0.15274911347E+04  0.65864270000E+03 0.  0.
    8880022    1    1    2    0    0  0.56204794147E+03 -0.44315007165E+03  0.56296163298E+02  0.73405775354E+03  0.15294330000E+03 0.  0.
<mgrwt>
<rscale>  0 0.90591407E+03</rscale>
<asrwt>0</asrwt>
<pdfrwt beam="1">  1        2 0.26889336E+00 0.97267162E+03</pdfrwt>
<pdfrwt beam="2">  1       -2 0.79037234E-01 0.97267162E+03</pdfrwt>
<totfact> 0.13130792E+01</totfact>
</mgrwt>
</event>
<event>
 4    1  0.7595604E-007  0.7738279E+03  0.7818608E-02  0.9770540E-01
          2   -1    0    0  501    0  0.00000000000E+00  0.00000000000E+00  0.25974812419E+04  0.25974812419E+04  0.25500000000E-02 0. -1.
         -2   -1    0    0    0  501 -0.00000000000E+00 -0.00000000000E+00 -0.35410929463E+03  0.35410929464E+03  0.25500000000E-02 0.  1.
    8880023    1    1    2    0    0  0.38408419409E+03  0.13220702630E+03  0.11850832806E+03  0.78284979149E+03  0.65864270000E+03 0.  1.
    8880022    1    1    2    0    0 -0.38408419409E+03 -0.13220702630E+03  0.21248636192E+04  0.21687407450E+04  0.15294330000E+03 0.  0.
<mgrwt>
<rscale>  0 0.66967764E+03</rscale>
<asrwt>0</asrwt>
<pdfrwt beam="1">  1        2 0.39961249E+00 0.77382787E+03</pdfrwt>
<pdfrwt beam="2">  1       -2 0.54478354E-01 0.77382787E+03</pdfrwt>
<totfact> 0.10139953E+01</totfact>
</mgrwt>
</event>
<event>
 4    1  0.7595604E-007  0.9283492E+03  0.7818608E-02  0.9481974E-01
          2   -1    0    0  501    0  0.00000000000E+00  0.00000000000E+00  0.21098899226E+04  0.21098899226E+04  0.25500000000E-02 0. -1.
         -2   -1    0    0    0  501 -0.00000000000E+00 -0.00000000000E+00 -0.34147036287E+03  0.34147036288E+03  0.25500000000E-02 0.  1.
    8880023    1    1    2    0    0 -0.62453357155E+03  0.19488422275E+03  0.60567078508E+03  0.11084535843E+04  0.65864270000E+03 0.  1.
    8880022    1    1    2    0    0  0.62453357155E+03 -0.19488422275E+03  0.11627487747E+04  0.13429067012E+04  0.15294330000E+03 0.  0.
<mgrwt>
<rscale>  0 0.85625943E+03</rscale>
<asrwt>0</asrwt>
<pdfrwt beam="1">  1        2 0.32459845E+00 0.92834921E+03</pdfrwt>
<pdfrwt beam="2">  1       -2 0.52533902E-01 0.92834921E+03</pdfrwt>
<totfact> 0.20100500E+01</totfact>
</mgrwt>
</event>
<event>
 4    1  0.7595604E-007  0.1108535E+04  0.7818608E-02  0.9251612E-01
         -2   -1    0    0    0  501 -0.00000000000E+00  0.00000000000E+00  0.98148282448E+03  0.98148282448E+03  0.25500000000E-02 0.  1.
          2   -1    0    0  501    0  0.00000000000E+00 -0.00000000000E+00 -0.15235475113E+04  0.15235475113E+04  0.25500000000E-02 0. -1.
    8880023    1    1    2    0    0  0.89164270389E+03  0.37019270013E+01 -0.99832746541E+03  0.14918137786E+04  0.65864270000E+03 0.  0.
    8880022    1    1    2    0    0 -0.89164270389E+03 -0.37019270013E+01  0.45626277855E+03  0.10132165572E+04  0.15294330000E+03 0.  1.
<mgrwt>
<rscale>  0 0.10536224E+04</rscale>
<asrwt>0</asrwt>
<pdfrwt beam="1">  1        2 0.23439192E+00 0.11085353E+04</pdfrwt>
<pdfrwt beam="2">  1       -2 0.15099736E+00 0.11085353E+04</pdfrwt>
<totfact> 0.35552886E+00</totfact>
</mgrwt>
</event>
<event>
 4    1  0.7595604E-007  0.7584722E+03  0.7818608E-02  0.9809079E-01
         -2   -1    0    0    0  501 -0.00000000000E+00  0.00000000000E+00  0.62963223694E+03  0.62963223694E+03  0.25500000000E-02 0.  1.
          2   -1    0    0  501    0  0.00000000000E+00 -0.00000000000E+00 -0.16977104333E+04  0.16977104333E+04  0.25500000000E-02 0. -1.
    8880023    1    1    2    0    0 -0.35048832990E+03 -0.13648381963E+03  0.36222247317E+03  0.84052675672E+03  0.65864270000E+03 0.  1.
    8880022    1    1    2    0    0  0.35048832990E+03  0.13648381963E+03 -0.14303006695E+04  0.14868159135E+04  0.15294330000E+03 0.  0.
<mgrwt>
<rscale>  0 0.64877586E+03</rscale>
<asrwt>0</asrwt>
<pdfrwt beam="1">  1        2 0.26118622E+00 0.75847222E+03</pdfrwt>
<pdfrwt beam="2">  1       -2 0.96866498E-01 0.75847222E+03</pdfrwt>
<totfact> 0.89982819E+00</totfact>
</mgrwt>
</event>
<event>
 4    1  0.7595604E-007  0.7724351E+03  0.7818608E-02  0.9773917E-01
          2   -1    0    0  501    0  0.00000000000E+00  0.00000000000E+00  0.18589094625E+04  0.18589094625E+04  0.25500000000E-02 0. -1.
         -2   -1    0    0    0  501 -0.00000000000E+00 -0.00000000000E+00 -0.41282880608E+03  0.41282880609E+03  0.25500000000E-02 0.  1.
    8880023    1    1    2    0    0 -0.79380911000E+02  0.39565707955E+03  0.10299881418E+02  0.77250381711E+03  0.65864270000E+03 0.  1.
    8880022    1    1    2    0    0  0.79380911000E+02 -0.39565707955E+03  0.14357807750E+04  0.14992344514E+04  0.15294330000E+03 0.  0.
<mgrwt>
<rscale>  0 0.66781307E+03</rscale>
<asrwt>0</asrwt>
<pdfrwt beam="1">  1        2 0.28598607E+00 0.77243515E+03</pdfrwt>
<pdfrwt beam="2">  1       -2 0.63512124E-01 0.77243515E+03</pdfrwt>
<totfact> 0.18877500E+01</totfact>
</mgrwt>
</event>
<event>
 4    1  0.7595604E-007  0.1272267E+04  0.7818608E-02  0.9089887E-01
          2   -1    0    0  501    0  0.00000000000E+00  0.00000000000E+00  0.91883517413E+03  0.91883517414E+03  0.25500000000E-02 0. -1.
         -2   -1    0    0    0  501 -0.00000000000E+00 -0.00000000000E+00 -0.42022570557E+04  0.42022570557E+04  0.25500000000E-02 0.  1.
    8880023    1    1    2    0    0  0.10868135505E+04  0.60737697760E+02 -0.37251753458E+04  0.39364443759E+04  0.65864270000E+03 0.  1.
    8880022    1    1    2    0    0 -0.10868135505E+04 -0.60737697760E+02  0.44175346423E+03  0.11846478539E+04  0.15294330000E+03 0.  0.
<mgrwt>
<rscale>  0 0.12266001E+04</rscale>
<asrwt>0</asrwt>
<pdfrwt beam="1">  1        2 0.14135926E+00 0.12722669E+04</pdfrwt>
<pdfrwt beam="2">  1       -2 0.64650107E+00 0.12722669E+04</pdfrwt>
<totfact> 0.93047063E-03</totfact>
</mgrwt>
</event>
<event>
 4    1  0.7595604E-007  0.7824139E+03  0.7818608E-02  0.9750197E-01
         -2   -1    0    0    0  501 -0.00000000000E+00  0.00000000000E+00  0.35884139205E+03  0.35884139206E+03  0.25500000000E-02 0.  1.
          2   -1    0    0  501    0  0.00000000000E+00 -0.00000000000E+00 -0.21615952229E+04  0.21615952229E+04  0.25500000000E-02 0. -1.
    8880023    1    1    2    0    0  0.24427797620E+03  0.34451351224E+03 -0.13590562619E+03  0.79412960861E+03  0.65864270000E+03 0.  1.
    8880022    1    1    2    0    0 -0.24427797620E+03 -0.34451351224E+03 -0.16668482047E+04  0.17263070064E+04  0.15294330000E+03 0.  0.
<mgrwt>
<rscale>  0 0.68105141E+03</rscale>
<asrwt>0</asrwt>
<pdfrwt beam="1">  1        2 0.33255310E+00 0.78241389E+03</pdfrwt>
<pdfrwt beam="2">  1       -2 0.55206369E-01 0.78241389E+03</pdfrwt>
<totfact> 0.17299923E+01</totfact>
</mgrwt>
</event>
<event>
 4    1  0.7595604E-007  0.8537376E+03  0.7818608E-02  0.9604802E-01
          2   -1    0    0  501    0  0.00000000000E+00  0.00000000000E+00  0.73142789020E+03  0.73142789021E+03  0.25500000000E-02 0. -1.
         -2   -1    0    0    0  501 -0.00000000000E+00 -0.00000000000E+00 -0.89668675497E+03  0.89668675497E+03  0.25500000000E-02 0.  1.
    8880023    1    1    2    0    0 -0.54310624596E+03  0.96606553275E+01 -0.48259382006E+03  0.98069604062E+03  0.65864270000E+03 0.  1.
    8880022    1    1    2    0    0  0.54310624596E+03 -0.96606553275E+01  0.31733495530E+03  0.64741860456E+03  0.15294330000E+03 0.  0.
<mgrwt>
<rscale>  0 0.76979195E+03</rscale>
<asrwt>0</asrwt>
<pdfrwt beam="1">  1        2 0.11252737E+00 0.85373762E+03</pdfrwt>
<pdfrwt beam="2">  1       -2 0.13795181E+00 0.85373762E+03</pdfrwt>
<totfact> 0.14524134E+01</totfact>
</mgrwt>
</event>
<event>
 4    1  0.7595604E-007  0.6606896E+03  0.7818608E-02  0.1023461E+00
         -2   -1    0    0    0  501 -0.00000000000E+00  0.00000000000E+00  0.12287090410E+03  0.12287090412E+03  0.25500000000E-02 0.  1.
          2   -1    0    0  501    0  0.00000000000E+00 -0.00000000000E+00 -0.18711864132E+04  0.18711864132E+04  0.25500000000E-02 0. -1.
    8880023    1    1    2    0    0 -0.40863060361E+02 -0.32106207214E+02 -0.82611523975E+03  0.10578171836E+04  0.65864270000E+03 0.  1.
    8880022    1    1    2    0    0  0.40863060361E+02  0.32106207214E+02 -0.92220026937E+03  0.93624013378E+03  0.15294330000E+03 0.  0.
<mgrwt>
<rscale>  0 0.46458167E+03</rscale>
<asrwt>0</asrwt>
<pdfrwt beam="1">  1        2 0.28787481E+00 0.66068964E+03</pdfrwt>
<pdfrwt beam="2">  1       -2 0.18903217E-01 0.66068964E+03</pdfrwt>
<totfact> 0.19108549E+02</totfact>
</mgrwt>
</event>
<event>
 4    1  0.7595604E-007  0.6610934E+03  0.7818608E-02  0.1023063E+00
         -2   -1    0    0    0  501 -0.00000000000E+00  0.00000000000E+00  0.10529322572E+03  0.10529322575E+03  0.25500000000E-02 0.  1.
          2   -1    0    0  501    0  0.00000000000E+00 -0.00000000000E+00 -0.16173719581E+04  0.16173719581E+04  0.25500000000E-02 0. -1.
    8880023    1    1    2    0    0  0.69462880029E+01  0.56444687723E+02 -0.12466255482E+04  0.14110704155E+04  0.65864270000E+03 0. -1.
    8880022    1    1    2    0    0 -0.69462880029E+01 -0.56444687723E+02 -0.26545318417E+03  0.31159476840E+03  0.15294330000E+03 0.  1.
<mgrwt>
<rscale>  0 0.46597236E+03</rscale>
<asrwt>0</asrwt>
<pdfrwt beam="1">  1        2 0.24882644E+00 0.66109338E+03</pdfrwt>
<pdfrwt beam="2">  1       -2 0.16198959E-01 0.66109338E+03</pdfrwt>
<totfact> 0.34239842E+02</totfact>
</mgrwt>
</event>
<event>
 4    1  0.7595604E-007  0.6942758E+03  0.7818608E-02  0.1002183E+00
          2   -1    0    0  501    0  0.00000000000E+00  0.00000000000E+00  0.19863612867E+04  0.19863612867E+04  0.25500000000E-02 0. -1.
         -2   -1    0    0    0  501 -0.00000000000E+00 -0.00000000000E+00 -0.17204515211E+03  0.17204515213E+03  0.25500000000E-02 0.  1.
    8880023    1    1    2    0    0 -0.19016736147E+03  0.10974986432E+03  0.60830650408E+03  0.92306861459E+03  0.65864270000E+03 0.  0.
    8880022    1    1    2    0    0  0.19016736147E+03 -0.10974986432E+03  0.12060096305E+04  0.12353378242E+04  0.15294330000E+03 0.  0.
<mgrwt>
<rscale>  0 0.54703281E+03</rscale>
<asrwt>0</asrwt>
<pdfrwt beam="1">  1        2 0.30559403E+00 0.69427578E+03</pdfrwt>
<pdfrwt beam="2">  1       -2 0.26468486E-01 0.69427578E+03</pdfrwt>
<totfact> 0.90725245E+01</totfact>
</mgrwt>
</event>
<event>
 4    1  0.7595604E-007  0.9069171E+03  0.7818608E-02  0.9515017E-01
          2   -1    0    0  501    0  0.00000000000E+00  0.00000000000E+00  0.48538711908E+04  0.48538711908E+04  0.25500000000E-02 0. -1.
         -2   -1    0    0    0  501 -0.00000000000E+00 -0.00000000000E+00 -0.27827883027E+03  0.27827883028E+03  0.25500000000E-02 0.  1.
    8880023    1    1    2    0    0  0.51864068949E+03  0.34597717520E+03  0.56066665824E+03  0.10662296556E+04  0.65864270000E+03 0.  1.
    8880022    1    1    2    0    0 -0.51864068949E+03 -0.34597717520E+03  0.40149257023E+04  0.40659203655E+04  0.15294330000E+03 0.  0.
<mgrwt>
<rscale>  0 0.83185643E+03</rscale>
<asrwt>0</asrwt>
<pdfrwt beam="1">  1        2 0.74674930E+00 0.90691707E+03</pdfrwt>
<pdfrwt beam="2">  1       -2 0.42812134E-01 0.90691707E+03</pdfrwt>
<totfact> 0.29895641E-01</totfact>
</mgrwt>
</event>
<event>
 4    1  0.7595604E-007  0.1629075E+04  0.7818608E-02  0.8823490E-01
          2   -1    0    0  501    0  0.00000000000E+00  0.00000000000E+00  0.45573901168E+04  0.45573901168E+04  0.25500000000E-02 0. -1.
         -2   -1    0    0    0  501 -0.00000000000E+00 -0.00000000000E+00 -0.53793878484E+03  0.53793878485E+03  0.25500000000E-02 0.  1.
    8880023    1    1    2    0    0 -0.70409109473E+03 -0.13131374878E+04  0.19556198836E+04  0.25452570925E+04  0.65864270000E+03 0.  0.
    8880022    1    1    2    0    0  0.70409109473E+03  0.13131374878E+04  0.20638314484E+04  0.25500718091E+04  0.15294330000E+03 0.  0.
<mgrwt>
<rscale>  0 0.15952204E+04</rscale>
<asrwt>0</asrwt>
<pdfrwt beam="1">  1        2 0.70113694E+00 0.16290747E+04</pdfrwt>
<pdfrwt beam="2">  1       -2 0.82759813E-01 0.16290747E+04</pdfrwt>
<totfact> 0.13386617E-01</totfact>
</mgrwt>
</event>
<event>
 4    1  0.7595604E-007  0.7427684E+03  0.7818608E-02  0.9851955E-01
          2   -1    0    0  501    0  0.00000000000E+00  0.00000000000E+00  0.20888269219E+04  0.20888269219E+04  0.25500000000E-02 0. -1.
         -2   -1    0    0    0  501 -0.00000000000E+00 -0.00000000000E+00 -0.29732355196E+03  0.29732355197E+03  0.25500000000E-02 0.  1.
    8880023    1    1    2    0    0 -0.28211384994E+03  0.19572037299E+03  0.22634532325E+03  0.77649024485E+03  0.65864270000E+03 0.  0.
    8880022    1    1    2    0    0  0.28211384994E+03 -0.19572037299E+03  0.15651580467E+04  0.16096602291E+04  0.15294330000E+03 0.  0.
<mgrwt>
<rscale>  0 0.62647333E+03</rscale>
<asrwt>0</asrwt>
<pdfrwt beam="1">  1        2 0.32135800E+00 0.74276840E+03</pdfrwt>
<pdfrwt beam="2">  1       -2 0.45742084E-01 0.74276840E+03</pdfrwt>
<totfact> 0.27979244E+01</totfact>
</mgrwt>
</event>
<event>
 4    1  0.7595604E-007  0.7666411E+03  0.7818608E-02  0.9788208E-01
         -2   -1    0    0    0  501 -0.00000000000E+00  0.00000000000E+00  0.79358511532E+03  0.79358511532E+03  0.25500000000E-02 0.  1.
          2   -1    0    0  501    0  0.00000000000E+00 -0.00000000000E+00 -0.13401352339E+04  0.13401352339E+04  0.25500000000E-02 0. -1.
    8880023    1    1    2    0    0 -0.49009709012E+02 -0.38926387159E+03  0.56024062459E+03  0.94953045081E+03  0.65864270000E+03 0.  1.
    8880022    1    1    2    0    0  0.49009709012E+02  0.38926387159E+03 -0.11067907432E+04  0.11841898984E+04  0.15294330000E+03 0.  0.
<mgrwt>
<rscale>  0 0.65999214E+03</rscale>
<asrwt>0</asrwt>
<pdfrwt beam="1">  1        2 0.20617465E+00 0.76664106E+03</pdfrwt>
<pdfrwt beam="2">  1       -2 0.12209002E+00 0.76664106E+03</pdfrwt>
<totfact> 0.81272079E+00</totfact>
</mgrwt>
</event>
<event>
 4    1  0.7595604E-007  0.7534578E+03  0.7818608E-02  0.9822349E-01
         -2   -1    0    0    0  501 -0.00000000000E+00  0.00000000000E+00  0.48576670780E+03  0.48576670780E+03  0.25500000000E-02 0.  1.
          2   -1    0    0  501    0  0.00000000000E+00 -0.00000000000E+00 -0.13373501845E+04  0.13373501845E+04  0.25500000000E-02 0. -1.
    8880023    1    1    2    0    0  0.47970045844E+01 -0.36587632251E+03  0.12986729857E+03  0.76456799313E+03  0.65864270000E+03 0.  0.
    8880022    1    1    2    0    0 -0.47970045844E+01  0.36587632251E+03 -0.98145077525E+03  0.10585488991E+04  0.15294330000E+03 0.  0.
<mgrwt>
<rscale>  0 0.64176858E+03</rscale>
<asrwt>0</asrwt>
<pdfrwt beam="1">  1        2 0.20574618E+00 0.75345783E+03</pdfrwt>
<pdfrwt beam="2">  1       -2 0.74733340E-01 0.75345783E+03</pdfrwt>
<totfact> 0.25827621E+01</totfact>
</mgrwt>
</event>
<event>
 4    1  0.7595604E-007  0.7518956E+03  0.7818608E-02  0.9826560E-01
         -2   -1    0    0    0  501 -0.00000000000E+00  0.00000000000E+00  0.16344767709E+03  0.16344767711E+03  0.25500000000E-02 0.  1.
          2   -1    0    0  501    0  0.00000000000E+00 -0.00000000000E+00 -0.43739439251E+04  0.43739439251E+04  0.25500000000E-02 0. -1.
    8880023    1    1    2    0    0 -0.13359585080E+03  0.33717782836E+03 -0.77638357119E+03  0.10807952605E+04  0.65864270000E+03 0.  0.
    8880022    1    1    2    0    0  0.13359585080E+03 -0.33717782836E+03 -0.34341126768E+04  0.34565963417E+04  0.15294330000E+03 0.  0.
<mgrwt>
<rscale>  0 0.63956475E+03</rscale>
<asrwt>0</asrwt>
<pdfrwt beam="1">  1        2 0.67291436E+00 0.75189557E+03</pdfrwt>
<pdfrwt beam="2">  1       -2 0.25145800E-01 0.75189557E+03</pdfrwt>
<totfact> 0.25917499E+00</totfact>
</mgrwt>
</event>
<event>
 4    1  0.7595604E-007  0.7024862E+03  0.7818608E-02  0.9987040E-01
         -2   -1    0    0    0  501 -0.00000000000E+00  0.00000000000E+00  0.21630368060E+03  0.21630368061E+03  0.25500000000E-02 0.  1.
          2   -1    0    0  501    0  0.00000000000E+00 -0.00000000000E+00 -0.13014832052E+04  0.13014832052E+04  0.25500000000E-02 0. -1.
    8880023    1    1    2    0    0  0.17081674264E+03  0.17463771391E+03 -0.49000583771E+03  0.85650021479E+03  0.65864270000E+03 0.  1.
    8880022    1    1    2    0    0 -0.17081674264E+03 -0.17463771391E+03 -0.59517368689E+03  0.66128667102E+03  0.15294330000E+03 0.  0.
<mgrwt>
<rscale>  0 0.56222196E+03</rscale>
<asrwt>0</asrwt>
<pdfrwt beam="1">  1        2 0.20022818E+00 0.70248623E+03</pdfrwt>
<pdfrwt beam="2">  1       -2 0.33277490E-01 0.70248623E+03</pdfrwt>
<totfact> 0.14165440E+02</totfact>
</mgrwt>
</event>
<event>
 4    1  0.7595604E-007  0.8558563E+03  0.7818608E-02  0.9600977E-01
          2   -1    0    0  501    0  0.00000000000E+00  0.00000000000E+00  0.50223392803E+04  0.50223392803E+04  0.25500000000E-02 0. -1.
         -2   -1    0    0    0  501 -0.00000000000E+00 -0.00000000000E+00 -0.10606808883E+03  0.10606808886E+03  0.25500000000E-02 0.  1.
    8880023    1    1    2    0    0 -0.18562964260E+03  0.51402475553E+03  0.23739769063E+04  0.25235404438E+04  0.65864270000E+03 0.  0.
    8880022    1    1    2    0    0  0.18562964260E+03 -0.51402475553E+03  0.25422942851E+04  0.26048669253E+04  0.15294330000E+03 0.  1.
<mgrwt>
<rscale>  0 0.77231536E+03</rscale>
<asrwt>0</asrwt>
<pdfrwt beam="1">  1        2 0.77266763E+00 0.85585631E+03</pdfrwt>
<pdfrwt beam="2">  1       -2 0.16318166E-01 0.85585631E+03</pdfrwt>
<totfact> 0.11151835E+00</totfact>
</mgrwt>
</event>
<event>
 4    1  0.7595604E-007  0.9849577E+03  0.7818608E-02  0.9401508E-01
          2   -1    0    0  501    0  0.00000000000E+00  0.00000000000E+00  0.15047945095E+04  0.15047945095E+04  0.25500000000E-02 0. -1.
         -2   -1    0    0    0  501 -0.00000000000E+00 -0.00000000000E+00 -0.11880362532E+04  0.11880362532E+04  0.25500000000E-02 0.  1.
    8880023    1    1    2    0    0 -0.17142438320E+03  0.71200080245E+03 -0.85387356213E+03  0.13035496647E+04  0.65864270000E+03 0.  1.
    8880022    1    1    2    0    0  0.17142438320E+03 -0.71200080245E+03  0.11706318185E+04  0.13892810980E+04  0.15294330000E+03 0.  0.
<mgrwt>
<rscale>  0 0.91951716E+03</rscale>
<asrwt>0</asrwt>
<pdfrwt beam="1">  1        2 0.23150685E+00 0.98495770E+03</pdfrwt>
<pdfrwt beam="2">  1       -2 0.18277481E+00 0.98495770E+03</pdfrwt>
<totfact> 0.21775851E+00</totfact>
</mgrwt>
</event>
<event>
 4    1  0.7595604E-007  0.7059541E+03  0.7818608E-02  0.9973343E-01
          2   -1    0    0  501    0  0.00000000000E+00  0.00000000000E+00  0.93283981038E+03  0.93283981038E+03  0.25500000000E-02 0. -1.
         -2   -1    0    0    0  501 -0.00000000000E+00 -0.00000000000E+00 -0.45130424879E+03  0.45130424880E+03  0.25500000000E-02 0.  1.
    8880023    1    1    2    0    0  0.12981879246E+03  0.21842191233E+03 -0.11754719284E+03  0.71567352855E+03  0.65864270000E+03 0.  0.
    8880022    1    1    2    0    0 -0.12981879246E+03 -0.21842191233E+03  0.59908275442E+03  0.66847053063E+03  0.15294330000E+03 0.  0.
<mgrwt>
<rscale>  0 0.56834693E+03</rscale>
<asrwt>0</asrwt>
<pdfrwt beam="1">  1        2 0.14351382E+00 0.70595415E+03</pdfrwt>
<pdfrwt beam="2">  1       -2 0.69431423E-01 0.70595415E+03</pdfrwt>
<totfact> 0.53716597E+01</totfact>
</mgrwt>
</event>
<event>
 4    1  0.7595604E-007  0.7609663E+03  0.7818608E-02  0.9802612E-01
          2   -1    0    0  501    0  0.00000000000E+00  0.00000000000E+00  0.93259713437E+03  0.93259713438E+03  0.25500000000E-02 0. -1.
         -2   -1    0    0    0  501 -0.00000000000E+00 -0.00000000000E+00 -0.69903537526E+03  0.69903537526E+03  0.25500000000E-02 0.  1.
    8880023    1    1    2    0    0 -0.30975234912E+03  0.22206524864E+03 -0.41289151614E+03  0.86576503903E+03  0.65864270000E+03 0.  1.
    8880022    1    1    2    0    0  0.30975234912E+03 -0.22206524864E+03  0.64645327526E+03  0.76586747061E+03  0.15294330000E+03 0.  0.
<mgrwt>
<rscale>  0 0.65222543E+03</rscale>
<asrwt>0</asrwt>
<pdfrwt beam="1">  1        2 0.14347648E+00 0.76096629E+03</pdfrwt>
<pdfrwt beam="2">  1       -2 0.10754390E+00 0.76096629E+03</pdfrwt>
<totfact> 0.19630400E+01</totfact>
</mgrwt>
</event>
<event>
 4    1  0.9128962E-007  0.1000328E+04  0.7818608E-02  0.9381129E-01
          2   -1    0    0  501    0  0.00000000000E+00  0.00000000000E+00  0.18444794751E+04  0.18444794751E+04  0.25500000000E-02 0. -1.
         -2   -1    0    0    0  501 -0.00000000000E+00 -0.00000000000E+00 -0.20933675538E+04  0.20933675538E+04  0.25500000000E-02 0.  1.
    8880023    1    1    2    0    0  0.65867946891E+03  0.36467314757E+03 -0.18829605797E+04  0.21321810191E+04  0.65864270000E+03 0.  0.
    8880022    1    1    2    0    0 -0.65867946891E+03 -0.36467314757E+03  0.16340725010E+04  0.18056660098E+04  0.15294330000E+03 0.  0.
<mgrwt>
<rscale>  0 0.93645084E+03</rscale>
<asrwt>0</asrwt>
<pdfrwt beam="1">  1        2 0.28376607E+00 0.10003276E+04</pdfrwt>
<pdfrwt beam="2">  1       -2 0.32205655E+00 0.10003276E+04</pdfrwt>
<totfact> 0.19179225E-01</totfact>
</mgrwt>
</event>
<event>
 4    1  0.7595604E-007  0.9391443E+03  0.7818608E-02  0.9465908E-01
          2   -1    0    0  501    0  0.00000000000E+00  0.00000000000E+00  0.12425193239E+04  0.12425193239E+04  0.25500000000E-02 0. -1.
         -2   -1    0    0    0  501 -0.00000000000E+00 -0.00000000000E+00 -0.99345342410E+03  0.99345342411E+03  0.25500000000E-02 0.  1.
    8880023    1    1    2    0    0 -0.59747707931E+03  0.30199841070E+03 -0.62224417724E+03  0.11265788578E+04  0.65864270000E+03 0.  1.
    8880022    1    1    2    0    0  0.59747707931E+03 -0.30199841070E+03  0.87131007700E+03  0.11093938902E+04  0.15294330000E+03 0.  0.
<mgrwt>
<rscale>  0 0.86844625E+03</rscale>
<asrwt>0</asrwt>
<pdfrwt beam="1">  1        2 0.19115682E+00 0.93914435E+03</pdfrwt>
<pdfrwt beam="2">  1       -2 0.15283899E+00 0.93914435E+03</pdfrwt>
<totfact> 0.50832192E+00</totfact>
</mgrwt>
</event>
<event>
 4    1  0.7595604E-007  0.6679326E+03  0.7818608E-02  0.1017190E+00
         -2   -1    0    0    0  501 -0.00000000000E+00  0.00000000000E+00  0.35044063939E+03  0.35044063940E+03  0.25500000000E-02 0.  1.
          2   -1    0    0  501    0  0.00000000000E+00 -0.00000000000E+00 -0.16246931396E+04  0.16246931396E+04  0.25500000000E-02 0. -1.
    8880023    1    1    2    0    0 -0.75255478371E+02 -0.81610676234E+02  0.18944141976E+02  0.66820114956E+03  0.65864270000E+03 0.  1.
    8880022    1    1    2    0    0  0.75255478371E+02  0.81610676234E+02 -0.12931966422E+04  0.13069326295E+04  0.15294330000E+03 0.  0.
<mgrwt>
<rscale>  0 0.48714282E+03</rscale>
<asrwt>0</asrwt>
<pdfrwt beam="1">  1        2 0.24995279E+00 0.66793255E+03</pdfrwt>
<pdfrwt beam="2">  1       -2 0.53913945E-01 0.66793255E+03</pdfrwt>
<totfact> 0.36238883E+01</totfact>
</mgrwt>
</event>
<event>
 4    1  0.7595604E-007  0.9115645E+03  0.7818608E-02  0.9507716E-01
          2   -1    0    0  501    0  0.00000000000E+00  0.00000000000E+00  0.17921096595E+04  0.17921096595E+04  0.25500000000E-02 0. -1.
         -2   -1    0    0    0  501 -0.00000000000E+00 -0.00000000000E+00 -0.66686320428E+03  0.66686320428E+03  0.25500000000E-02 0.  1.
    8880023    1    1    2    0    0 -0.22025191306E+01 -0.63018628983E+03 -0.24423260937E+03  0.94371573301E+03  0.65864270000E+03 0.  0.
    8880022    1    1    2    0    0  0.22025191306E+01  0.63018628983E+03  0.13694790646E+04  0.15152571308E+04  0.15294330000E+03 0.  0.
<mgrwt>
<rscale>  0 0.83717323E+03</rscale>
<asrwt>0</asrwt>
<pdfrwt beam="1">  1        2 0.27570917E+00 0.91156449E+03</pdfrwt>
<pdfrwt beam="2">  1       -2 0.10259434E+00 0.91156449E+03</pdfrwt>
<totfact> 0.68295580E+00</totfact>
</mgrwt>
</event>
<event>
 4    1  0.7595604E-007  0.6860873E+03  0.7818608E-02  0.1006071E+00
          2   -1    0    0  501    0  0.00000000000E+00  0.00000000000E+00  0.80053430710E+03  0.80053430711E+03  0.25500000000E-02 0. -1.
         -2   -1    0    0    0  501 -0.00000000000E+00 -0.00000000000E+00 -0.50248956509E+03  0.50248956509E+03  0.25500000000E-02 0.  1.
    8880023    1    1    2    0    0 -0.13036430692E+03 -0.14110548964E+03 -0.22759836498E+03  0.72285325878E+03  0.65864270000E+03 0.  0.
    8880022    1    1    2    0    0  0.13036430692E+03  0.14110548964E+03  0.52564310700E+03  0.58017061342E+03  0.15294330000E+03 0.  0.
<mgrwt>
<rscale>  0 0.53066659E+03</rscale>
<asrwt>0</asrwt>
<pdfrwt beam="1">  1        2 0.12315912E+00 0.68608733E+03</pdfrwt>
<pdfrwt beam="2">  1       -2 0.77306088E-01 0.68608733E+03</pdfrwt>
<totfact> 0.52343475E+01</totfact>
</mgrwt>
</event>
<event>
 4    1  0.7595604E-007  0.7900809E+03  0.7818608E-02  0.9732668E-01
         -2   -1    0    0    0  501 -0.00000000000E+00  0.00000000000E+00  0.13477278880E+04  0.13477278880E+04  0.25500000000E-02 0.  1.
          2   -1    0    0  501    0  0.00000000000E+00 -0.00000000000E+00 -0.47190994180E+03  0.47190994181E+03  0.25500000000E-02 0. -1.
    8880023    1    1    2    0    0  0.95109025102E+01  0.43626504777E+03  0.10598773218E+04  0.13219560480E+04  0.65864270000E+03 0.  1.
    8880022    1    1    2    0    0 -0.95109025102E+01 -0.43626504777E+03 -0.18405937566E+03  0.49768178182E+03  0.15294330000E+03 0.  0.
<mgrwt>
<rscale>  0 0.69104607E+03</rscale>
<asrwt>0</asrwt>
<pdfrwt beam="1">  1        2 0.72601529E-01 0.79008092E+03</pdfrwt>
<pdfrwt beam="2">  1       -2 0.20734275E+00 0.79008092E+03</pdfrwt>
<totfact> 0.79689933E+00</totfact>
</mgrwt>
</event>
<event>
 4    1  0.7595604E-007  0.7615858E+03  0.7818608E-02  0.9801019E-01
          2   -1    0    0  501    0  0.00000000000E+00  0.00000000000E+00  0.91303018156E+03  0.91303018156E+03  0.25500000000E-02 0. -1.
         -2   -1    0    0    0  501 -0.00000000000E+00 -0.00000000000E+00 -0.38098525186E+03  0.38098525187E+03  0.25500000000E-02 0.  1.
    8880023    1    1    2    0    0  0.43445239903E+02  0.37988850954E+03  0.40762679100E+03  0.86381281280E+03  0.65864270000E+03 0. -1.
    8880022    1    1    2    0    0 -0.43445239903E+02 -0.37988850954E+03  0.12441813870E+03  0.43020262064E+03  0.15294330000E+03 0.  1.
<mgrwt>
<rscale>  0 0.65307880E+03</rscale>
<asrwt>0</asrwt>
<pdfrwt beam="1">  1        2 0.14046618E+00 0.76158583E+03</pdfrwt>
<pdfrwt beam="2">  1       -2 0.58613117E-01 0.76158583E+03</pdfrwt>
<totfact> 0.79187988E+01</totfact>
</mgrwt>
</event>
<event>
 4    1  0.7595604E-007  0.7240477E+03  0.7818608E-02  0.9909121E-01
          2   -1    0    0  501    0  0.00000000000E+00  0.00000000000E+00  0.15843661583E+04  0.15843661583E+04  0.25500000000E-02 0. -1.
         -2   -1    0    0    0  501 -0.00000000000E+00 -0.00000000000E+00 -0.42184519936E+03  0.42184519936E+03  0.25500000000E-02 0.  1.
    8880023    1    1    2    0    0 -0.25116822292E+03 -0.16537651425E+03 -0.70871087757E+02  0.72750792780E+03  0.65864270000E+03 0.  1.
    8880022    1    1    2    0    0  0.25116822292E+03  0.16537651425E+03  0.12333920467E+04  0.12787034299E+04  0.15294330000E+03 0.  0.
<mgrwt>
<rscale>  0 0.59821296E+03</rscale>
<asrwt>0</asrwt>
<pdfrwt beam="1">  1        2 0.24374864E+00 0.72404770E+03</pdfrwt>
<pdfrwt beam="2">  1       -2 0.64899263E-01 0.72404770E+03</pdfrwt>
<totfact> 0.25631417E+01</totfact>
</mgrwt>
</event>
<event>
 4    1  0.7595604E-007  0.6946207E+03  0.7818608E-02  0.1002029E+00
          2   -1    0    0  501    0  0.00000000000E+00  0.00000000000E+00  0.79716918585E+03  0.79716918585E+03  0.25500000000E-02 0. -1.
         -2   -1    0    0    0  501 -0.00000000000E+00 -0.00000000000E+00 -0.37664035794E+03  0.37664035795E+03  0.25500000000E-02 0.  1.
    8880023    1    1    2    0    0 -0.21863433514E+03  0.29777851311E+02  0.24117879749E+02  0.69503925883E+03  0.65864270000E+03 0.  1.
    8880022    1    1    2    0    0  0.21863433514E+03 -0.29777851311E+02  0.39641094816E+03  0.47877028497E+03  0.15294330000E+03 0.  0.
<mgrwt>
<rscale>  0 0.54769294E+03</rscale>
<asrwt>0</asrwt>
<pdfrwt beam="1">  1        2 0.12264141E+00 0.69462069E+03</pdfrwt>
<pdfrwt beam="2">  1       -2 0.57944671E-01 0.69462069E+03</pdfrwt>
<totfact> 0.98041828E+01</totfact>
</mgrwt>
</event>
<event>
 4    1  0.7595604E-007  0.9153533E+03  0.7818608E-02  0.9501821E-01
          2   -1    0    0  501    0  0.00000000000E+00  0.00000000000E+00  0.10587287999E+04  0.10587287999E+04  0.25500000000E-02 0. -1.
         -2   -1    0    0    0  501 -0.00000000000E+00 -0.00000000000E+00 -0.10553899510E+04  0.10553899510E+04  0.25500000000E-02 0.  1.
    8880023    1    1    2    0    0 -0.54996560319E+03  0.31874648799E+03 -0.70112279724E+03  0.11530155556E+04  0.65864270000E+03 0.  1.
    8880022    1    1    2    0    0  0.54996560319E+03 -0.31874648799E+03  0.70446164615E+03  0.96110319540E+03  0.15294330000E+03 0.  0.
<mgrwt>
<rscale>  0 0.84149712E+03</rscale>
<asrwt>0</asrwt>
<pdfrwt beam="1">  1        2 0.16288135E+00 0.91535332E+03</pdfrwt>
<pdfrwt beam="2">  1       -2 0.16236769E+00 0.91535332E+03</pdfrwt>
<totfact> 0.55929015E+00</totfact>
</mgrwt>
</event>
<event>
 4    1  0.7595604E-007  0.1195786E+04  0.7818608E-02  0.9161229E-01
         -2   -1    0    0    0  501 -0.00000000000E+00  0.00000000000E+00  0.50902075951E+03  0.50902075952E+03  0.25500000000E-02 0.  1.
          2   -1    0    0  501    0  0.00000000000E+00 -0.00000000000E+00 -0.34071037158E+04  0.34071037158E+04  0.25500000000E-02 0. -1.
    8880023    1    1    2    0    0  0.90951393075E+03 -0.41094836888E+03 -0.46707204951E+03  0.12837681480E+04  0.65864270000E+03 0.  0.
    8880022    1    1    2    0    0 -0.90951393075E+03  0.41094836888E+03 -0.24310109068E+04  0.26323563274E+04  0.15294330000E+03 0.  0.
<mgrwt>
<rscale>  0 0.11462722E+04</rscale>
<asrwt>0</asrwt>
<pdfrwt beam="1">  1        2 0.52416979E+00 0.11957861E+04</pdfrwt>
<pdfrwt beam="2">  1       -2 0.78310888E-01 0.11957861E+04</pdfrwt>
<totfact> 0.13702719E+00</totfact>
</mgrwt>
</event>
<event>
 4    1  0.7595604E-007  0.6892200E+03  0.7818608E-02  0.1004526E+00
          2   -1    0    0  501    0  0.00000000000E+00  0.00000000000E+00  0.97715559878E+03  0.97715559879E+03  0.25500000000E-02 0. -1.
         -2   -1    0    0    0  501 -0.00000000000E+00 -0.00000000000E+00 -0.54121690991E+03  0.54121690991E+03  0.25500000000E-02 0.  1.
    8880023    1    1    2    0    0 -0.20077333291E+03  0.30067722092E+02 -0.29110768543E+03  0.74817637620E+03  0.65864270000E+03 0.  1.
    8880022    1    1    2    0    0  0.20077333291E+03 -0.30067722092E+02  0.72704637431E+03  0.77019613251E+03  0.15294330000E+03 0.  0.
<mgrwt>
<rscale>  0 0.53709637E+03</rscale>
<asrwt>0</asrwt>
<pdfrwt beam="1">  1        2 0.15033163E+00 0.68922000E+03</pdfrwt>
<pdfrwt beam="2">  1       -2 0.83264140E-01 0.68922000E+03</pdfrwt>
<totfact> 0.33627388E+01</totfact>
</mgrwt>
</event>
<event>
 4    1  0.7595604E-007  0.9976164E+03  0.7818608E-02  0.9384683E-01
          2   -1    0    0  501    0  0.00000000000E+00  0.00000000000E+00  0.35175173648E+04  0.35175173648E+04  0.25500000000E-02 0. -1.
         -2   -1    0    0    0  501 -0.00000000000E+00 -0.00000000000E+00 -0.30867765566E+03  0.30867765567E+03  0.25500000000E-02 0.  1.
    8880023    1    1    2    0    0 -0.96280446950E+02  0.74307355964E+03  0.74134507913E+03  0.12429122946E+04  0.65864270000E+03 0.  0.
    8880022    1    1    2    0    0  0.96280446950E+02 -0.74307355964E+03  0.24674946300E+04  0.25832827258E+04  0.15294330000E+03 0.  0.
<mgrwt>
<rscale>  0 0.93347017E+03</rscale>
<asrwt>0</asrwt>
<pdfrwt beam="1">  1        2 0.54115653E+00 0.99761638E+03</pdfrwt>
<pdfrwt beam="2">  1       -2 0.47488869E-01 0.99761638E+03</pdfrwt>
<totfact> 0.34475209E+00</totfact>
</mgrwt>
</event>
<event>
 4    1  0.7595604E-007  0.7814523E+03  0.7818608E-02  0.9752437E-01
         -2   -1    0    0    0  501 -0.00000000000E+00  0.00000000000E+00  0.13565788994E+03  0.13565788996E+03  0.25500000000E-02 0.  1.
          2   -1    0    0  501    0  0.00000000000E+00 -0.00000000000E+00 -0.37348198597E+04  0.37348198597E+04  0.25500000000E-02 0. -1.
    8880023    1    1    2    0    0 -0.14104544579E+03 -0.39618641083E+03 -0.12144682919E+04  0.14441609773E+04  0.65864270000E+03 0. -1.
    8880022    1    1    2    0    0  0.14104544579E+03  0.39618641083E+03 -0.23846936779E+04  0.24263167724E+04  0.15294330000E+03 0.  0.
<mgrwt>
<rscale>  0 0.67978752E+03</rscale>
<asrwt>0</asrwt>
<pdfrwt beam="1">  1        2 0.57458759E+00 0.78145230E+03</pdfrwt>
<pdfrwt beam="2">  1       -2 0.20870447E-01 0.78145230E+03</pdfrwt>
<totfact> 0.11781920E+01</totfact>
</mgrwt>
</event>
<event>
 4    1  0.7595604E-007  0.9336752E+03  0.7818608E-02  0.9474001E-01
         -2   -1    0    0    0  501 -0.00000000000E+00  0.00000000000E+00  0.64978311309E+03  0.64978311309E+03  0.25500000000E-02 0.  1.
          2   -1    0    0  501    0  0.00000000000E+00 -0.00000000000E+00 -0.10094510677E+04  0.10094510677E+04  0.25500000000E-02 0. -1.
    8880023    1    1    2    0    0  0.51979802517E+03  0.40957197844E+03 -0.28347833544E+03  0.97576091612E+03  0.65864270000E+03 0.  0.
    8880022    1    1    2    0    0 -0.51979802517E+03 -0.40957197844E+03 -0.76189619209E+02  0.68347326472E+03  0.15294330000E+03 0.  0.
<mgrwt>
<rscale>  0 0.86228024E+03</rscale>
<asrwt>0</asrwt>
<pdfrwt beam="1">  1        2 0.15530017E+00 0.93367521E+03</pdfrwt>
<pdfrwt beam="2">  1       -2 0.99966632E-01 0.93367521E+03</pdfrwt>
<totfact> 0.20520649E+01</totfact>
</mgrwt>
</event>
<event>
 4    1  0.7595604E-007  0.7890391E+03  0.7818608E-02  0.9735017E-01
         -2   -1    0    0    0  501 -0.00000000000E+00  0.00000000000E+00  0.17102447249E+03  0.17102447250E+03  0.25500000000E-02 0.  1.
          2   -1    0    0  501    0  0.00000000000E+00 -0.00000000000E+00 -0.30842399131E+04  0.30842399131E+04  0.25500000000E-02 0. -1.
    8880023    1    1    2    0    0  0.13609221642E+03  0.41261524858E+03 -0.93171583653E+03  0.12209328569E+04  0.65864270000E+03 0.  1.
    8880022    1    1    2    0    0 -0.13609221642E+03 -0.41261524858E+03 -0.19814996041E+04  0.20343315287E+04  0.15294330000E+03 0.  0.
<mgrwt>
<rscale>  0 0.68969625E+03</rscale>
<asrwt>0</asrwt>
<pdfrwt beam="1">  1        2 0.47449841E+00 0.78903906E+03</pdfrwt>
<pdfrwt beam="2">  1       -2 0.26311460E-01 0.78903906E+03</pdfrwt>
<totfact> 0.21220548E+01</totfact>
</mgrwt>
</event>
<event>
 4    1  0.7595604E-007  0.7245038E+03  0.7818608E-02  0.9907631E-01
         -2   -1    0    0    0  501 -0.00000000000E+00  0.00000000000E+00  0.32660063630E+03  0.32660063631E+03  0.25500000000E-02 0.  1.
          2   -1    0    0  501    0  0.00000000000E+00 -0.00000000000E+00 -0.25793723468E+04  0.25793723468E+04  0.25500000000E-02 0. -1.
    8880023    1    1    2    0    0  0.37198517820E+02  0.29951931377E+03 -0.10542749381E+03  0.73213435363E+03  0.65864270000E+03 0.  0.
    8880022    1    1    2    0    0 -0.37198517820E+02 -0.29951931377E+03 -0.21473442167E+04  0.21738386294E+04  0.15294330000E+03 0.  0.
<mgrwt>
<rscale>  0 0.59892869E+03</rscale>
<asrwt>0</asrwt>
<pdfrwt beam="1">  1        2 0.39682650E+00 0.72450380E+03</pdfrwt>
<pdfrwt beam="2">  1       -2 0.50246253E-01 0.72450380E+03</pdfrwt>
<totfact> 0.12362429E+01</totfact>
</mgrwt>
</event>
<event>
 4    1  0.7595604E-007  0.6616742E+03  0.7818608E-02  0.1022503E+00
         -2   -1    0    0    0  501 -0.00000000000E+00  0.00000000000E+00  0.50261413988E+02  0.50261414053E+02  0.25500000000E-02 0.  1.
          2   -1    0    0  501    0  0.00000000000E+00 -0.00000000000E+00 -0.34043075036E+04  0.34043075036E+04  0.25500000000E-02 0. -1.
    8880023    1    1    2    0    0  0.60360397491E+02  0.18950499996E+02 -0.27053641926E+04  0.27851046874E+04  0.65864270000E+03 0.  1.
    8880022    1    1    2    0    0 -0.60360397491E+02 -0.18950499996E+02 -0.64868189707E+03  0.66946423029E+03  0.15294330000E+03 0. -1.
<mgrwt>
<rscale>  0 0.46794021E+03</rscale>
<asrwt>0</asrwt>
<pdfrwt beam="1">  1        2 0.52373944E+00 0.66167417E+03</pdfrwt>
<pdfrwt beam="2">  1       -2 0.77325279E-02 0.66167417E+03</pdfrwt>
<totfact> 0.10678941E+02</totfact>
</mgrwt>
</event>
<event>
 4    1  0.7595604E-007  0.7485578E+03  0.7818608E-02  0.9835685E-01
          2   -1    0    0  501    0  0.00000000000E+00  0.00000000000E+00  0.40127725463E+04  0.40127725463E+04  0.25500000000E-02 0. -1.
         -2   -1    0    0    0  501 -0.00000000000E+00 -0.00000000000E+00 -0.14611373993E+03  0.14611373996E+03  0.25500000000E-02 0.  1.
    8880023    1    1    2    0    0 -0.35569449064E+03  0.31556184698E+01  0.91613250195E+03  0.11830627608E+04  0.65864270000E+03 0.  1.
    8880022    1    1    2    0    0  0.35569449064E+03 -0.31556184698E+01  0.29505263044E+04  0.29758235255E+04  0.15294330000E+03 0. -1.
<mgrwt>
<rscale>  0 0.63482132E+03</rscale>
<asrwt>0</asrwt>
<pdfrwt beam="1">  1        2 0.61734953E+00 0.74855777E+03</pdfrwt>
<pdfrwt beam="2">  1       -2 0.22479040E-01 0.74855777E+03</pdfrwt>
<totfact> 0.64004141E+00</totfact>
</mgrwt>
</event>
<event>
 4    1  0.7595604E-007  0.8546019E+03  0.7818608E-02  0.9603239E-01
         -2   -1    0    0    0  501 -0.00000000000E+00  0.00000000000E+00  0.65451457165E+03  0.65451457166E+03  0.25500000000E-02 0.  1.
          2   -1    0    0  501    0  0.00000000000E+00 -0.00000000000E+00 -0.14069752771E+04  0.14069752771E+04  0.25500000000E-02 0. -1.
    8880023    1    1    2    0    0  0.43061189171E+03 -0.33332818904E+03  0.26724852244E+03  0.89541401703E+03  0.65864270000E+03 0.  1.
    8880022    1    1    2    0    0 -0.43061189171E+03  0.33332818904E+03 -0.10197092279E+04  0.11660758317E+04  0.15294330000E+03 0.  0.
<mgrwt>
<rscale>  0 0.77082198E+03</rscale>
<asrwt>0</asrwt>
<pdfrwt beam="1">  1        2 0.21645773E+00 0.85460195E+03</pdfrwt>
<pdfrwt beam="2">  1       -2 0.10069455E+00 0.85460195E+03</pdfrwt>
<totfact> 0.11766616E+01</totfact>
</mgrwt>
</event>
<event>
 4    1  0.7595604E-007  0.8335883E+03  0.7818608E-02  0.9642391E-01
         -2   -1    0    0    0  501 -0.00000000000E+00  0.00000000000E+00  0.58974776373E+03  0.58974776374E+03  0.25500000000E-02 0.  1.
          2   -1    0    0  501    0  0.00000000000E+00 -0.00000000000E+00 -0.17844047097E+04  0.17844047097E+04  0.25500000000E-02 0. -1.
    8880023    1    1    2    0    0  0.16092670110E+03 -0.48493486176E+03 -0.15312768241E+04  0.17434672757E+04  0.65864270000E+03 0. -1.
    8880022    1    1    2    0    0 -0.16092670110E+03  0.48493486176E+03  0.33661987811E+03  0.63068519772E+03  0.15294330000E+03 0.  0.
<mgrwt>
<rscale>  0 0.74552912E+03</rscale>
<asrwt>0</asrwt>
<pdfrwt beam="1">  1        2 0.27452380E+00 0.83358829E+03</pdfrwt>
<pdfrwt beam="2">  1       -2 0.90730426E-01 0.83358829E+03</pdfrwt>
<totfact> 0.93006242E+00</totfact>
</mgrwt>
</event>
<event>
 4    1  0.7595604E-007  0.6695906E+03  0.7818608E-02  0.1015958E+00
         -2   -1    0    0    0  501 -0.00000000000E+00  0.00000000000E+00  0.66121058496E+03  0.66121058497E+03  0.25500000000E-02 0.  1.
          2   -1    0    0  501    0  0.00000000000E+00 -0.00000000000E+00 -0.73917664587E+03  0.73917664588E+03  0.25500000000E-02 0. -1.
    8880023    1    1    2    0    0  0.11607540534E+03 -0.32678095955E+02  0.47050082776E+03  0.81836580627E+03  0.65864270000E+03 0.  1.
    8880022    1    1    2    0    0 -0.11607540534E+03  0.32678095955E+02 -0.54846688867E+03  0.58202142458E+03  0.15294330000E+03 0.  0.
<mgrwt>
<rscale>  0 0.49173846E+03</rscale>
<asrwt>0</asrwt>
<pdfrwt beam="1">  1        2 0.11371948E+00 0.66959059E+03</pdfrwt>
<pdfrwt beam="2">  1       -2 0.10172470E+00 0.66959059E+03</pdfrwt>
<totfact> 0.30944989E+01</totfact>
</mgrwt>
</event>
<event>
 4    1  0.7595604E-007  0.6678581E+03  0.7818608E-02  0.1017247E+00
         -2   -1    0    0    0  501 -0.00000000000E+00  0.00000000000E+00  0.76830470310E+02  0.76830470352E+02  0.25500000000E-02 0.  1.
          2   -1    0    0  501    0  0.00000000000E+00 -0.00000000000E+00 -0.36519905616E+04  0.36519905616E+04  0.25500000000E-02 0. -1.
    8880023    1    1    2    0    0  0.10871307632E+03 -0.20142941091E+02 -0.14628075251E+04  0.16080548289E+04  0.65864270000E+03 0.  1.
    8880022    1    1    2    0    0 -0.10871307632E+03  0.20142941091E+02 -0.21123525662E+04  0.21207662031E+04  0.15294330000E+03 0.  0.
<mgrwt>
<rscale>  0 0.48693242E+03</rscale>
<asrwt>0</asrwt>
<pdfrwt beam="1">  1        2 0.56184457E+00 0.66785813E+03</pdfrwt>
<pdfrwt beam="2">  1       -2 0.11820075E-01 0.66785813E+03</pdfrwt>
<totfact> 0.36292311E+01</totfact>
</mgrwt>
</event>
<event>
 4    1  0.7595604E-007  0.9303624E+03  0.7818608E-02  0.9478950E-01
          2   -1    0    0  501    0  0.00000000000E+00  0.00000000000E+00  0.12964733627E+04  0.12964733627E+04  0.25500000000E-02 0. -1.
         -2   -1    0    0    0  501 -0.00000000000E+00 -0.00000000000E+00 -0.88591820400E+03  0.88591820401E+03  0.25500000000E-02 0.  1.
    8880023    1    1    2    0    0 -0.55821313855E+03 -0.34664392064E+03 -0.49444993650E+03  0.10535914112E+04  0.65864270000E+03 0.  0.
    8880022    1    1    2    0    0  0.55821313855E+03  0.34664392064E+03  0.90500509522E+03  0.11288001555E+04  0.15294330000E+03 0.  0.
<mgrwt>
<rscale>  0 0.85853713E+03</rscale>
<asrwt>0</asrwt>
<pdfrwt beam="1">  1        2 0.19945744E+00 0.93036236E+03</pdfrwt>
<pdfrwt beam="2">  1       -2 0.13629511E+00 0.93036236E+03</pdfrwt>
<totfact> 0.63913731E+00</totfact>
</mgrwt>
</event>
<event>
 4    1  0.7595604E-007  0.1063637E+04  0.7818608E-02  0.9302664E-01
          2   -1    0    0  501    0  0.00000000000E+00  0.00000000000E+00  0.76249100153E+03  0.76249100153E+03  0.25500000000E-02 0. -1.
         -2   -1    0    0    0  501 -0.00000000000E+00 -0.00000000000E+00 -0.21836648285E+04  0.21836648285E+04  0.25500000000E-02 0.  1.
    8880023    1    1    2    0    0  0.46228716289E+02  0.83389284875E+03 -0.17398861587E+04  0.20392470250E+04  0.65864270000E+03 0.  1.
    8880022    1    1    2    0    0 -0.46228716289E+02 -0.83389284875E+03  0.31871233167E+03  0.90690880511E+03  0.15294330000E+03 0.  0.
<mgrwt>
<rscale>  0 0.10053795E+04</rscale>
<asrwt>0</asrwt>
<pdfrwt beam="1">  1        2 0.11730631E+00 0.10636374E+04</pdfrwt>
<pdfrwt beam="2">  1       -2 0.33594843E+00 0.10636374E+04</pdfrwt>
<totfact> 0.70052625E-01</totfact>
</mgrwt>
</event>
<event>
 4    1  0.7595604E-007  0.9932544E+03  0.7818608E-02  0.9390437E-01
         -2   -1    0    0    0  501 -0.00000000000E+00  0.00000000000E+00  0.10681648674E+04  0.10681648674E+04  0.25500000000E-02 0.  1.
          2   -1    0    0  501    0  0.00000000000E+00 -0.00000000000E+00 -0.13020460198E+04  0.13020460199E+04  0.25500000000E-02 0. -1.
    8880023    1    1    2    0    0  0.68470805890E+03 -0.28968774611E+03  0.66379354476E+03  0.11946447976E+04  0.65864270000E+03 0.  0.
    8880022    1    1    2    0    0 -0.68470805890E+03  0.28968774611E+03 -0.89767469718E+03  0.11755660897E+04  0.15294330000E+03 0.  0.
<mgrwt>
<rscale>  0 0.92866907E+03</rscale>
<asrwt>0</asrwt>
<pdfrwt beam="1">  1        2 0.20031477E+00 0.99325441E+03</pdfrwt>
<pdfrwt beam="2">  1       -2 0.16433306E+00 0.99325441E+03</pdfrwt>
<totfact> 0.38298540E+00</totfact>
</mgrwt>
</event>
<event>
 4    1  0.7595604E-007  0.7464242E+03  0.7818608E-02  0.9841614E-01
          2   -1    0    0  501    0  0.00000000000E+00  0.00000000000E+00  0.14379488459E+04  0.14379488459E+04  0.25500000000E-02 0. -1.
         -2   -1    0    0    0  501 -0.00000000000E+00 -0.00000000000E+00 -0.39252934775E+03  0.39252934776E+03  0.25500000000E-02 0.  1.
    8880023    1    1    2    0    0 -0.33190850737E+03  0.11478542024E+03  0.32032449123E+02  0.74711125947E+03  0.65864270000E+03 0.  1.
    8880022    1    1    2    0    0  0.33190850737E+03 -0.11478542024E+03  0.10133870490E+04  0.10833669342E+04  0.15294330000E+03 0.  0.
<mgrwt>
<rscale>  0 0.63176330E+03</rscale>
<asrwt>0</asrwt>
<pdfrwt beam="1">  1        2 0.22122290E+00 0.74642425E+03</pdfrwt>
<pdfrwt beam="2">  1       -2 0.60389130E-01 0.74642425E+03</pdfrwt>
<totfact> 0.35949825E+01</totfact>
</mgrwt>
</event>
<event>
 4    1  0.7595604E-007  0.7722535E+03  0.7818608E-02  0.9774359E-01
         -2   -1    0    0    0  501 -0.00000000000E+00  0.00000000000E+00  0.45565154281E+03  0.45565154282E+03  0.25500000000E-02 0.  1.
          2   -1    0    0  501    0  0.00000000000E+00 -0.00000000000E+00 -0.81255813579E+03  0.81255813579E+03  0.25500000000E-02 0. -1.
    8880023    1    1    2    0    0 -0.38236456579E+03 -0.12791645199E+03 -0.13758689239E+03  0.78441420122E+03  0.65864270000E+03 0.  1.
    8880022    1    1    2    0    0  0.38236456579E+03  0.12791645199E+03 -0.21931970059E+03  0.48379547739E+03  0.15294330000E+03 0. -1.
<mgrwt>
<rscale>  0 0.66756947E+03</rscale>
<asrwt>0</asrwt>
<pdfrwt beam="1">  1        2 0.12500894E+00 0.77225351E+03</pdfrwt>
<pdfrwt beam="2">  1       -2 0.70100238E-01 0.77225351E+03</pdfrwt>
<totfact> 0.63251615E+01</totfact>
</mgrwt>
</event>
<event>
 4    1  0.7595604E-007  0.6640666E+03  0.7818608E-02  0.1020330E+00
         -2   -1    0    0    0  501 -0.00000000000E+00  0.00000000000E+00  0.90441920373E+03  0.90441920374E+03  0.25500000000E-02 0.  1.
          2   -1    0    0  501    0  0.00000000000E+00 -0.00000000000E+00 -0.44751455366E+03  0.44751455367E+03  0.25500000000E-02 0. -1.
    8880023    1    1    2    0    0 -0.32665377962E+02  0.78148387775E+02  0.75553443245E+03  0.10058909893E+04  0.65864270000E+03 0.  1.
    8880022    1    1    2    0    0  0.32665377962E+02 -0.78148387775E+02 -0.29862978239E+03  0.34604276813E+03  0.15294330000E+03 0.  0.
<mgrwt>
<rscale>  0 0.47567823E+03</rscale>
<asrwt>0</asrwt>
<pdfrwt beam="1">  1        2 0.68848394E-01 0.66406657E+03</pdfrwt>
<pdfrwt beam="2">  1       -2 0.13914141E+00 0.66406657E+03</pdfrwt>
<totfact> 0.26050937E+01</totfact>
</mgrwt>
</event>
<event>
 4    1  0.7595604E-007  0.1140880E+04  0.7818608E-02  0.9216851E-01
          2   -1    0    0  501    0  0.00000000000E+00  0.00000000000E+00  0.13225627521E+04  0.13225627521E+04  0.25500000000E-02 0. -1.
         -2   -1    0    0    0  501 -0.00000000000E+00 -0.00000000000E+00 -0.13927014987E+04  0.13927014987E+04  0.25500000000E-02 0.  1.
    8880023    1    1    2    0    0  0.28339859592E+02  0.93112458117E+03 -0.90406111027E+03  0.14556554643E+04  0.65864270000E+03 0.  0.
    8880022    1    1    2    0    0 -0.28339859592E+02 -0.93112458117E+03  0.83392236370E+03  0.12596087865E+04  0.15294330000E+03 0.  0.
<mgrwt>
<rscale>  0 0.10881181E+04</rscale>
<asrwt>0</asrwt>
<pdfrwt beam="1">  1        2 0.20347119E+00 0.11408796E+04</pdfrwt>
<pdfrwt beam="2">  1       -2 0.21426177E+00 0.11408796E+04</pdfrwt>
<totfact> 0.16845952E+00</totfact>
</mgrwt>
</event>
<event>
 4    1  0.7595604E-007  0.8185526E+03  0.7818608E-02  0.9672030E-01
         -2   -1    0    0    0  501 -0.00000000000E+00  0.00000000000E+00  0.58966034655E+03  0.58966034656E+03  0.25500000000E-02 0.  1.
          2   -1    0    0  501    0  0.00000000000E+00 -0.00000000000E+00 -0.85013443649E+03  0.85013443649E+03  0.25500000000E-02 0. -1.
    8880023    1    1    2    0    0  0.44214592209E+03  0.20180460299E+03  0.86862734516E+02  0.82314850126E+03  0.65864270000E+03 0.  0.
    8880022    1    1    2    0    0 -0.44214592209E+03 -0.20180460299E+03 -0.34733682445E+03  0.61664628179E+03  0.15294330000E+03 0.  0.
<mgrwt>
<rscale>  0 0.72706805E+03</rscale>
<asrwt>0</asrwt>
<pdfrwt beam="1">  1        2 0.13078991E+00 0.81855258E+03</pdfrwt>
<pdfrwt beam="2">  1       -2 0.90716976E-01 0.81855258E+03</pdfrwt>
<totfact> 0.33208521E+01</totfact>
</mgrwt>
</event>
<event>
 4    1  0.7595604E-007  0.7116073E+03  0.7818608E-02  0.9952080E-01
          2   -1    0    0  501    0  0.00000000000E+00  0.00000000000E+00  0.10325408985E+04  0.10325408985E+04  0.25500000000E-02 0. -1.
         -2   -1    0    0    0  501 -0.00000000000E+00 -0.00000000000E+00 -0.68129502301E+03  0.68129502301E+03  0.25500000000E-02 0.  1.
    8880023    1    1    2    0    0 -0.10694578590E+02 -0.26918471203E+03 -0.45872298322E+03  0.84664736745E+03  0.65864270000E+03 0.  1.
    8880022    1    1    2    0    0  0.10694578590E+02  0.26918471203E+03  0.80996885867E+03  0.86718855403E+03  0.15294330000E+03 0.  0.
<mgrwt>
<rscale>  0 0.57802315E+03</rscale>
<asrwt>0</asrwt>
<pdfrwt beam="1">  1        2 0.15885245E+00 0.71160733E+03</pdfrwt>
<pdfrwt beam="2">  1       -2 0.10481462E+00 0.71160733E+03</pdfrwt>
<totfact> 0.18103313E+01</totfact>
</mgrwt>
</event>
<event>
 4    1  0.7595604E-007  0.8200326E+03  0.7818608E-02  0.9669046E-01
          2   -1    0    0  501    0  0.00000000000E+00  0.00000000000E+00  0.14091261316E+04  0.14091261316E+04  0.25500000000E-02 0. -1.
         -2   -1    0    0    0  501 -0.00000000000E+00 -0.00000000000E+00 -0.79353887205E+03  0.79353887206E+03  0.25500000000E-02 0.  1.
    8880023    1    1    2    0    0 -0.42860952895E+03  0.23438679224E+03 -0.51031763880E+03  0.96585588750E+03  0.65864270000E+03 0.  0.
    8880022    1    1    2    0    0  0.42860952895E+03 -0.23438679224E+03  0.11259048983E+04  0.12368091161E+04  0.15294330000E+03 0.  0.
<mgrwt>
<rscale>  0 0.72890050E+03</rscale>
<asrwt>0</asrwt>
<pdfrwt beam="1">  1        2 0.21678863E+00 0.82003262E+03</pdfrwt>
<pdfrwt beam="2">  1       -2 0.12208290E+00 0.82003262E+03</pdfrwt>
<totfact> 0.73747590E+00</totfact>
</mgrwt>
</event>
<event>
 4    1  0.7595604E-007  0.6593871E+03  0.7818608E-02  0.1024793E+00
         -2   -1    0    0    0  501 -0.00000000000E+00  0.00000000000E+00  0.25150502711E+03  0.25150502712E+03  0.25500000000E-02 0.  1.
          2   -1    0    0  501    0  0.00000000000E+00 -0.00000000000E+00 -0.71649859793E+03  0.71649859794E+03  0.25500000000E-02 0. -1.
    8880023    1    1    2    0    0  0.19510975466E+02 -0.24505576386E+02 -0.25645782036E+03  0.70750407866E+03  0.65864270000E+03 0.  1.
    8880022    1    1    2    0    0 -0.19510975466E+02  0.24505576386E+02 -0.20853575046E+03  0.26049954640E+03  0.15294330000E+03 0.  0.
<mgrwt>
<rscale>  0 0.45995851E+03</rscale>
<asrwt>0</asrwt>
<pdfrwt beam="1">  1        2 0.11023055E+00 0.65938715E+03</pdfrwt>
<pdfrwt beam="2">  1       -2 0.38693081E-01 0.65938715E+03</pdfrwt>
<totfact> 0.25416078E+02</totfact>
</mgrwt>
</event>
<event>
 4    1  0.7595604E-007  0.7803665E+03  0.7818608E-02  0.9754977E-01
         -2   -1    0    0    0  501 -0.00000000000E+00  0.00000000000E+00  0.10078364085E+04  0.10078364085E+04  0.25500000000E-02 0.  1.
          2   -1    0    0  501    0  0.00000000000E+00 -0.00000000000E+00 -0.11003855197E+04  0.11003855197E+04  0.25500000000E-02 0. -1.
    8880023    1    1    2    0    0  0.41621446285E+03  0.43899967733E+02  0.79568226516E+03  0.11144873977E+04  0.65864270000E+03 0.  1.
    8880022    1    1    2    0    0 -0.41621446285E+03 -0.43899967733E+02 -0.88823137636E+03  0.99373453056E+03  0.15294330000E+03 0.  0.
<mgrwt>
<rscale>  0 0.67835748E+03</rscale>
<asrwt>0</asrwt>
<pdfrwt beam="1">  1        2 0.16929008E+00 0.78036651E+03</pdfrwt>
<pdfrwt beam="2">  1       -2 0.15505175E+00 0.78036651E+03</pdfrwt>
<totfact> 0.60685110E+00</totfact>
</mgrwt>
</event>
<event>
 4    1  0.7595604E-007  0.6783292E+03  0.7818608E-02  0.1010285E+00
          2   -1    0    0  501    0  0.00000000000E+00  0.00000000000E+00  0.13056323943E+04  0.13056323943E+04  0.25500000000E-02 0. -1.
         -2   -1    0    0    0  501 -0.00000000000E+00 -0.00000000000E+00 -0.19484813875E+03  0.19484813876E+03  0.25500000000E-02 0.  1.
    8880023    1    1    2    0    0 -0.52621822012E+02  0.15346403885E+03  0.47871733367E+03  0.83024138610E+03  0.65864270000E+03 0.  1.
    8880022    1    1    2    0    0  0.52621822012E+02 -0.15346403885E+03  0.63206692187E+03  0.67023914695E+03  0.15294330000E+03 0.  0.
<mgrwt>
<rscale>  0 0.51361529E+03</rscale>
<asrwt>0</asrwt>
<pdfrwt beam="1">  1        2 0.20086653E+00 0.67832918E+03</pdfrwt>
<pdfrwt beam="2">  1       -2 0.29976636E-01 0.67832918E+03</pdfrwt>
<totfact> 0.17159572E+02</totfact>
</mgrwt>
</event>
<event>
 4    1  0.7595604E-007  0.6612156E+03  0.7818608E-02  0.1022944E+00
          2   -1    0    0  501    0  0.00000000000E+00  0.00000000000E+00  0.17568950190E+04  0.17568950190E+04  0.25500000000E-02 0. -1.
         -2   -1    0    0    0  501 -0.00000000000E+00 -0.00000000000E+00 -0.28518563633E+03  0.28518563634E+03  0.25500000000E-02 0.  1.
    8880023    1    1    2    0    0  0.80338755663E+01  0.57717241796E+02  0.10967715986E+03  0.67025003455E+03  0.65864270000E+03 0.  1.
    8880022    1    1    2    0    0 -0.80338755663E+01 -0.57717241796E+02  0.13620322228E+04  0.13718306208E+04  0.15294330000E+03 0.  0.
<mgrwt>
<rscale>  0 0.46638951E+03</rscale>
<asrwt>0</asrwt>
<pdfrwt beam="1">  1        2 0.27029154E+00 0.66121557E+03</pdfrwt>
<pdfrwt beam="2">  1       -2 0.43874714E-01 0.66121557E+03</pdfrwt>
<totfact> 0.46590365E+01</totfact>
</mgrwt>
</event>
<event>
 4    1  0.7595604E-007  0.6900857E+03  0.7818608E-02  0.1004112E+00
          2   -1    0    0  501    0  0.00000000000E+00  0.00000000000E+00  0.12194967400E+04  0.12194967400E+04  0.25500000000E-02 0. -1.
         -2   -1    0    0    0  501 -0.00000000000E+00 -0.00000000000E+00 -0.32092869208E+03  0.32092869209E+03  0.25500000000E-02 0.  1.
    8880023    1    1    2    0    0 -0.13233638488E+03  0.15778183474E+03  0.94615215294E+02  0.69654165085E+03  0.65864270000E+03 0.  1.
    8880022    1    1    2    0    0  0.13233638488E+03 -0.15778183474E+03  0.80395283262E+03  0.84388378123E+03  0.15294330000E+03 0.  0.
<mgrwt>
<rscale>  0 0.53883429E+03</rscale>
<asrwt>0</asrwt>
<pdfrwt beam="1">  1        2 0.18761488E+00 0.69008567E+03</pdfrwt>
<pdfrwt beam="2">  1       -2 0.49373645E-01 0.69008567E+03</pdfrwt>
<totfact> 0.73196026E+01</totfact>
</mgrwt>
</event>
<event>
 4    1  0.7595604E-007  0.7333630E+03  0.7818608E-02  0.9879720E-01
          2   -1    0    0  501    0  0.00000000000E+00  0.00000000000E+00  0.31694414398E+04  0.31694414398E+04  0.25500000000E-02 0. -1.
         -2   -1    0    0    0  501 -0.00000000000E+00 -0.00000000000E+00 -0.10756786039E+03  0.10756786042E+03  0.25500000000E-02 0.  1.
    8880023    1    1    2    0    0 -0.20257928004E+03  0.25094353883E+03  0.14361032882E+04  0.16125178712E+04  0.65864270000E+03 0.  0.
    8880022    1    1    2    0    0  0.20257928004E+03 -0.25094353883E+03  0.16257702912E+04  0.16644914289E+04  0.15294330000E+03 0.  0.
<mgrwt>
<rscale>  0 0.61254295E+03</rscale>
<asrwt>0</asrwt>
<pdfrwt beam="1">  1        2 0.48760639E+00 0.73336296E+03</pdfrwt>
<pdfrwt beam="2">  1       -2 0.16548901E-01 0.73336296E+03</pdfrwt>
<totfact> 0.42835074E+01</totfact>
</mgrwt>
</event>
<event>
 4    1  0.7595604E-007  0.6654977E+03  0.7818608E-02  0.1019119E+00
         -2   -1    0    0    0  501 -0.00000000000E+00  0.00000000000E+00  0.68396889027E+02  0.68396889075E+02  0.25500000000E-02 0.  1.
          2   -1    0    0  501    0  0.00000000000E+00 -0.00000000000E+00 -0.26758724343E+04  0.26758724343E+04  0.25500000000E-02 0. -1.
    8880023    1    1    2    0    0  0.86015584389E+02  0.40967244523E+02 -0.22063148441E+04  0.23044982954E+04  0.65864270000E+03 0. -1.
    8880022    1    1    2    0    0 -0.86015584389E+02 -0.40967244523E+02 -0.40116070122E+03  0.43977102803E+03  0.15294330000E+03 0.  1.
<mgrwt>
<rscale>  0 0.48005716E+03</rscale>
<asrwt>0</asrwt>
<pdfrwt beam="1">  1        2 0.41167260E+00 0.66549771E+03</pdfrwt>
<pdfrwt beam="2">  1       -2 0.10522600E-01 0.66549771E+03</pdfrwt>
<totfact> 0.18267410E+02</totfact>
</mgrwt>
</event>
<event>
 4    1  0.7595604E-007  0.6633910E+03  0.7818608E-02  0.1020923E+00
          2   -1    0    0  501    0  0.00000000000E+00  0.00000000000E+00  0.11421857299E+04  0.11421857299E+04  0.25500000000E-02 0. -1.
         -2   -1    0    0    0  501 -0.00000000000E+00 -0.00000000000E+00 -0.41816311632E+03  0.41816311633E+03  0.25500000000E-02 0.  1.
    8880023    1    1    2    0    0 -0.70553452017E+02  0.36049861808E+02 -0.14111256924E+03  0.67823325308E+03  0.65864270000E+03 0.  1.
    8880022    1    1    2    0    0  0.70553452017E+02 -0.36049861808E+02  0.86513518284E+03  0.88211559317E+03  0.15294330000E+03 0.  0.
<mgrwt>
<rscale>  0 0.47354919E+03</rscale>
<asrwt>0</asrwt>
<pdfrwt beam="1">  1        2 0.17572088E+00 0.66339098E+03</pdfrwt>
<pdfrwt beam="2">  1       -2 0.64332787E-01 0.66339098E+03</pdfrwt>
<totfact> 0.47006583E+01</totfact>
</mgrwt>
</event>
<event>
 4    1  0.7595604E-007  0.7206040E+03  0.7818608E-02  0.9920547E-01
          2   -1    0    0  501    0  0.00000000000E+00  0.00000000000E+00  0.18722703364E+04  0.18722703364E+04  0.25500000000E-02 0. -1.
         -2   -1    0    0    0  501 -0.00000000000E+00 -0.00000000000E+00 -0.29179243360E+03  0.29179243361E+03  0.25500000000E-02 0.  1.
    8880023    1    1    2    0    0  0.17209517157E+03  0.23631165514E+03  0.20446617249E+03  0.74905044449E+03  0.65864270000E+03 0.  1.
    8880022    1    1    2    0    0 -0.17209517157E+03 -0.23631165514E+03  0.13760117303E+04  0.14150123255E+04  0.15294330000E+03 0.  0.
<mgrwt>
<rscale>  0 0.59275723E+03</rscale>
<asrwt>0</asrwt>
<pdfrwt beam="1">  1        2 0.28804159E+00 0.72060402E+03</pdfrwt>
<pdfrwt beam="2">  1       -2 0.44891143E-01 0.72060402E+03</pdfrwt>
<totfact> 0.38235789E+01</totfact>
</mgrwt>
</event>
<event>
 4    1  0.7595604E-007  0.8224459E+03  0.7818608E-02  0.9664213E-01
         -2   -1    0    0    0  501 -0.00000000000E+00  0.00000000000E+00  0.44363327684E+03  0.44363327685E+03  0.25500000000E-02 0.  1.
          2   -1    0    0  501    0  0.00000000000E+00 -0.00000000000E+00 -0.13881659188E+04  0.13881659188E+04  0.25500000000E-02 0. -1.
    8880023    1    1    2    0    0  0.46086979395E+03 -0.17379900229E+03 -0.81595315152E+02  0.82648355210E+03  0.65864270000E+03 0.  1.
    8880022    1    1    2    0    0 -0.46086979395E+03  0.17379900229E+03 -0.86293732685E+03  0.10053156436E+04  0.15294330000E+03 0.  0.
<mgrwt>
<rscale>  0 0.73188096E+03</rscale>
<asrwt>0</asrwt>
<pdfrwt beam="1">  1        2 0.21356399E+00 0.82244590E+03</pdfrwt>
<pdfrwt beam="2">  1       -2 0.68251274E-01 0.82244590E+03</pdfrwt>
<totfact> 0.29268441E+01</totfact>
</mgrwt>
</event>
<event>
 4    1  0.7595604E-007  0.9487909E+03  0.7818608E-02  0.9451856E-01
         -2   -1    0    0    0  501 -0.00000000000E+00  0.00000000000E+00  0.38101927966E+03  0.38101927967E+03  0.25500000000E-02 0.  1.
          2   -1    0    0  501    0  0.00000000000E+00 -0.00000000000E+00 -0.21624434399E+04  0.21624434399E+04  0.25500000000E-02 0. -1.
    8880023    1    1    2    0    0 -0.13993240974E+03  0.66844066855E+03 -0.47421157881E+03  0.10606982768E+04  0.65864270000E+03 0.  0.
    8880022    1    1    2    0    0  0.13993240974E+03 -0.66844066855E+03 -0.13072125814E+04  0.14827644427E+04  0.15294330000E+03 0.  0.
<mgrwt>
<rscale>  0 0.87928294E+03</rscale>
<asrwt>0</asrwt>
<pdfrwt beam="1">  1        2 0.33268360E+00 0.94879092E+03</pdfrwt>
<pdfrwt beam="2">  1       -2 0.58618352E-01 0.94879092E+03</pdfrwt>
<totfact> 0.14923477E+01</totfact>
</mgrwt>
</event>
<event>
 4    1  0.7595604E-007  0.8625162E+03  0.7818608E-02  0.9589103E-01
         -2   -1    0    0    0  501 -0.00000000000E+00  0.00000000000E+00  0.29965871801E+03  0.29965871802E+03  0.25500000000E-02 0.  1.
          2   -1    0    0  501    0  0.00000000000E+00 -0.00000000000E+00 -0.25357989647E+04  0.25357989647E+04  0.25500000000E-02 0. -1.
    8880023    1    1    2    0    0  0.35585303019E+02  0.55574969826E+03 -0.48061748093E+03  0.98738412492E+03  0.65864270000E+03 0.  1.
    8880022    1    1    2    0    0 -0.35585303019E+02 -0.55574969826E+03 -0.17555227658E+04  0.18480735578E+04  0.15294330000E+03 0.  0.
<mgrwt>
<rscale>  0 0.78021625E+03</rscale>
<asrwt>0</asrwt>
<pdfrwt beam="1">  1        2 0.39012290E+00 0.86251623E+03</pdfrwt>
<pdfrwt beam="2">  1       -2 0.46101343E-01 0.86251623E+03</pdfrwt>
<totfact> 0.15256962E+01</totfact>
</mgrwt>
</event>
<event>
 4    1  0.8361271E-007  0.6805904E+03  0.7818608E-02  0.1008992E+00
          2   -1    0    0  501    0  0.00000000000E+00  0.00000000000E+00  0.28590211262E+04  0.28590211262E+04  0.25500000000E-02 0. -1.
         -2   -1    0    0    0  501 -0.00000000000E+00 -0.00000000000E+00 -0.46285924428E+03  0.46285924429E+03  0.25500000000E-02 0.  1.
    8880023    1    1    2    0    0 -0.12028819170E+03 -0.12216295230E+03 -0.20484252975E+03  0.71074869274E+03  0.65864270000E+03 0.  1.
    8880022    1    1    2    0    0  0.12028819170E+03  0.12216295230E+03  0.26010044117E+04  0.26111316777E+04  0.15294330000E+03 0.  0.
<mgrwt>
<rscale>  0 0.51877357E+03</rscale>
<asrwt>0</asrwt>
<pdfrwt beam="1">  1        2 0.43984941E+00 0.68059036E+03</pdfrwt>
<pdfrwt beam="2">  1       -2 0.71209114E-01 0.68059036E+03</pdfrwt>
<totfact> 0.41044772E+00</totfact>
</mgrwt>
</event>
<event>
 4    1  0.7595604E-007  0.7285811E+03  0.7818608E-02  0.9894553E-01
          2   -1    0    0  501    0  0.00000000000E+00  0.00000000000E+00  0.24539980476E+04  0.24539980476E+04  0.25500000000E-02 0. -1.
         -2   -1    0    0    0  501 -0.00000000000E+00 -0.00000000000E+00 -0.12749076830E+03  0.12749076832E+03  0.25500000000E-02 0.  1.
    8880023    1    1    2    0    0 -0.29974343999E+03  0.84699533690E+02  0.12112140666E+04  0.14134602443E+04  0.65864270000E+03 0.  0.
    8880022    1    1    2    0    0  0.29974343999E+03 -0.84699533690E+02  0.11152932126E+04  0.11680285716E+04  0.15294330000E+03 0.  1.
<mgrwt>
<rscale>  0 0.60526008E+03</rscale>
<asrwt>0</asrwt>
<pdfrwt beam="1">  1        2 0.37753815E+00 0.72858105E+03</pdfrwt>
<pdfrwt beam="2">  1       -2 0.19613965E-01 0.72858105E+03</pdfrwt>
<totfact> 0.85009806E+01</totfact>
</mgrwt>
</event>
<event>
 4    1  0.7595604E-007  0.7162765E+03  0.7818608E-02  0.9935393E-01
          2   -1    0    0  501    0  0.00000000000E+00  0.00000000000E+00  0.11466253754E+04  0.11466253754E+04  0.25500000000E-02 0. -1.
         -2   -1    0    0    0  501 -0.00000000000E+00 -0.00000000000E+00 -0.26830638210E+03  0.26830638211E+03  0.25500000000E-02 0.  1.
    8880023    1    1    2    0    0 -0.12712665071E+03 -0.25115845210E+03  0.35035140073E+03  0.79736946495E+03  0.65864270000E+03 0.  0.
    8880022    1    1    2    0    0  0.12712665071E+03  0.25115845210E+03  0.52796759260E+03  0.61756229259E+03  0.15294330000E+03 0.  1.
<mgrwt>
<rscale>  0 0.58576255E+03</rscale>
<asrwt>0</asrwt>
<pdfrwt beam="1">  1        2 0.17640391E+00 0.71627645E+03</pdfrwt>
<pdfrwt beam="2">  1       -2 0.41277904E-01 0.71627645E+03</pdfrwt>
<totfact> 0.11529487E+02</totfact>
</mgrwt>
</event>
<event>
 4    1  0.7595604E-007  0.6635647E+03  0.7818608E-02  0.1020769E+00
         -2   -1    0    0    0  501 -0.00000000000E+00  0.00000000000E+00  0.33143645755E+03  0.33143645756E+03  0.25500000000E-02 0.  1.
          2   -1    0    0  501    0  0.00000000000E+00 -0.00000000000E+00 -0.10196528025E+04  0.10196528025E+04  0.25500000000E-02 0. -1.
    8880023    1    1    2    0    0 -0.49813638729E+02 -0.63455110181E+02 -0.23210692165E+02  0.66397055063E+03  0.65864270000E+03 0.  1.
    8880022    1    1    2    0    0  0.49813638729E+02  0.63455110181E+02 -0.66500565276E+03  0.68711870941E+03  0.15294330000E+03 0.  0.
<mgrwt>
<rscale>  0 0.47410076E+03</rscale>
<asrwt>0</asrwt>
<pdfrwt beam="1">  1        2 0.15686966E+00 0.66356473E+03</pdfrwt>
<pdfrwt beam="2">  1       -2 0.50990225E-01 0.66356473E+03</pdfrwt>
<totfact> 0.90835531E+01</totfact>
</mgrwt>
</event>
<event>
 4    1  0.7595604E-007  0.7726957E+03  0.7818608E-02  0.9773283E-01
          2   -1    0    0  501    0  0.00000000000E+00  0.00000000000E+00  0.19146392965E+04  0.19146392965E+04  0.25500000000E-02 0. -1.
         -2   -1    0    0    0  501 -0.00000000000E+00 -0.00000000000E+00 -0.84455103529E+03  0.84455103529E+03  0.25500000000E-02 0.  1.
    8880023    1    1    2    0    0  0.15831151784E+03 -0.37173355357E+03 -0.63505063994E+03  0.10001739314E+04  0.65864270000E+03 0.  1.
    8880022    1    1    2    0    0 -0.15831151784E+03  0.37173355357E+03  0.17051389011E+04  0.17590164003E+04  0.15294330000E+03 0.  0.
<mgrwt>
<rscale>  0 0.66816227E+03</rscale>
<asrwt>0</asrwt>
<pdfrwt beam="1">  1        2 0.29455989E+00 0.77269566E+03</pdfrwt>
<pdfrwt beam="2">  1       -2 0.12993093E+00 0.77269566E+03</pdfrwt>
<totfact> 0.33406734E+00</totfact>
</mgrwt>
</event>
<event>
 4    1  0.7595604E-007  0.6827781E+03  0.7818608E-02  0.1007794E+00
         -2   -1    0    0    0  501 -0.00000000000E+00  0.00000000000E+00  0.62689230150E+03  0.62689230150E+03  0.25500000000E-02 0.  1.
          2   -1    0    0  501    0  0.00000000000E+00 -0.00000000000E+00 -0.56673748951E+03  0.56673748951E+03  0.25500000000E-02 0. -1.
    8880023    1    1    2    0    0  0.14892427010E+03 -0.10098190061E+03  0.39126062729E+03  0.78693765141E+03  0.65864270000E+03 0.  1.
    8880022    1    1    2    0    0 -0.14892427010E+03  0.10098190061E+03 -0.33110581530E+03  0.40669213960E+03  0.15294330000E+03 0.  0.
<mgrwt>
<rscale>  0 0.52360923E+03</rscale>
<asrwt>0</asrwt>
<pdfrwt beam="1">  1        2 0.87190383E-01 0.68277814E+03</pdfrwt>
<pdfrwt beam="2">  1       -2 0.96444970E-01 0.68277814E+03</pdfrwt>
<totfact> 0.48606390E+01</totfact>
</mgrwt>
</event>
<event>
 4    1  0.7595604E-007  0.7059175E+03  0.7818608E-02  0.9973485E-01
          2   -1    0    0  501    0  0.00000000000E+00  0.00000000000E+00  0.25433624325E+04  0.25433624325E+04  0.25500000000E-02 0. -1.
         -2   -1    0    0    0  501 -0.00000000000E+00 -0.00000000000E+00 -0.17434443873E+03  0.17434443875E+03  0.25500000000E-02 0.  1.
    8880023    1    1    2    0    0 -0.19225143956E+03 -0.16597793204E+03  0.60725238197E+03  0.93116859462E+03  0.65864270000E+03 0.  0.
    8880022    1    1    2    0    0  0.19225143956E+03  0.16597793204E+03  0.17617656118E+04  0.17865382766E+04  0.15294330000E+03 0.  0.
<mgrwt>
<rscale>  0 0.56828298E+03</rscale>
<asrwt>0</asrwt>
<pdfrwt beam="1">  1        2 0.39128654E+00 0.70591749E+03</pdfrwt>
<pdfrwt beam="2">  1       -2 0.26822221E-01 0.70591749E+03</pdfrwt>
<totfact> 0.43451503E+01</totfact>
</mgrwt>
</event>
<event>
 4    1  0.7595604E-007  0.7926291E+03  0.7818608E-02  0.9726966E-01
          2   -1    0    0  501    0  0.00000000000E+00  0.00000000000E+00  0.20791165568E+04  0.20791165568E+04  0.25500000000E-02 0. -1.
         -2   -1    0    0    0  501 -0.00000000000E+00 -0.00000000000E+00 -0.23474233642E+03  0.23474233643E+03  0.25500000000E-02 0.  1.
    8880023    1    1    2    0    0 -0.37346360312E+03  0.23446884176E+03  0.62878926837E+03  0.10117494012E+04  0.65864270000E+03 0.  0.
    8880022    1    1    2    0    0  0.37346360312E+03 -0.23446884176E+03  0.12155849520E+04  0.13021094920E+04  0.15294330000E+03 0.  0.
<mgrwt>
<rscale>  0 0.69433699E+03</rscale>
<asrwt>0</asrwt>
<pdfrwt beam="1">  1        2 0.31986409E+00 0.79262911E+03</pdfrwt>
<pdfrwt beam="2">  1       -2 0.36114205E-01 0.79262911E+03</pdfrwt>
<totfact> 0.44700873E+01</totfact>
</mgrwt>
</event>
<event>
 4    1  0.7595604E-007  0.1130769E+04  0.7818608E-02  0.9227548E-01
          2   -1    0    0  501    0  0.00000000000E+00  0.00000000000E+00  0.77080707800E+03  0.77080707801E+03  0.25500000000E-02 0. -1.
         -2   -1    0    0    0  501 -0.00000000000E+00 -0.00000000000E+00 -0.23759361761E+04  0.23759361761E+04  0.25500000000E-02 0.  1.
    8880023    1    1    2    0    0  0.89934786889E+03 -0.18974152054E+03  0.16849682347E+03  0.11432540486E+04  0.65864270000E+03 0. -1.
    8880022    1    1    2    0    0 -0.89934786889E+03  0.18974152054E+03 -0.17736259216E+04  0.20034892055E+04  0.15294330000E+03 0.  0.
<mgrwt>
<rscale>  0 0.10773558E+04</rscale>
<asrwt>0</asrwt>
<pdfrwt beam="1">  1        2 0.11858571E+00 0.11307690E+04</pdfrwt>
<pdfrwt beam="2">  1       -2 0.36552864E+00 0.11307690E+04</pdfrwt>
<totfact> 0.44675000E-01</totfact>
</mgrwt>
</event>
<event>
 4    1  0.7595604E-007  0.6607352E+03  0.7818608E-02  0.1023416E+00
         -2   -1    0    0    0  501 -0.00000000000E+00  0.00000000000E+00  0.33036266150E+03  0.33036266151E+03  0.25500000000E-02 0.  1.
          2   -1    0    0  501    0  0.00000000000E+00 -0.00000000000E+00 -0.12910944322E+04  0.12910944322E+04  0.25500000000E-02 0. -1.
    8880023    1    1    2    0    0 -0.52341948595E+02 -0.45901194683E+01 -0.13866036176E+02  0.66088064127E+03  0.65864270000E+03 0.  1.
    8880022    1    1    2    0    0  0.52341948595E+02  0.45901194683E+01 -0.94686573453E+03  0.96057645246E+03  0.15294330000E+03 0.  0.
<mgrwt>
<rscale>  0 0.46473942E+03</rscale>
<asrwt>0</asrwt>
<pdfrwt beam="1">  1        2 0.19862991E+00 0.66073516E+03</pdfrwt>
<pdfrwt beam="2">  1       -2 0.50825025E-01 0.66073516E+03</pdfrwt>
<totfact> 0.62891615E+01</totfact>
</mgrwt>
</event>
<event>
 4    1  0.7595604E-007  0.8759843E+03  0.7818608E-02  0.9565739E-01
         -2   -1    0    0    0  501 -0.00000000000E+00  0.00000000000E+00  0.15879203777E+04  0.15879203777E+04  0.25500000000E-02 0.  1.
          2   -1    0    0  501    0  0.00000000000E+00 -0.00000000000E+00 -0.71829903435E+03  0.71829903435E+03  0.25500000000E-02 0. -1.
    8880023    1    1    2    0    0  0.85798623989E+02 -0.57111904360E+03  0.13016355942E+04  0.15689499011E+04  0.65864270000E+03 0.  0.
    8880022    1    1    2    0    0 -0.85798623989E+02  0.57111904360E+03 -0.43201425084E+03  0.73726951095E+03  0.15294330000E+03 0.  0.
<mgrwt>
<rscale>  0 0.79605879E+03</rscale>
<asrwt>0</asrwt>
<pdfrwt beam="1">  1        2 0.11050754E+00 0.87598434E+03</pdfrwt>
<pdfrwt beam="2">  1       -2 0.24429544E+00 0.87598434E+03</pdfrwt>
<totfact> 0.27958615E+00</totfact>
</mgrwt>
</event>
<event>
 4    1  0.7595604E-007  0.7633833E+03  0.7818608E-02  0.9796426E-01
          2   -1    0    0  501    0  0.00000000000E+00  0.00000000000E+00  0.16233236270E+04  0.16233236270E+04  0.25500000000E-02 0. -1.
         -2   -1    0    0    0  501 -0.00000000000E+00 -0.00000000000E+00 -0.57623738707E+03  0.57623738708E+03  0.25500000000E-02 0.  1.
    8880023    1    1    2    0    0 -0.15750785089E+03 -0.35232810476E+03 -0.27687429962E+03  0.81204273320E+03  0.65864270000E+03 0.  0.
    8880022    1    1    2    0    0  0.15750785089E+03  0.35232810476E+03  0.13239605395E+04  0.13875182808E+04  0.15294330000E+03 0.  0.
<mgrwt>
<rscale>  0 0.65554697E+03</rscale>
<asrwt>0</asrwt>
<pdfrwt beam="1">  1        2 0.24974210E+00 0.76338327E+03</pdfrwt>
<pdfrwt beam="2">  1       -2 0.88651906E-01 0.76338327E+03</pdfrwt>
<totfact> 0.12137785E+01</totfact>
</mgrwt>
</event>
<event>
 4    1  0.7595604E-007  0.8664342E+03  0.7818608E-02  0.9582219E-01
         -2   -1    0    0    0  501 -0.00000000000E+00  0.00000000000E+00  0.89164636877E+03  0.89164636878E+03  0.25500000000E-02 0.  1.
          2   -1    0    0  501    0  0.00000000000E+00 -0.00000000000E+00 -0.13604539302E+04  0.13604539302E+04  0.25500000000E-02 0. -1.
    8880023    1    1    2    0    0  0.28364451450E+03 -0.48625481123E+03  0.58651505040E+03  0.10462829745E+04  0.65864270000E+03 0.  0.
    8880022    1    1    2    0    0 -0.28364451450E+03  0.48625481123E+03 -0.10553226118E+04  0.12058173245E+04  0.15294330000E+03 0.  0.
<mgrwt>
<rscale>  0 0.78484295E+03</rscale>
<asrwt>0</asrwt>
<pdfrwt beam="1">  1        2 0.20930060E+00 0.86643416E+03</pdfrwt>
<pdfrwt beam="2">  1       -2 0.13717637E+00 0.86643416E+03</pdfrwt>
<totfact> 0.58171272E+00</totfact>
</mgrwt>
</event>
<event>
 4    1  0.7595604E-007  0.6809772E+03  0.7818608E-02  0.1008776E+00
          2   -1    0    0  501    0  0.00000000000E+00  0.00000000000E+00  0.24169151007E+04  0.24169151007E+04  0.25500000000E-02 0. -1.
         -2   -1    0    0    0  501 -0.00000000000E+00 -0.00000000000E+00 -0.14140882396E+03  0.14140882398E+03  0.25500000000E-02 0.  1.
    8880023    1    1    2    0    0 -0.32705460557E+02 -0.16985322328E+03  0.74037123249E+03  0.10059222300E+04  0.65864270000E+03 0.  1.
    8880022    1    1    2    0    0  0.32705460557E+02  0.16985322328E+03  0.15351350443E+04  0.15524016947E+04  0.15294330000E+03 0.  0.
<mgrwt>
<rscale>  0 0.51963927E+03</rscale>
<asrwt>0</asrwt>
<pdfrwt beam="1">  1        2 0.37183307E+00 0.68097722E+03</pdfrwt>
<pdfrwt beam="2">  1       -2 0.21755205E-01 0.68097722E+03</pdfrwt>
<totfact> 0.74813582E+01</totfact>
</mgrwt>
</event>
<event>
 4    1  0.7595604E-007  0.6837277E+03  0.7818608E-02  0.1007289E+00
          2   -1    0    0  501    0  0.00000000000E+00  0.00000000000E+00  0.22420672381E+04  0.22420672381E+04  0.25500000000E-02 0. -1.
         -2   -1    0    0    0  501 -0.00000000000E+00 -0.00000000000E+00 -0.15116160341E+03  0.15116160343E+03  0.25500000000E-02 0.  1.
    8880023    1    1    2    0    0  0.18098297263E+03  0.30306400654E+02  0.68739364973E+03  0.96953264528E+03  0.65864270000E+03 0.  1.
    8880022    1    1    2    0    0 -0.18098297263E+03 -0.30306400654E+02  0.14035119850E+04  0.14236961963E+04  0.15294330000E+03 0.  0.
<mgrwt>
<rscale>  0 0.52566439E+03</rscale>
<asrwt>0</asrwt>
<pdfrwt beam="1">  1        2 0.34493341E+00 0.68372767E+03</pdfrwt>
<pdfrwt beam="2">  1       -2 0.23255632E-01 0.68372767E+03</pdfrwt>
<totfact> 0.83086173E+01</totfact>
</mgrwt>
</event>
<event>
 4    1  0.7595604E-007  0.6821808E+03  0.7818608E-02  0.1008116E+00
         -2   -1    0    0    0  501 -0.00000000000E+00  0.00000000000E+00  0.22080889122E+03  0.22080889124E+03  0.25500000000E-02 0.  1.
          2   -1    0    0  501    0  0.00000000000E+00 -0.00000000000E+00 -0.14211091570E+04  0.14211091570E+04  0.25500000000E-02 0. -1.
    8880023    1    1    2    0    0  0.75506606680E+02  0.16080782164E+03 -0.36366211124E+03  0.77305933832E+03  0.65864270000E+03 0.  1.
    8880022    1    1    2    0    0 -0.75506606680E+02 -0.16080782164E+03 -0.83663815455E+03  0.86885870992E+03  0.15294330000E+03 0.  0.
<mgrwt>
<rscale>  0 0.52230310E+03</rscale>
<asrwt>0</asrwt>
<pdfrwt beam="1">  1        2 0.21863217E+00 0.68218077E+03</pdfrwt>
<pdfrwt beam="2">  1       -2 0.33970600E-01 0.68218077E+03</pdfrwt>
<totfact> 0.11672097E+02</totfact>
</mgrwt>
</event>
<event>
 4    1  0.7595604E-007  0.8339676E+03  0.7818608E-02  0.9641661E-01
         -2   -1    0    0    0  501 -0.00000000000E+00  0.00000000000E+00  0.13145997520E+04  0.13145997520E+04  0.25500000000E-02 0.  1.
          2   -1    0    0  501    0  0.00000000000E+00 -0.00000000000E+00 -0.78684734752E+03  0.78684734753E+03  0.25500000000E-02 0. -1.
    8880023    1    1    2    0    0  0.15084644459E+03 -0.48881192982E+03  0.10591970914E+04  0.13481099500E+04  0.65864270000E+03 0.  0.
    8880022    1    1    2    0    0 -0.15084644459E+03  0.48881192982E+03 -0.53144468693E+03  0.75333714952E+03  0.15294330000E+03 0. -1.
<mgrwt>
<rscale>  0 0.74599064E+03</rscale>
<asrwt>0</asrwt>
<pdfrwt beam="1">  1        2 0.12105344E+00 0.83396760E+03</pdfrwt>
<pdfrwt beam="2">  1       -2 0.20224611E+00 0.83396760E+03</pdfrwt>
<totfact> 0.45783149E+00</totfact>
</mgrwt>
</event>
<event>
 4    1  0.7595604E-007  0.7992303E+03  0.7818608E-02  0.9712463E-01
         -2   -1    0    0    0  501 -0.00000000000E+00  0.00000000000E+00  0.43935218532E+03  0.43935218532E+03  0.25500000000E-02 0.  1.
          2   -1    0    0  501    0  0.00000000000E+00 -0.00000000000E+00 -0.17826538742E+04  0.17826538742E+04  0.25500000000E-02 0. -1.
    8880023    1    1    2    0    0 -0.32279937512E+03  0.31742621339E+03 -0.31813939939E+01  0.79923661393E+03  0.65864270000E+03 0.  1.
    8880022    1    1    2    0    0  0.32279937512E+03 -0.31742621339E+03 -0.13401202949E+04  0.14227694456E+04  0.15294330000E+03 0.  0.
<mgrwt>
<rscale>  0 0.70279586E+03</rscale>
<asrwt>0</asrwt>
<pdfrwt beam="1">  1        2 0.27425444E+00 0.79923028E+03</pdfrwt>
<pdfrwt beam="2">  1       -2 0.67592645E-01 0.79923028E+03</pdfrwt>
<totfact> 0.18107785E+01</totfact>
</mgrwt>
</event>
<event>
 4    1  0.7595604E-007  0.1140266E+04  0.7818608E-02  0.9217496E-01
          2   -1    0    0  501    0  0.00000000000E+00  0.00000000000E+00  0.11349013861E+04  0.11349013861E+04  0.25500000000E-02 0. -1.
         -2   -1    0    0    0  501 -0.00000000000E+00 -0.00000000000E+00 -0.14022355490E+04  0.14022355490E+04  0.25500000000E-02 0.  1.
    8880023    1    1    2    0    0 -0.58474451507E+03  0.72420331675E+03  0.57092190978E+03  0.12752092476E+04  0.65864270000E+03 0.  1.
    8880022    1    1    2    0    0  0.58474451507E+03 -0.72420331675E+03 -0.83825607272E+03  0.12619276875E+04  0.15294330000E+03 0.  0.
<mgrwt>
<rscale>  0 0.10874655E+04</rscale>
<asrwt>0</asrwt>
<pdfrwt beam="1">  1        2 0.17460021E+00 0.11402661E+04</pdfrwt>
<pdfrwt beam="2">  1       -2 0.21572855E+00 0.11402661E+04</pdfrwt>
<totfact> 0.21331190E+00</totfact>
</mgrwt>
</event>
<event>
 4    1  0.7595604E-007  0.6646709E+03  0.7818608E-02  0.1019811E+00
         -2   -1    0    0    0  501 -0.00000000000E+00  0.00000000000E+00  0.13731278576E+03  0.13731278579E+03  0.25500000000E-02 0.  1.
          2   -1    0    0  501    0  0.00000000000E+00 -0.00000000000E+00 -0.12910702568E+04  0.12910702568E+04  0.25500000000E-02 0. -1.
    8880023    1    1    2    0    0 -0.59543819298E+02  0.66570982679E+02 -0.89494978484E+03  0.11147746345E+04  0.65864270000E+03 0. -1.
    8880022    1    1    2    0    0  0.59543819298E+02 -0.66570982679E+02 -0.25880768618E+03  0.31360840804E+03  0.15294330000E+03 0.  0.
<mgrwt>
<rscale>  0 0.47754824E+03</rscale>
<asrwt>0</asrwt>
<pdfrwt beam="1">  1        2 0.19862619E+00 0.66467087E+03</pdfrwt>
<pdfrwt beam="2">  1       -2 0.21125045E-01 0.66467087E+03</pdfrwt>
<totfact> 0.32920958E+02</totfact>
</mgrwt>
</event>
<event>
 4    1  0.7595604E-007  0.6849418E+03  0.7818608E-02  0.1006656E+00
          2   -1    0    0  501    0  0.00000000000E+00  0.00000000000E+00  0.16536594227E+04  0.16536594227E+04  0.25500000000E-02 0. -1.
         -2   -1    0    0    0  501 -0.00000000000E+00 -0.00000000000E+00 -0.50969960682E+03  0.50969960683E+03  0.25500000000E-02 0.  1.
    8880023    1    1    2    0    0 -0.17671606580E+03  0.64081804460E+02 -0.26447427438E+03  0.73422877473E+03  0.65864270000E+03 0.  1.
    8880022    1    1    2    0    0  0.17671606580E+03 -0.64081804460E+02  0.14084340902E+04  0.14291302548E+04  0.15294330000E+03 0.  0.
<mgrwt>
<rscale>  0 0.52825631E+03</rscale>
<asrwt>0</asrwt>
<pdfrwt beam="1">  1        2 0.25440914E+00 0.68494179E+03</pdfrwt>
<pdfrwt beam="2">  1       -2 0.78415325E-01 0.68494179E+03</pdfrwt>
<totfact> 0.15597491E+01</totfact>
</mgrwt>
</event>
<event>
 4    1  0.7595604E-007  0.7379263E+03  0.7818608E-02  0.9866029E-01
          2   -1    0    0  501    0  0.00000000000E+00  0.00000000000E+00  0.14990639221E+04  0.14990639221E+04  0.25500000000E-02 0. -1.
         -2   -1    0    0    0  501 -0.00000000000E+00 -0.00000000000E+00 -0.20367467597E+03  0.20367467599E+03  0.25500000000E-02 0.  1.
    8880023    1    1    2    0    0 -0.13716279371E+03  0.30316885830E+03  0.83173261248E+03  0.11118967279E+04  0.65864270000E+03 0.  0.
    8880022    1    1    2    0    0  0.13716279371E+03 -0.30316885830E+03  0.46365663368E+03  0.59084187021E+03  0.15294330000E+03 0. -1.
<mgrwt>
<rscale>  0 0.61936273E+03</rscale>
<asrwt>0</asrwt>
<pdfrwt beam="1">  1        2 0.23062523E+00 0.73792628E+03</pdfrwt>
<pdfrwt beam="2">  1       -2 0.31334564E-01 0.73792628E+03</pdfrwt>
<totfact> 0.12227731E+02</totfact>
</mgrwt>
</event>
<event>
 4    1  0.7595604E-007  0.6692621E+03  0.7818608E-02  0.1016197E+00
          2   -1    0    0  501    0  0.00000000000E+00  0.00000000000E+00  0.11245521993E+04  0.11245521993E+04  0.25500000000E-02 0. -1.
         -2   -1    0    0    0  501 -0.00000000000E+00 -0.00000000000E+00 -0.28976068247E+03  0.28976068248E+03  0.25500000000E-02 0.  1.
    8880023    1    1    2    0    0  0.46811908396E+02 -0.10913373616E+03  0.12789032070E+03  0.68137190104E+03  0.65864270000E+03 0.  1.
    8880022    1    1    2    0    0 -0.46811908396E+02  0.10913373616E+03  0.70690119612E+03  0.73294098073E+03  0.15294330000E+03 0.  0.
<mgrwt>
<rscale>  0 0.49084142E+03</rscale>
<asrwt>0</asrwt>
<pdfrwt beam="1">  1        2 0.17300803E+00 0.66926208E+03</pdfrwt>
<pdfrwt beam="2">  1       -2 0.44578566E-01 0.66926208E+03</pdfrwt>
<totfact> 0.10253488E+02</totfact>
</mgrwt>
</event>
<event>
 4    1  0.7595604E-007  0.9969457E+03  0.7818608E-02  0.9385565E-01
         -2   -1    0    0    0  501 -0.00000000000E+00  0.00000000000E+00  0.33795245572E+03  0.33795245573E+03  0.25500000000E-02 0.  1.
          2   -1    0    0  501    0  0.00000000000E+00 -0.00000000000E+00 -0.37403435071E+04  0.37403435071E+04  0.25500000000E-02 0. -1.
    8880023    1    1    2    0    0 -0.45478208686E+03 -0.59436003644E+03 -0.57788794901E+03  0.11523260334E+04  0.65864270000E+03 0. -1.
    8880022    1    1    2    0    0  0.45478208686E+03  0.59436003644E+03 -0.28245031024E+04  0.29259699294E+04  0.15294330000E+03 0.  0.
<mgrwt>
<rscale>  0 0.93273247E+03</rscale>
<asrwt>0</asrwt>
<pdfrwt beam="1">  1        2 0.57543743E+00 0.99694574E+03</pdfrwt>
<pdfrwt beam="2">  1       -2 0.51992688E-01 0.99694574E+03</pdfrwt>
<totfact> 0.19895088E+00</totfact>
</mgrwt>
</event>
<event>
 4    1  0.7595604E-007  0.7452097E+03  0.7818608E-02  0.9845024E-01
          2   -1    0    0  501    0  0.00000000000E+00  0.00000000000E+00  0.19550036698E+04  0.19550036698E+04  0.25500000000E-02 0. -1.
         -2   -1    0    0    0  501 -0.00000000000E+00 -0.00000000000E+00 -0.17917957046E+03  0.17917957048E+03  0.25500000000E-02 0.  1.
    8880023    1    1    2    0    0 -0.34476162187E+03  0.51639576596E+02  0.14614231812E+04  0.16404557728E+04  0.65864270000E+03 0.  1.
    8880022    1    1    2    0    0  0.34476162187E+03 -0.51639576596E+02  0.31440091818E+03  0.49372746749E+03  0.15294330000E+03 0.  0.
<mgrwt>
<rscale>  0 0.63001295E+03</rscale>
<asrwt>0</asrwt>
<pdfrwt beam="1">  1        2 0.30076979E+00 0.74520965E+03</pdfrwt>
<pdfrwt beam="2">  1       -2 0.27566088E-01 0.74520965E+03</pdfrwt>
<totfact> 0.87127595E+01</totfact>
</mgrwt>
</event>
<event>
 4    1  0.7595604E-007  0.7951606E+03  0.7818608E-02  0.9721359E-01
          2   -1    0    0  501    0  0.00000000000E+00  0.00000000000E+00  0.31635174190E+04  0.31635174190E+04  0.25500000000E-02 0. -1.
         -2   -1    0    0    0  501 -0.00000000000E+00 -0.00000000000E+00 -0.22918349172E+03  0.22918349173E+03  0.25500000000E-02 0.  1.
    8880023    1    1    2    0    0 -0.33493513369E+03  0.29374920007E+03  0.56115354344E+03  0.97322846336E+03  0.65864270000E+03 0.  0.
    8880022    1    1    2    0    0  0.33493513369E+03 -0.29374920007E+03  0.23731803839E+04  0.24194724474E+04  0.15294330000E+03 0.  0.
<mgrwt>
<rscale>  0 0.69759192E+03</rscale>
<asrwt>0</asrwt>
<pdfrwt beam="1">  1        2 0.48669498E+00 0.79516058E+03</pdfrwt>
<pdfrwt beam="2">  1       -2 0.35259000E-01 0.79516058E+03</pdfrwt>
<totfact> 0.10958079E+01</totfact>
</mgrwt>
</event>
<event>
 4    1  0.7595604E-007  0.8720552E+03  0.7818608E-02  0.9572469E-01
         -2   -1    0    0    0  501 -0.00000000000E+00  0.00000000000E+00  0.50691147940E+03  0.50691147941E+03  0.25500000000E-02 0.  1.
          2   -1    0    0  501    0  0.00000000000E+00 -0.00000000000E+00 -0.12305531089E+04  0.12305531089E+04  0.25500000000E-02 0. -1.
    8880023    1    1    2    0    0  0.63260320731E+02  0.56803894250E+03 -0.99920115754E+02  0.87776098351E+03  0.65864270000E+03 0.  1.
    8880022    1    1    2    0    0 -0.63260320731E+02 -0.56803894250E+03 -0.62372151369E+03  0.85970360476E+03  0.15294330000E+03 0. -1.
<mgrwt>
<rscale>  0 0.79145472E+03</rscale>
<asrwt>0</asrwt>
<pdfrwt beam="1">  1        2 0.18931586E+00 0.87205522E+03</pdfrwt>
<pdfrwt beam="2">  1       -2 0.77986382E-01 0.87205522E+03</pdfrwt>
<totfact> 0.26770520E+01</totfact>
</mgrwt>
</event>
<event>
 4    1  0.7595604E-007  0.8882139E+03  0.7818608E-02  0.9545223E-01
          2   -1    0    0  501    0  0.00000000000E+00  0.00000000000E+00  0.28183885517E+04  0.28183885517E+04  0.25500000000E-02 0. -1.
         -2   -1    0    0    0  501 -0.00000000000E+00 -0.00000000000E+00 -0.33786793420E+03  0.33786793421E+03  0.25500000000E-02 0.  1.
    8880023    1    1    2    0    0 -0.40290954693E+03  0.43906441363E+03  0.37752479223E+03  0.96511597092E+03  0.65864270000E+03 0.  0.
    8880022    1    1    2    0    0  0.40290954693E+03 -0.43906441363E+03  0.21029958252E+04  0.21911405150E+04  0.15294330000E+03 0.  0.
<mgrwt>
<rscale>  0 0.81030246E+03</rscale>
<asrwt>0</asrwt>
<pdfrwt beam="1">  1        2 0.43359822E+00 0.88821386E+03</pdfrwt>
<pdfrwt beam="2">  1       -2 0.51979684E-01 0.88821386E+03</pdfrwt>
<totfact> 0.81504229E+00</totfact>
</mgrwt>
</event>
<event>
 4    1  0.9486302E-007  0.1037591E+04  0.7818608E-02  0.9333950E-01
         -2   -1    0    0    0  501 -0.00000000000E+00  0.00000000000E+00  0.12262134800E+04  0.12262134800E+04  0.25500000000E-02 0.  1.
          2   -1    0    0  501    0  0.00000000000E+00 -0.00000000000E+00 -0.31720787603E+04  0.31720787603E+04  0.25500000000E-02 0. -1.
    8880023    1    1    2    0    0 -0.72965142598E+01 -0.80170525857E+03  0.93948397805E+03  0.13997231555E+04  0.65864270000E+03 0.  1.
    8880022    1    1    2    0    0  0.72965142598E+01  0.80170525857E+03 -0.28853492583E+04  0.29985690848E+04  0.15294330000E+03 0.  0.
<mgrwt>
<rscale>  0 0.97716576E+03</rscale>
<asrwt>0</asrwt>
<pdfrwt beam="1">  1        2 0.48801212E+00 0.10375908E+04</pdfrwt>
<pdfrwt beam="2">  1       -2 0.18864823E+00 0.10375908E+04</pdfrwt>
<totfact> 0.21704884E-01</totfact>
</mgrwt>
</event>
<event>
 4    1  0.7595604E-007  0.7445954E+03  0.7818608E-02  0.9846758E-01
          2   -1    0    0  501    0  0.00000000000E+00  0.00000000000E+00  0.14799976877E+04  0.14799976877E+04  0.25500000000E-02 0. -1.
         -2   -1    0    0    0  501 -0.00000000000E+00 -0.00000000000E+00 -0.22223829969E+03  0.22223829970E+03  0.25500000000E-02 0.  1.
    8880023    1    1    2    0    0 -0.31354445717E+03  0.14933848268E+03  0.66448798556E+03  0.99798126147E+03  0.65864270000E+03 0.  0.
    8880022    1    1    2    0    0  0.31354445717E+03 -0.14933848268E+03  0.59327140248E+03  0.70425472596E+03  0.15294330000E+03 0. -1.
<mgrwt>
<rscale>  0 0.62912507E+03</rscale>
<asrwt>0</asrwt>
<pdfrwt beam="1">  1        2 0.22769195E+00 0.74459540E+03</pdfrwt>
<pdfrwt beam="2">  1       -2 0.34190507E-01 0.74459540E+03</pdfrwt>
<totfact> 0.10626850E+02</totfact>
</mgrwt>
</event>
<event>
 4    1  0.7595604E-007  0.1134477E+04  0.7818608E-02  0.9223608E-01
          2   -1    0    0  501    0  0.00000000000E+00  0.00000000000E+00  0.10168261405E+04  0.10168261405E+04  0.25500000000E-02 0. -1.
         -2   -1    0    0    0  501 -0.00000000000E+00 -0.00000000000E+00 -0.12411724679E+04  0.12411724679E+04  0.25500000000E-02 0.  1.
    8880023    1    1    2    0    0  0.55568686631E+03 -0.73786157526E+03 -0.55769839682E+03  0.12641460777E+04  0.65864270000E+03 0.  0.
    8880022    1    1    2    0    0 -0.55568686631E+03  0.73786157526E+03  0.33335206945E+03  0.99385253074E+03  0.15294330000E+03 0.  0.
<mgrwt>
<rscale>  0 0.10813048E+04</rscale>
<asrwt>0</asrwt>
<pdfrwt beam="1">  1        2 0.15643479E+00 0.11344769E+04</pdfrwt>
<pdfrwt beam="2">  1       -2 0.19094961E+00 0.11344769E+04</pdfrwt>
<totfact> 0.36718920E+00</totfact>
</mgrwt>
</event>
<event>
 4    1  0.7595604E-007  0.9261730E+03  0.7818608E-02  0.9485258E-01
          2   -1    0    0  501    0  0.00000000000E+00  0.00000000000E+00  0.11391659067E+04  0.11391659067E+04  0.25500000000E-02 0. -1.
         -2   -1    0    0    0  501 -0.00000000000E+00 -0.00000000000E+00 -0.16628900869E+04  0.16628900869E+04  0.25500000000E-02 0.  1.
    8880023    1    1    2    0    0 -0.61328513453E+03 -0.21878636758E+03 -0.14128959050E+04  0.16893996495E+04  0.65864270000E+03 0.  0.
    8880022    1    1    2    0    0  0.61328513453E+03  0.21878636758E+03  0.88917172485E+03  0.11126563441E+04  0.15294330000E+03 0.  0.
<mgrwt>
<rscale>  0 0.85379454E+03</rscale>
<asrwt>0</asrwt>
<pdfrwt beam="1">  1        2 0.17525629E+00 0.92617295E+03</pdfrwt>
<pdfrwt beam="2">  1       -2 0.25582924E+00 0.92617295E+03</pdfrwt>
<totfact> 0.12294742E+00</totfact>
</mgrwt>
</event>
<event>
 4    1  0.7595604E-007  0.7197731E+03  0.7818608E-02  0.9923354E-01
         -2   -1    0    0    0  501 -0.00000000000E+00  0.00000000000E+00  0.78526745304E+03  0.78526745304E+03  0.25500000000E-02 0.  1.
          2   -1    0    0  501    0  0.00000000000E+00 -0.00000000000E+00 -0.38627649501E+03  0.38627649502E+03  0.25500000000E-02 0. -1.
    8880023    1    1    2    0    0  0.11928778072E+02 -0.29003596777E+03  0.43572588582E+03  0.84138600665E+03  0.65864270000E+03 0.  0.
    8880022    1    1    2    0    0 -0.11928778072E+02  0.29003596777E+03 -0.36734927799E+02  0.33015794141E+03  0.15294330000E+03 0.  0.
<mgrwt>
<rscale>  0 0.59142667E+03</rscale>
<asrwt>0</asrwt>
<pdfrwt beam="1">  1        2 0.59427154E-01 0.71977313E+03</pdfrwt>
<pdfrwt beam="2">  1       -2 0.12081038E+00 0.71977313E+03</pdfrwt>
<totfact> 0.43765640E+01</totfact>
</mgrwt>
</event>
<event>
 4    1  0.7595604E-007  0.7230176E+03  0.7818608E-02  0.9912505E-01
         -2   -1    0    0    0  501 -0.00000000000E+00  0.00000000000E+00  0.76171536868E+03  0.76171536868E+03  0.25500000000E-02 0.  1.
          2   -1    0    0  501    0  0.00000000000E+00 -0.00000000000E+00 -0.67861316112E+03  0.67861316113E+03  0.25500000000E-02 0. -1.
    8880023    1    1    2    0    0 -0.10297807926E+03  0.27989248271E+03  0.51933625608E+03  0.89020483027E+03  0.65864270000E+03 0. -1.
    8880022    1    1    2    0    0  0.10297807926E+03 -0.27989248271E+03 -0.43623404853E+03  0.55012369954E+03  0.15294330000E+03 0.  0.
<mgrwt>
<rscale>  0 0.59659074E+03</rscale>
<asrwt>0</asrwt>
<pdfrwt beam="1">  1        2 0.10440203E+00 0.72301763E+03</pdfrwt>
<pdfrwt beam="2">  1       -2 0.11718698E+00 0.72301763E+03</pdfrwt>
<totfact> 0.24374873E+01</totfact>
</mgrwt>
</event>
<event>
 4    1  0.7595604E-007  0.8340030E+03  0.7818608E-02  0.9641593E-01
          2   -1    0    0  501    0  0.00000000000E+00  0.00000000000E+00  0.10709865504E+04  0.10709865504E+04  0.25500000000E-02 0. -1.
         -2   -1    0    0    0  501 -0.00000000000E+00 -0.00000000000E+00 -0.47798219184E+03  0.47798219185E+03  0.25500000000E-02 0.  1.
    8880023    1    1    2    0    0 -0.51125138989E+03  0.19309556580E+02  0.13375851268E+03  0.84466110874E+03  0.65864270000E+03 0.  1.
    8880022    1    1    2    0    0  0.51125138989E+03 -0.19309556580E+02  0.45924584586E+03  0.70430763349E+03  0.15294330000E+03 0.  0.
<mgrwt>
<rscale>  0 0.74603373E+03</rscale>
<asrwt>0</asrwt>
<pdfrwt beam="1">  1        2 0.16476716E+00 0.83400303E+03</pdfrwt>
<pdfrwt beam="2">  1       -2 0.73535723E-01 0.83400303E+03</pdfrwt>
<totfact> 0.38224117E+01</totfact>
</mgrwt>
</event>
<event>
 4    1  0.7595604E-007  0.7395422E+03  0.7818608E-02  0.9861283E-01
         -2   -1    0    0    0  501 -0.00000000000E+00  0.00000000000E+00  0.17717187327E+03  0.17717187329E+03  0.25500000000E-02 0.  1.
          2   -1    0    0  501    0  0.00000000000E+00 -0.00000000000E+00 -0.24612562182E+04  0.24612562182E+04  0.25500000000E-02 0. -1.
    8880023    1    1    2    0    0 -0.20523444147E+03  0.26644200611E+03 -0.72307740873E+03  0.10342937996E+04  0.65864270000E+03 0.  1.
    8880022    1    1    2    0    0  0.20523444147E+03 -0.26644200611E+03 -0.15610069362E+04  0.16041342919E+04  0.15294330000E+03 0.  0.
<mgrwt>
<rscale>  0 0.62174955E+03</rscale>
<asrwt>0</asrwt>
<pdfrwt beam="1">  1        2 0.37865478E+00 0.73954224E+03</pdfrwt>
<pdfrwt beam="2">  1       -2 0.27257213E-01 0.73954224E+03</pdfrwt>
<totfact> 0.46743367E+01</totfact>
</mgrwt>
</event>
<event>
 4    1  0.7595604E-007  0.7087578E+03  0.7818608E-02  0.9962643E-01
          2   -1    0    0  501    0  0.00000000000E+00  0.00000000000E+00  0.26816154334E+04  0.26816154334E+04  0.25500000000E-02 0. -1.
         -2   -1    0    0    0  501 -0.00000000000E+00 -0.00000000000E+00 -0.96476194667E+02  0.96476194701E+02  0.25500000000E-02 0.  1.
    8880023    1    1    2    0    0 -0.58889797018E+01 -0.26171109527E+03  0.19354998566E+04  0.20611883171E+04  0.65864270000E+03 0. -1.
    8880022    1    1    2    0    0  0.58889797018E+01  0.26171109527E+03  0.64963938218E+03  0.71690331103E+03  0.15294330000E+03 0.  1.
<mgrwt>
<rscale>  0 0.57319060E+03</rscale>
<asrwt>0</asrwt>
<pdfrwt beam="1">  1        2 0.41255621E+00 0.70875778E+03</pdfrwt>
<pdfrwt beam="2">  1       -2 0.14842492E-01 0.70875778E+03</pdfrwt>
<totfact> 0.10190634E+02</totfact>
</mgrwt>
</event>
<event>
 4    1  0.7595604E-007  0.1667784E+04  0.7818608E-02  0.8799430E-01
          2   -1    0    0  501    0  0.00000000000E+00  0.00000000000E+00  0.40960143432E+04  0.40960143432E+04  0.25500000000E-02 0. -1.
         -2   -1    0    0    0  501 -0.00000000000E+00 -0.00000000000E+00 -0.85377061409E+03  0.85377061409E+03  0.25500000000E-02 0.  1.
    8880023    1    1    2    0    0  0.12862202619E+04  0.83266555225E+03  0.39668539895E+03  0.17143115225E+04  0.65864270000E+03 0.  0.
    8880022    1    1    2    0    0 -0.12862202619E+04 -0.83266555225E+03  0.28455583302E+04  0.32354734348E+04  0.15294330000E+03 0.  0.
<mgrwt>
<rscale>  0 0.16348328E+04</rscale>
<asrwt>0</asrwt>
<pdfrwt beam="1">  1        2 0.63015604E+00 0.16677844E+04</pdfrwt>
<pdfrwt beam="2">  1       -2 0.13134933E+00 0.16677844E+04</pdfrwt>
<totfact> 0.11399655E-01</totfact>
</mgrwt>
</event>
<event>
 4    1  0.7595604E-007  0.6777734E+03  0.7818608E-02  0.1010612E+00
          2   -1    0    0  501    0  0.00000000000E+00  0.00000000000E+00  0.26766571898E+04  0.26766571898E+04  0.25500000000E-02 0. -1.
         -2   -1    0    0    0  501 -0.00000000000E+00 -0.00000000000E+00 -0.11561538735E+03  0.11561538737E+03  0.25500000000E-02 0.  1.
    8880023    1    1    2    0    0  0.15937982328E+03  0.12832507155E+02  0.95504646409E+03  0.11711065520E+04  0.65864270000E+03 0.  1.
    8880022    1    1    2    0    0 -0.15937982328E+03 -0.12832507155E+02  0.16059953383E+04  0.16211660251E+04  0.15294330000E+03 0.  1.
<mgrwt>
<rscale>  0 0.51232039E+03</rscale>
<asrwt>0</asrwt>
<pdfrwt beam="1">  1        2 0.41179342E+00 0.67777342E+03</pdfrwt>
<pdfrwt beam="2">  1       -2 0.17786983E-01 0.67777342E+03</pdfrwt>
<totfact> 0.75676101E+01</totfact>
</mgrwt>
</event>
<event>
 4    1  0.7595604E-007  0.6960599E+03  0.7818608E-02  0.1001396E+00
          2   -1    0    0  501    0  0.00000000000E+00  0.00000000000E+00  0.10628865718E+04  0.10628865718E+04  0.25500000000E-02 0. -1.
         -2   -1    0    0    0  501 -0.00000000000E+00 -0.00000000000E+00 -0.39949274266E+03  0.39949274267E+03  0.25500000000E-02 0.  1.
    8880023    1    1    2    0    0  0.18894927445E+03 -0.12242295808E+03 -0.50967397959E+02  0.69792341335E+03  0.65864270000E+03 0.  1.
    8880022    1    1    2    0    0 -0.18894927445E+03  0.12242295808E+03  0.71436122710E+03  0.76445590114E+03  0.15294330000E+03 0.  0.
<mgrwt>
<rscale>  0 0.55042509E+03</rscale>
<asrwt>0</asrwt>
<pdfrwt beam="1">  1        2 0.16352101E+00 0.69605992E+03</pdfrwt>
<pdfrwt beam="2">  1       -2 0.61460423E-01 0.69605992E+03</pdfrwt>
<totfact> 0.57719401E+01</totfact>
</mgrwt>
</event>
<event>
 4    1  0.7595604E-007  0.6857258E+03  0.7818608E-02  0.1006254E+00
         -2   -1    0    0    0  501 -0.00000000000E+00  0.00000000000E+00  0.77011226509E+03  0.77011226510E+03  0.25500000000E-02 0.  1.
          2   -1    0    0  501    0  0.00000000000E+00 -0.00000000000E+00 -0.53529585317E+03  0.53529585317E+03  0.25500000000E-02 0. -1.
    8880023    1    1    2    0    0  0.18200322642E+03  0.57310099629E+02  0.56917342968E+03  0.89116677523E+03  0.65864270000E+03 0.  0.
    8880022    1    1    2    0    0 -0.18200322642E+03 -0.57310099629E+02 -0.33435701776E+03  0.41424134304E+03  0.15294330000E+03 0. -1.
<mgrwt>
<rscale>  0 0.52990944E+03</rscale>
<asrwt>0</asrwt>
<pdfrwt beam="1">  1        2 0.82353208E-01 0.68572577E+03</pdfrwt>
<pdfrwt beam="2">  1       -2 0.11847881E+00 0.68572577E+03</pdfrwt>
<totfact> 0.31707821E+01</totfact>
</mgrwt>
</event>
<event>
 4    1  0.7595604E-007  0.7095225E+03  0.7818608E-02  0.9959778E-01
          2   -1    0    0  501    0  0.00000000000E+00  0.00000000000E+00  0.61393714870E+03  0.61393714870E+03  0.25500000000E-02 0. -1.
         -2   -1    0    0    0  501 -0.00000000000E+00 -0.00000000000E+00 -0.47131022702E+03  0.47131022703E+03  0.25500000000E-02 0.  1.
    8880023    1    1    2    0    0 -0.17578994834E+03  0.19674821138E+03 -0.70758227859E+02  0.71304200275E+03  0.65864270000E+03 0.  0.
    8880022    1    1    2    0    0  0.17578994834E+03 -0.19674821138E+03  0.21338514953E+03  0.37220537298E+03  0.15294330000E+03 0.  0.
<mgrwt>
<rscale>  0 0.57449613E+03</rscale>
<asrwt>0</asrwt>
<pdfrwt beam="1">  1        2 0.94451869E-01 0.70952249E+03</pdfrwt>
<pdfrwt beam="2">  1       -2 0.72509266E-01 0.70952249E+03</pdfrwt>
<totfact> 0.84180510E+01</totfact>
</mgrwt>
</event>
<event>
 4    1  0.7595604E-007  0.7627352E+03  0.7818608E-02  0.9798077E-01
         -2   -1    0    0    0  501 -0.00000000000E+00  0.00000000000E+00  0.48941970625E+03  0.48941970626E+03  0.25500000000E-02 0.  1.
          2   -1    0    0  501    0  0.00000000000E+00 -0.00000000000E+00 -0.15790270559E+04  0.15790270559E+04  0.25500000000E-02 0. -1.
    8880023    1    1    2    0    0  0.36591649754E+03  0.11857467000E+03  0.13605239758E+03  0.77477435211E+03  0.65864270000E+03 0.  1.
    8880022    1    1    2    0    0 -0.36591649754E+03 -0.11857467000E+03 -0.12256597472E+04  0.12936724101E+04  0.15294330000E+03 0.  0.
<mgrwt>
<rscale>  0 0.65465842E+03</rscale>
<asrwt>0</asrwt>
<pdfrwt beam="1">  1        2 0.24292724E+00 0.76273524E+03</pdfrwt>
<pdfrwt beam="2">  1       -2 0.75295340E-01 0.76273524E+03</pdfrwt>
<totfact> 0.18570333E+01</totfact>
</mgrwt>
</event>
<event>
 4    1  0.7595604E-007  0.7088630E+03  0.7818608E-02  0.9962248E-01
          2   -1    0    0  501    0  0.00000000000E+00  0.00000000000E+00  0.10723066516E+04  0.10723066516E+04  0.25500000000E-02 0. -1.
         -2   -1    0    0    0  501 -0.00000000000E+00 -0.00000000000E+00 -0.23956449876E+03  0.23956449878E+03  0.25500000000E-02 0.  1.
    8880023    1    1    2    0    0 -0.24920467412E+03 -0.81077277953E+02  0.61414148519E+03  0.93790002916E+03  0.65864270000E+03 0.  0.
    8880022    1    1    2    0    0  0.24920467412E+03  0.81077277953E+02  0.21860066766E+03  0.37397112124E+03  0.15294330000E+03 0. -1.
<mgrwt>
<rscale>  0 0.57337056E+03</rscale>
<asrwt>0</asrwt>
<pdfrwt beam="1">  1        2 0.16497025E+00 0.70886296E+03</pdfrwt>
<pdfrwt beam="2">  1       -2 0.36856078E-01 0.70886296E+03</pdfrwt>
<totfact> 0.15949871E+02</totfact>
</mgrwt>
</event>
<event>
 4    1  0.7595604E-007  0.1416300E+04  0.7818608E-02  0.8971120E-01
          2   -1    0    0  501    0  0.00000000000E+00  0.00000000000E+00  0.24214063733E+04  0.24214063733E+04  0.25500000000E-02 0. -1.
         -2   -1    0    0    0  501 -0.00000000000E+00 -0.00000000000E+00 -0.20256973501E+04  0.20256973501E+04  0.25500000000E-02 0.  1.
    8880023    1    1    2    0    0  0.22975098075E+03  0.12326025766E+04 -0.15675489427E+04  0.21126084633E+04  0.65864270000E+03 0.  0.
    8880022    1    1    2    0    0 -0.22975098075E+03 -0.12326025766E+04  0.19632579660E+04  0.23344952600E+04  0.15294330000E+03 0.  0.
<mgrwt>
<rscale>  0 0.13763472E+04</rscale>
<asrwt>0</asrwt>
<pdfrwt beam="1">  1        2 0.37252406E+00 0.14162997E+04</pdfrwt>
<pdfrwt beam="2">  1       -2 0.31164574E+00 0.14162997E+04</pdfrwt>
<totfact> 0.98899816E-02</totfact>
</mgrwt>
</event>
<event>
 4    1  0.7595604E-007  0.8002221E+03  0.7818608E-02  0.9710316E-01
          2   -1    0    0  501    0  0.00000000000E+00  0.00000000000E+00  0.14418266878E+04  0.14418266878E+04  0.25500000000E-02 0. -1.
         -2   -1    0    0    0  501 -0.00000000000E+00 -0.00000000000E+00 -0.72073912542E+03  0.72073912542E+03  0.25500000000E-02 0.  1.
    8880023    1    1    2    0    0 -0.91268446607E+02 -0.44521380270E+03 -0.43511674347E+03  0.91086884137E+03  0.65864270000E+03 0.  0.
    8880022    1    1    2    0    0  0.91268446607E+02  0.44521380270E+03  0.11562043059E+04  0.12516969719E+04  0.15294330000E+03 0.  0.
<mgrwt>
<rscale>  0 0.70405892E+03</rscale>
<asrwt>0</asrwt>
<pdfrwt beam="1">  1        2 0.22181949E+00 0.80022214E+03</pdfrwt>
<pdfrwt beam="2">  1       -2 0.11088294E+00 0.80022214E+03</pdfrwt>
<totfact> 0.89759488E+00</totfact>
</mgrwt>
</event>
<event>
 4    1  0.7595604E-007  0.7829364E+03  0.7818608E-02  0.9748984E-01
         -2   -1    0    0    0  501 -0.00000000000E+00  0.00000000000E+00  0.14498823942E+04  0.14498823942E+04  0.25500000000E-02 0.  1.
          2   -1    0    0  501    0  0.00000000000E+00 -0.00000000000E+00 -0.74116510674E+03  0.74116510674E+03  0.25500000000E-02 0. -1.
    8880023    1    1    2    0    0  0.19018102402E+03  0.37816718682E+03 -0.48110728694E+03  0.91894160364E+03  0.65864270000E+03 0. -1.
    8880022    1    1    2    0    0 -0.19018102402E+03 -0.37816718682E+03  0.11898245744E+04  0.12721058973E+04  0.15294330000E+03 0.  0.
<mgrwt>
<rscale>  0 0.68173722E+03</rscale>
<asrwt>0</asrwt>
<pdfrwt beam="1">  1        2 0.11402540E+00 0.78293643E+03</pdfrwt>
<pdfrwt beam="2">  1       -2 0.22305883E+00 0.78293643E+03</pdfrwt>
<totfact> 0.36746241E+00</totfact>
</mgrwt>
</event>
<event>
 4    1  0.7595604E-007  0.6998905E+03  0.7818608E-02  0.9997656E-01
          2   -1    0    0  501    0  0.00000000000E+00  0.00000000000E+00  0.99312313435E+03  0.99312313436E+03  0.25500000000E-02 0. -1.
         -2   -1    0    0    0  501 -0.00000000000E+00 -0.00000000000E+00 -0.39746547796E+03  0.39746547797E+03  0.25500000000E-02 0.  1.
    8880023    1    1    2    0    0 -0.20492447725E+03  0.11850094852E+03 -0.34020715518E+02  0.70071686973E+03  0.65864270000E+03 0.  1.
    8880022    1    1    2    0    0  0.20492447725E+03 -0.11850094852E+03  0.62967837191E+03  0.68987174260E+03  0.15294330000E+03 0.  0.
<mgrwt>
<rscale>  0 0.55753148E+03</rscale>
<asrwt>0</asrwt>
<pdfrwt beam="1">  1        2 0.15278818E+00 0.69989051E+03</pdfrwt>
<pdfrwt beam="2">  1       -2 0.61148535E-01 0.69989051E+03</pdfrwt>
<totfact> 0.64522588E+01</totfact>
</mgrwt>
</event>
<event>
 4    1  0.7595604E-007  0.6895681E+03  0.7818608E-02  0.1004359E+00
         -2   -1    0    0    0  501 -0.00000000000E+00  0.00000000000E+00  0.13045828401E+03  0.13045828403E+03  0.25500000000E-02 0.  1.
          2   -1    0    0  501    0  0.00000000000E+00 -0.00000000000E+00 -0.25310526846E+04  0.25310526846E+04  0.25500000000E-02 0. -1.
    8880023    1    1    2    0    0  0.19848120666E+03 -0.47949177009E+02 -0.87166150105E+03  0.11114395582E+04  0.65864270000E+03 0.  1.
    8880022    1    1    2    0    0 -0.19848120666E+03  0.47949177009E+02 -0.15289328995E+04  0.15500714104E+04  0.15294330000E+03 0.  0.
<mgrwt>
<rscale>  0 0.53779708E+03</rscale>
<asrwt>0</asrwt>
<pdfrwt beam="1">  1        2 0.38939268E+00 0.68956807E+03</pdfrwt>
<pdfrwt beam="2">  1       -2 0.20070507E-01 0.68956807E+03</pdfrwt>
<totfact> 0.74242258E+01</totfact>
</mgrwt>
</event>
<event>
 4    1  0.7595604E-007  0.8460154E+03  0.7818608E-02  0.9618940E-01
         -2   -1    0    0    0  501 -0.00000000000E+00  0.00000000000E+00  0.25615154541E+03  0.25615154543E+03  0.25500000000E-02 0.  1.
          2   -1    0    0  501    0  0.00000000000E+00 -0.00000000000E+00 -0.22148264854E+04  0.22148264854E+04  0.25500000000E-02 0. -1.
    8880023    1    1    2    0    0 -0.52140934281E+03 -0.10032063720E+03 -0.70618200795E+03  0.11020141413E+04  0.65864270000E+03 0.  1.
    8880022    1    1    2    0    0  0.52140934281E+03  0.10032063720E+03 -0.12524929321E+04  0.13689638896E+04  0.15294330000E+03 0.  0.
<mgrwt>
<rscale>  0 0.76055174E+03</rscale>
<asrwt>0</asrwt>
<pdfrwt beam="1">  1        2 0.34074252E+00 0.84601545E+03</pdfrwt>
<pdfrwt beam="2">  1       -2 0.39407932E-01 0.84601545E+03</pdfrwt>
<totfact> 0.31589210E+01</totfact>
</mgrwt>
</event>
<event>
 4    1  0.7595604E-007  0.6658452E+03  0.7818608E-02  0.1018835E+00
         -2   -1    0    0    0  501 -0.00000000000E+00  0.00000000000E+00  0.78143875874E+03  0.78143875875E+03  0.25500000000E-02 0.  1.
          2   -1    0    0  501    0  0.00000000000E+00 -0.00000000000E+00 -0.10556370122E+04  0.10556370122E+04  0.25500000000E-02 0. -1.
    8880023    1    1    2    0    0 -0.66399310525E+02 -0.71629501197E+02  0.62891785031E+03  0.91590803173E+03  0.65864270000E+03 0.  0.
    8880022    1    1    2    0    0  0.66399310525E+02  0.71629501197E+02 -0.90311610377E+03  0.92116773922E+03  0.15294330000E+03 0.  0.
<mgrwt>
<rscale>  0 0.48109527E+03</rscale>
<asrwt>0</asrwt>
<pdfrwt beam="1">  1        2 0.16240569E+00 0.66584522E+03</pdfrwt>
<pdfrwt beam="2">  1       -2 0.12022135E+00 0.66584522E+03</pdfrwt>
<totfact> 0.12620093E+01</totfact>
</mgrwt>
</event>
<event>
 4    1  0.7595604E-007  0.1261022E+04  0.7818608E-02  0.9099972E-01
         -2   -1    0    0    0  501 -0.00000000000E+00  0.00000000000E+00  0.87029401457E+03  0.87029401458E+03  0.25500000000E-02 0.  1.
          2   -1    0    0  501    0  0.00000000000E+00 -0.00000000000E+00 -0.26972473312E+04  0.26972473312E+04  0.25500000000E-02 0. -1.
    8880023    1    1    2    0    0  0.14563585608E+03  0.10654375469E+04 -0.20982315500E+04  0.24480099699E+04  0.65864270000E+03 0. -1.
    8880022    1    1    2    0    0 -0.14563585608E+03 -0.10654375469E+04  0.27127823335E+03  0.11195313759E+04  0.15294330000E+03 0.  0.
<mgrwt>
<rscale>  0 0.12148320E+04</rscale>
<asrwt>0</asrwt>
<pdfrwt beam="1">  1        2 0.41496112E+00 0.12610223E+04</pdfrwt>
<pdfrwt beam="2">  1       -2 0.13389139E+00 0.12610223E+04</pdfrwt>
<totfact> 0.10461245E+00</totfact>
</mgrwt>
</event>
<event>
 4    1  0.7595604E-007  0.6635742E+03  0.7818608E-02  0.1020761E+00
          2   -1    0    0  501    0  0.00000000000E+00  0.00000000000E+00  0.29115104648E+03  0.29115104650E+03  0.25500000000E-02 0. -1.
         -2   -1    0    0    0  501 -0.00000000000E+00 -0.00000000000E+00 -0.82579757638E+03  0.82579757638E+03  0.25500000000E-02 0.  1.
    8880023    1    1    2    0    0 -0.58316287207E+02  0.55854628389E+02 -0.63377223535E+03  0.91760447984E+03  0.65864270000E+03 0.  1.
    8880022    1    1    2    0    0  0.58316287207E+02 -0.55854628389E+02  0.99125705453E+02  0.19934414304E+03  0.15294330000E+03 0.  1.
<mgrwt>
<rscale>  0 0.47413077E+03</rscale>
<asrwt>0</asrwt>
<pdfrwt beam="1">  1        2 0.44792469E-01 0.66357421E+03</pdfrwt>
<pdfrwt beam="2">  1       -2 0.12704578E+00 0.66357421E+03</pdfrwt>
<totfact> 0.53072636E+01</totfact>
</mgrwt>
</event>
<event>
 4    1  0.7595604E-007  0.8298188E+03  0.7818608E-02  0.9649685E-01
          2   -1    0    0  501    0  0.00000000000E+00  0.00000000000E+00  0.39164135974E+04  0.39164135974E+04  0.25500000000E-02 0. -1.
         -2   -1    0    0    0  501 -0.00000000000E+00 -0.00000000000E+00 -0.58388283574E+03  0.58388283575E+03  0.25500000000E-02 0.  1.
    8880023    1    1    2    0    0 -0.71026544446E+02 -0.49974418294E+03  0.37417950869E+04  0.38327052714E+04  0.65864270000E+03 0.  0.
    8880022    1    1    2    0    0  0.71026544446E+02  0.49974418294E+03 -0.40926432523E+03  0.66759116181E+03  0.15294330000E+03 0.  0.
<mgrwt>
<rscale>  0 0.74093194E+03</rscale>
<asrwt>0</asrwt>
<pdfrwt beam="1">  1        2 0.60252516E+00 0.82981879E+03</pdfrwt>
<pdfrwt beam="2">  1       -2 0.89828130E-01 0.82981879E+03</pdfrwt>
<totfact> 0.46065560E-01</totfact>
</mgrwt>
</event>
<event>
 4    1  0.7595604E-007  0.8986392E+03  0.7818608E-02  0.9528220E-01
         -2   -1    0    0    0  501 -0.00000000000E+00  0.00000000000E+00  0.99531382007E+03  0.99531382008E+03  0.25500000000E-02 0.  1.
          2   -1    0    0  501    0  0.00000000000E+00 -0.00000000000E+00 -0.64743460843E+03  0.64743460843E+03  0.25500000000E-02 0. -1.
    8880023    1    1    2    0    0  0.51474463342E+03 -0.32981839302E+03  0.44889279403E+03  0.10045183706E+04  0.65864270000E+03 0.  1.
    8880022    1    1    2    0    0 -0.51474463342E+03  0.32981839302E+03 -0.10101358238E+03  0.63823005794E+03  0.15294330000E+03 0.  0.
<mgrwt>
<rscale>  0 0.82234894E+03</rscale>
<asrwt>0</asrwt>
<pdfrwt beam="1">  1        2 0.99605325E-01 0.89863920E+03</pdfrwt>
<pdfrwt beam="2">  1       -2 0.15312520E+00 0.89863920E+03</pdfrwt>
<totfact> 0.12828616E+01</totfact>
</mgrwt>
</event>
<event>
 4    1  0.7595604E-007  0.1016446E+04  0.7818608E-02  0.9360350E-01
         -2   -1    0    0    0  501 -0.00000000000E+00  0.00000000000E+00  0.45586036983E+03  0.45586036984E+03  0.25500000000E-02 0.  1.
          2   -1    0    0  501    0  0.00000000000E+00 -0.00000000000E+00 -0.29974781297E+04  0.29974781297E+04  0.25500000000E-02 0. -1.
    8880023    1    1    2    0    0 -0.19081872070E+03  0.75029419986E+03 -0.27458209933E+03  0.10528811453E+04  0.65864270000E+03 0.  0.
    8880022    1    1    2    0    0  0.19081872070E+03 -0.75029419986E+03 -0.22670356606E+04  0.24004573543E+04  0.15294330000E+03 0.  0.
<mgrwt>
<rscale>  0 0.95411812E+03</rscale>
<asrwt>0</asrwt>
<pdfrwt beam="1">  1        2 0.46115047E+00 0.10164464E+04</pdfrwt>
<pdfrwt beam="2">  1       -2 0.70132367E-01 0.10164464E+04</pdfrwt>
<totfact> 0.32981615E+00</totfact>
</mgrwt>
</event>
<event>
 4    1  0.7595604E-007  0.1004047E+04  0.7818608E-02  0.9376283E-01
         -2   -1    0    0    0  501 -0.00000000000E+00  0.00000000000E+00  0.11217184153E+04  0.11217184153E+04  0.25500000000E-02 0.  1.
          2   -1    0    0  501    0  0.00000000000E+00 -0.00000000000E+00 -0.13223647239E+04  0.13223647239E+04  0.25500000000E-02 0. -1.
    8880023    1    1    2    0    0  0.58315617951E+03 -0.48397127393E+03  0.72471262739E+03  0.12382721519E+04  0.65864270000E+03 0.  1.
    8880022    1    1    2    0    0 -0.58315617951E+03  0.48397127393E+03 -0.92535893599E+03  0.12058109873E+04  0.15294330000E+03 0.  0.
<mgrwt>
<rscale>  0 0.94053505E+03</rscale>
<asrwt>0</asrwt>
<pdfrwt beam="1">  1        2 0.20344073E+00 0.10040466E+04</pdfrwt>
<pdfrwt beam="2">  1       -2 0.17257206E+00 0.10040466E+04</pdfrwt>
<totfact> 0.32498417E+00</totfact>
</mgrwt>
</event>
<event>
 4    1  0.7595604E-007  0.1148158E+04  0.7818608E-02  0.9209242E-01
         -2   -1    0    0    0  501 -0.00000000000E+00  0.00000000000E+00  0.10517672724E+04  0.10517672724E+04  0.25500000000E-02 0.  1.
          2   -1    0    0  501    0  0.00000000000E+00 -0.00000000000E+00 -0.19057548599E+04  0.19057548599E+04  0.25500000000E-02 0. -1.
    8880023    1    1    2    0    0  0.35784224289E+03 -0.86971598611E+03  0.54016899993E+03  0.12688773471E+04  0.65864270000E+03 0.  0.
    8880022    1    1    2    0    0 -0.35784224289E+03  0.86971598611E+03 -0.13941565874E+04  0.16886447852E+04  0.15294330000E+03 0.  1.
<mgrwt>
<rscale>  0 0.10958547E+04</rscale>
<asrwt>0</asrwt>
<pdfrwt beam="1">  1        2 0.29319305E+00 0.11481582E+04</pdfrwt>
<pdfrwt beam="2">  1       -2 0.16181035E+00 0.11481582E+04</pdfrwt>
<totfact> 0.18005136E+00</totfact>
</mgrwt>
</event>
<event>
 4    1  0.7595604E-007  0.7044944E+03  0.7818608E-02  0.9979044E-01
          2   -1    0    0  501    0  0.00000000000E+00  0.00000000000E+00  0.22776425074E+04  0.22776425074E+04  0.25500000000E-02 0. -1.
         -2   -1    0    0    0  501 -0.00000000000E+00 -0.00000000000E+00 -0.12749731522E+03  0.12749731524E+03  0.25500000000E-02 0.  1.
    8880023    1    1    2    0    0 -0.21335415121E+03  0.13031559555E+03  0.10342039637E+04  0.12513553424E+04  0.65864270000E+03 0.  0.
    8880022    1    1    2    0    0  0.21335415121E+03 -0.13031559555E+03  0.11159412285E+04  0.11537844802E+04  0.15294330000E+03 0.  1.
<mgrwt>
<rscale>  0 0.56578755E+03</rscale>
<asrwt>0</asrwt>
<pdfrwt beam="1">  1        2 0.35040653E+00 0.70449440E+03</pdfrwt>
<pdfrwt beam="2">  1       -2 0.19614972E-01 0.70449440E+03</pdfrwt>
<totfact> 0.10694012E+02</totfact>
</mgrwt>
</event>
<event>
 4    1  0.7595604E-007  0.7123651E+03  0.7818608E-02  0.9949321E-01
         -2   -1    0    0    0  501 -0.00000000000E+00  0.00000000000E+00  0.21588409049E+03  0.21588409050E+03  0.25500000000E-02 0.  1.
          2   -1    0    0  501    0  0.00000000000E+00 -0.00000000000E+00 -0.24445738092E+04  0.24445738092E+04  0.25500000000E-02 0. -1.
    8880023    1    1    2    0    0 -0.23859166227E+03 -0.12933596467E+03 -0.42383304741E+03  0.82891400724E+03  0.65864270000E+03 0.  1.
    8880022    1    1    2    0    0  0.23859166227E+03  0.12933596467E+03 -0.18048566713E+04  0.18315438924E+04  0.15294330000E+03 0.  0.
<mgrwt>
<rscale>  0 0.57929375E+03</rscale>
<asrwt>0</asrwt>
<pdfrwt beam="1">  1        2 0.37608826E+00 0.71236506E+03</pdfrwt>
<pdfrwt beam="2">  1       -2 0.33212939E-01 0.71236506E+03</pdfrwt>
<totfact> 0.33224212E+01</totfact>
</mgrwt>
</event>
<event>
 4    1  0.7595604E-007  0.8065251E+03  0.7818608E-02  0.9696861E-01
          2   -1    0    0  501    0  0.00000000000E+00  0.00000000000E+00  0.34622798276E+04  0.34622798276E+04  0.25500000000E-02 0. -1.
         -2   -1    0    0    0  501 -0.00000000000E+00 -0.00000000000E+00 -0.21593788611E+03  0.21593788612E+03  0.25500000000E-02 0.  1.
    8880023    1    1    2    0    0  0.42173645397E+02  0.46356657101E+03  0.64943674071E+03  0.10354954701E+04  0.65864270000E+03 0.  1.
    8880022    1    1    2    0    0 -0.42173645397E+02 -0.46356657101E+03  0.25969052008E+04  0.26427222436E+04  0.15294330000E+03 0.  0.
<mgrwt>
<rscale>  0 0.71203995E+03</rscale>
<asrwt>0</asrwt>
<pdfrwt beam="1">  1        2 0.53265839E+00 0.80652513E+03</pdfrwt>
<pdfrwt beam="2">  1       -2 0.33221216E-01 0.80652513E+03</pdfrwt>
<totfact> 0.78082126E+00</totfact>
</mgrwt>
</event>
<event>
 4    1  0.7595604E-007  0.9212868E+03  0.7818608E-02  0.9492689E-01
         -2   -1    0    0    0  501 -0.00000000000E+00  0.00000000000E+00  0.39550143750E+03  0.39550143751E+03  0.25500000000E-02 0.  1.
          2   -1    0    0  501    0  0.00000000000E+00 -0.00000000000E+00 -0.22718764060E+04  0.22718764060E+04  0.25500000000E-02 0. -1.
    8880023    1    1    2    0    0 -0.44036547703E+03 -0.47014619311E+03 -0.31873139578E+03  0.97486363414E+03  0.65864270000E+03 0.  0.
    8880022    1    1    2    0    0  0.44036547703E+03  0.47014619311E+03 -0.15576435727E+04  0.16925142094E+04  0.15294330000E+03 0.  0.
<mgrwt>
<rscale>  0 0.84825001E+03</rscale>
<asrwt>0</asrwt>
<pdfrwt beam="1">  1        2 0.34951944E+00 0.92128682E+03</pdfrwt>
<pdfrwt beam="2">  1       -2 0.60846376E-01 0.92128682E+03</pdfrwt>
<totfact> 0.12028190E+01</totfact>
</mgrwt>
</event>
<event>
 4    1  0.7595604E-007  0.1201598E+04  0.7818608E-02  0.9155570E-01
          2   -1    0    0  501    0  0.00000000000E+00  0.00000000000E+00  0.20871636380E+04  0.20871636380E+04  0.25500000000E-02 0. -1.
         -2   -1    0    0    0  501 -0.00000000000E+00 -0.00000000000E+00 -0.99828869144E+03  0.99828869144E+03  0.25500000000E-02 0.  1.
    8880023    1    1    2    0    0 -0.42314851262E+03 -0.91157740201E+03 -0.41411453017E+03  0.12709559685E+04  0.65864270000E+03 0.  0.
    8880022    1    1    2    0    0  0.42314851262E+03  0.91157740201E+03  0.15029894767E+04  0.18144963609E+04  0.15294330000E+03 0.  0.
<mgrwt>
<rscale>  0 0.11524021E+04</rscale>
<asrwt>0</asrwt>
<pdfrwt beam="1">  1        2 0.32110209E+00 0.12015982E+04</pdfrwt>
<pdfrwt beam="2">  1       -2 0.15358288E+00 0.12015982E+04</pdfrwt>
<totfact> 0.16361534E+00</totfact>
</mgrwt>
</event>
<event>
 4    1  0.7595604E-007  0.9584653E+03  0.7818608E-02  0.9438038E-01
         -2   -1    0    0    0  501 -0.00000000000E+00  0.00000000000E+00  0.91704171976E+03  0.91704171976E+03  0.25500000000E-02 0.  1.
          2   -1    0    0  501    0  0.00000000000E+00 -0.00000000000E+00 -0.10939297813E+04  0.10939297813E+04  0.25500000000E-02 0. -1.
    8880023    1    1    2    0    0 -0.36018945036E+02 -0.69537627384E+03  0.45257193685E+03  0.10599420224E+04  0.65864270000E+03 0.  1.
    8880022    1    1    2    0    0  0.36018945036E+02  0.69537627384E+03 -0.62945999836E+03  0.95102947860E+03  0.15294330000E+03 0.  0.
<mgrwt>
<rscale>  0 0.89010369E+03</rscale>
<asrwt>0</asrwt>
<pdfrwt beam="1">  1        2 0.16829689E+00 0.95846530E+03</pdfrwt>
<pdfrwt beam="2">  1       -2 0.14108334E+00 0.95846530E+03</pdfrwt>
<totfact> 0.77012013E+00</totfact>
</mgrwt>
</event>
<event>
 4    1  0.7595604E-007  0.7758991E+03  0.7818608E-02  0.9765560E-01
         -2   -1    0    0    0  501 -0.00000000000E+00  0.00000000000E+00  0.42261815619E+03  0.42261815620E+03  0.25500000000E-02 0.  1.
          2   -1    0    0  501    0  0.00000000000E+00 -0.00000000000E+00 -0.10727332215E+04  0.10727332216E+04  0.25500000000E-02 0. -1.
    8880023    1    1    2    0    0 -0.38388799785E+03  0.14435809378E+03 -0.85002317323E+02  0.78054138542E+03  0.65864270000E+03 0.  1.
    8880022    1    1    2    0    0  0.38388799785E+03 -0.14435809378E+03 -0.56511274804E+03  0.71480999233E+03  0.15294330000E+03 0.  0.
<mgrwt>
<rscale>  0 0.67244016E+03</rscale>
<asrwt>0</asrwt>
<pdfrwt beam="1">  1        2 0.16503588E+00 0.77589913E+03</pdfrwt>
<pdfrwt beam="2">  1       -2 0.65018178E-01 0.77589913E+03</pdfrwt>
<totfact> 0.50112090E+01</totfact>
</mgrwt>
</event>
<event>
 4    1  0.7595604E-007  0.8612830E+03  0.7818608E-02  0.9591285E-01
          2   -1    0    0  501    0  0.00000000000E+00  0.00000000000E+00  0.10427115339E+04  0.10427115339E+04  0.25500000000E-02 0. -1.
         -2   -1    0    0    0  501 -0.00000000000E+00 -0.00000000000E+00 -0.17084611310E+04  0.17084611310E+04  0.25500000000E-02 0.  1.
    8880023    1    1    2    0    0  0.16241866667E+03 -0.53067734851E+03 -0.15046700394E+04  0.17337359676E+04  0.65864270000E+03 0.  1.
    8880022    1    1    2    0    0 -0.16241866667E+03  0.53067734851E+03  0.83892044237E+03  0.10174366974E+04  0.15294330000E+03 0.  0.
<mgrwt>
<rscale>  0 0.77875677E+03</rscale>
<asrwt>0</asrwt>
<pdfrwt beam="1">  1        2 0.16041716E+00 0.86128304E+03</pdfrwt>
<pdfrwt beam="2">  1       -2 0.26284017E+00 0.86128304E+03</pdfrwt>
<totfact> 0.12915865E+00</totfact>
</mgrwt>
</event>
<event>
 4    1  0.7595604E-007  0.7888525E+03  0.7818608E-02  0.9735439E-01
         -2   -1    0    0    0  501 -0.00000000000E+00  0.00000000000E+00  0.13494098956E+03  0.13494098958E+03  0.25500000000E-02 0.  1.
          2   -1    0    0  501    0  0.00000000000E+00 -0.00000000000E+00 -0.32546074619E+04  0.32546074619E+04  0.25500000000E-02 0. -1.
    8880023    1    1    2    0    0 -0.17174342368E+03 -0.39872584950E+03 -0.13753322736E+04  0.15855053376E+04  0.65864270000E+03 0.  0.
    8880022    1    1    2    0    0  0.17174342368E+03  0.39872584950E+03 -0.17443341988E+04  0.18040431139E+04  0.15294330000E+03 0.  0.
<mgrwt>
<rscale>  0 0.68945431E+03</rscale>
<asrwt>0</asrwt>
<pdfrwt beam="1">  1        2 0.50070878E+00 0.78885253E+03</pdfrwt>
<pdfrwt beam="2">  1       -2 0.20760155E-01 0.78885253E+03</pdfrwt>
<totfact> 0.25290401E+01</totfact>
</mgrwt>
</event>
<event>
 4    1  0.7595604E-007  0.8757808E+03  0.7818608E-02  0.9566086E-01
          2   -1    0    0  501    0  0.00000000000E+00  0.00000000000E+00  0.21353562470E+04  0.21353562470E+04  0.25500000000E-02 0. -1.
         -2   -1    0    0    0  501 -0.00000000000E+00 -0.00000000000E+00 -0.89862026713E+03  0.89862026713E+03  0.25500000000E-02 0.  1.
    8880023    1    1    2    0    0 -0.39788977221E+03  0.41816931170E+03 -0.62688724326E+03  0.10770235216E+04  0.65864270000E+03 0.  0.
    8880022    1    1    2    0    0  0.39788977221E+03 -0.41816931170E+03  0.18636232231E+04  0.19569529925E+04  0.15294330000E+03 0.  0.
<mgrwt>
<rscale>  0 0.79582065E+03</rscale>
<asrwt>0</asrwt>
<pdfrwt beam="1">  1        2 0.32851634E+00 0.87578082E+03</pdfrwt>
<pdfrwt beam="2">  1       -2 0.13824927E+00 0.87578082E+03</pdfrwt>
<totfact> 0.21218104E+00</totfact>
</mgrwt>
</event>
<event>
 4    1  0.7595604E-007  0.8513463E+03  0.7818608E-02  0.9609146E-01
          2   -1    0    0  501    0  0.00000000000E+00  0.00000000000E+00  0.14071026311E+04  0.14071026311E+04  0.25500000000E-02 0. -1.
         -2   -1    0    0    0  501 -0.00000000000E+00 -0.00000000000E+00 -0.59883960975E+03  0.59883960976E+03  0.25500000000E-02 0.  1.
    8880023    1    1    2    0    0 -0.41773306249E+02  0.53780605397E+03 -0.17957048554E+03  0.87007823001E+03  0.65864270000E+03 0.  0.
    8880022    1    1    2    0    0  0.41773306249E+02 -0.53780605397E+03  0.98783350690E+03  0.11358640109E+04  0.15294330000E+03 0.  0.
<mgrwt>
<rscale>  0 0.76693787E+03</rscale>
<asrwt>0</asrwt>
<pdfrwt beam="1">  1        2 0.21647733E+00 0.85134633E+03</pdfrwt>
<pdfrwt beam="2">  1       -2 0.92129171E-01 0.85134633E+03</pdfrwt>
<totfact> 0.14503508E+01</totfact>
</mgrwt>
</event>
<event>
 4    1  0.7595604E-007  0.8815572E+03  0.7818608E-02  0.9556311E-01
          2   -1    0    0  501    0  0.00000000000E+00  0.00000000000E+00  0.24739621669E+04  0.24739621669E+04  0.25500000000E-02 0. -1.
         -2   -1    0    0    0  501 -0.00000000000E+00 -0.00000000000E+00 -0.24799778023E+03  0.24799778025E+03  0.25500000000E-02 0.  1.
    8880023    1    1    2    0    0 -0.55502742026E+03 -0.18782271115E+03  0.87791827647E+03  0.12441396684E+04  0.65864270000E+03 0.  1.
    8880022    1    1    2    0    0  0.55502742026E+03  0.18782271115E+03  0.13480461102E+04  0.14778202788E+04  0.15294330000E+03 0.  0.
<mgrwt>
<rscale>  0 0.80256523E+03</rscale>
<asrwt>0</asrwt>
<pdfrwt beam="1">  1        2 0.38060955E+00 0.88155715E+03</pdfrwt>
<pdfrwt beam="2">  1       -2 0.38153506E-01 0.88155715E+03</pdfrwt>
<totfact> 0.23972758E+01</totfact>
</mgrwt>
</event>
<event>
 4    1  0.7595604E-007  0.1368983E+04  0.7818608E-02  0.9008166E-01
          2   -1    0    0  501    0  0.00000000000E+00  0.00000000000E+00  0.19880401685E+04  0.19880401685E+04  0.25500000000E-02 0. -1.
         -2   -1    0    0    0  501 -0.00000000000E+00 -0.00000000000E+00 -0.12991821826E+04  0.12991821826E+04  0.25500000000E-02 0.  1.
    8880023    1    1    2    0    0  0.63636957421E+03  0.10175157323E+04 -0.62176654009E+03  0.15035652088E+04  0.65864270000E+03 0.  0.
    8880022    1    1    2    0    0 -0.63636957421E+03 -0.10175157323E+04  0.13106245260E+04  0.17836571424E+04  0.15294330000E+03 0.  0.
<mgrwt>
<rscale>  0 0.13273331E+04</rscale>
<asrwt>0</asrwt>
<pdfrwt beam="1">  1        2 0.30585233E+00 0.13689831E+04</pdfrwt>
<pdfrwt beam="2">  1       -2 0.19987418E+00 0.13689831E+04</pdfrwt>
<totfact> 0.86097081E-01</totfact>
</mgrwt>
</event>
<event>
 4    1  0.7595604E-007  0.7756261E+03  0.7818608E-02  0.9766213E-01
         -2   -1    0    0    0  501 -0.00000000000E+00  0.00000000000E+00  0.20122652690E+03  0.20122652691E+03  0.25500000000E-02 0.  1.
          2   -1    0    0  501    0  0.00000000000E+00 -0.00000000000E+00 -0.21003084663E+04  0.21003084663E+04  0.25500000000E-02 0. -1.
    8880023    1    1    2    0    0 -0.21466868396E+02  0.40905354967E+03 -0.77968341614E+03  0.10997736443E+04  0.65864270000E+03 0. -1.
    8880022    1    1    2    0    0  0.21466868396E+02 -0.40905354967E+03 -0.11193985232E+04  0.12017613489E+04  0.15294330000E+03 0.  0.
<mgrwt>
<rscale>  0 0.67207671E+03</rscale>
<asrwt>0</asrwt>
<pdfrwt beam="1">  1        2 0.32312436E+00 0.77562609E+03</pdfrwt>
<pdfrwt beam="2">  1       -2 0.30957929E-01 0.77562609E+03</pdfrwt>
<totfact> 0.58355420E+01</totfact>
</mgrwt>
</event>
<event>
 4    1  0.7595604E-007  0.6604849E+03  0.7818608E-02  0.1023665E+00
         -2   -1    0    0    0  501 -0.00000000000E+00  0.00000000000E+00  0.13587969767E+03  0.13587969769E+03  0.25500000000E-02 0.  1.
          2   -1    0    0  501    0  0.00000000000E+00 -0.00000000000E+00 -0.14573849824E+04  0.14573849824E+04  0.25500000000E-02 0. -1.
    8880023    1    1    2    0    0 -0.19496361278E+02 -0.45276841515E+02 -0.74892650967E+03  0.99856458161E+03  0.65864270000E+03 0.  1.
    8880022    1    1    2    0    0  0.19496361278E+02  0.45276841515E+02 -0.57257877510E+03  0.59470009853E+03  0.15294330000E+03 0.  0.
<mgrwt>
<rscale>  0 0.46386904E+03</rscale>
<asrwt>0</asrwt>
<pdfrwt beam="1">  1        2 0.22421306E+00 0.66048490E+03</pdfrwt>
<pdfrwt beam="2">  1       -2 0.20904570E-01 0.66048490E+03</pdfrwt>
<totfact> 0.27008339E+02</totfact>
</mgrwt>
</event>
<event>
 4    1  0.7595604E-007  0.7950077E+03  0.7818608E-02  0.9721696E-01
          2   -1    0    0  501    0  0.00000000000E+00  0.00000000000E+00  0.23447816052E+04  0.23447816052E+04  0.25500000000E-02 0. -1.
         -2   -1    0    0    0  501 -0.00000000000E+00 -0.00000000000E+00 -0.44405845329E+03  0.44405845330E+03  0.25500000000E-02 0.  1.
    8880023    1    1    2    0    0 -0.34952052140E+03 -0.27579426134E+03 -0.35902338978E+02  0.79581797773E+03  0.65864270000E+03 0.  0.
    8880022    1    1    2    0    0  0.34952052140E+03  0.27579426134E+03  0.19366254909E+04  0.19930220808E+04  0.15294330000E+03 0.  0.
<mgrwt>
<rscale>  0 0.69739578E+03</rscale>
<asrwt>0</asrwt>
<pdfrwt beam="1">  1        2 0.36073563E+00 0.79500772E+03</pdfrwt>
<pdfrwt beam="2">  1       -2 0.68316685E-01 0.79500772E+03</pdfrwt>
<totfact> 0.86914659E+00</totfact>
</mgrwt>
</event>
<event>
 4    1  0.7595604E-007  0.7476063E+03  0.7818608E-02  0.9838320E-01
          2   -1    0    0  501    0  0.00000000000E+00  0.00000000000E+00  0.32232746739E+04  0.32232746739E+04  0.25500000000E-02 0. -1.
         -2   -1    0    0    0  501 -0.00000000000E+00 -0.00000000000E+00 -0.48709145344E+03  0.48709145345E+03  0.25500000000E-02 0.  1.
    8880023    1    1    2    0    0  0.34658156894E+03 -0.70612539075E+02 -0.17988750571E+03  0.76894384423E+03  0.65864270000E+03 0.  0.
    8880022    1    1    2    0    0 -0.34658156894E+03  0.70612539075E+02  0.29160707262E+04  0.29414222831E+04  0.15294330000E+03 0.  0.
<mgrwt>
<rscale>  0 0.63346008E+03</rscale>
<asrwt>0</asrwt>
<pdfrwt beam="1">  1        2 0.49588843E+00 0.74760626E+03</pdfrwt>
<pdfrwt beam="2">  1       -2 0.74937144E-01 0.74760626E+03</pdfrwt>
<totfact> 0.21562579E+00</totfact>
</mgrwt>
</event>
<event>
 4    1  0.7595604E-007  0.6741395E+03  0.7818608E-02  0.1012854E+00
          2   -1    0    0  501    0  0.00000000000E+00  0.00000000000E+00  0.10233793169E+04  0.10233793169E+04  0.25500000000E-02 0. -1.
         -2   -1    0    0    0  501 -0.00000000000E+00 -0.00000000000E+00 -0.33928539303E+03  0.33928539304E+03  0.25500000000E-02 0.  1.
    8880023    1    1    2    0    0 -0.90796422569E+02 -0.11139966397E+03  0.28987842646E+02  0.67476245951E+03  0.65864270000E+03 0.  1.
    8880022    1    1    2    0    0  0.90796422569E+02  0.11139966397E+03  0.65510608120E+03  0.68790225042E+03  0.15294330000E+03 0.  0.
<mgrwt>
<rscale>  0 0.50355866E+03</rscale>
<asrwt>0</asrwt>
<pdfrwt beam="1">  1        2 0.15744297E+00 0.67413951E+03</pdfrwt>
<pdfrwt beam="2">  1       -2 0.52197753E-01 0.67413951E+03</pdfrwt>
<totfact> 0.86045872E+01</totfact>
</mgrwt>
</event>
<event>
 4    1  0.7595604E-007  0.8275570E+03  0.7818608E-02  0.9654105E-01
          2   -1    0    0  501    0  0.00000000000E+00  0.00000000000E+00  0.13735107663E+04  0.13735107663E+04  0.25500000000E-02 0. -1.
         -2   -1    0    0    0  501 -0.00000000000E+00 -0.00000000000E+00 -0.86317326055E+03  0.86317326056E+03  0.25500000000E-02 0.  1.
    8880023    1    1    2    0    0 -0.46180070591E+03 -0.19437191874E+03 -0.59112199273E+03  0.10169934864E+04  0.65864270000E+03 0.  1.
    8880022    1    1    2    0    0  0.46180070591E+03  0.19437191874E+03  0.11014594985E+04  0.12196905405E+04  0.15294330000E+03 0.  0.
<mgrwt>
<rscale>  0 0.73816384E+03</rscale>
<asrwt>0</asrwt>
<pdfrwt beam="1">  1        2 0.21130935E+00 0.82755697E+03</pdfrwt>
<pdfrwt beam="2">  1       -2 0.13279589E+00 0.82755697E+03</pdfrwt>
<totfact> 0.62437424E+00</totfact>
</mgrwt>
</event>
<event>
 4    1  0.7595604E-007  0.9970342E+03  0.7818608E-02  0.9385448E-01
          2   -1    0    0  501    0  0.00000000000E+00  0.00000000000E+00  0.21762011346E+04  0.21762011346E+04  0.25500000000E-02 0. -1.
         -2   -1    0    0    0  501 -0.00000000000E+00 -0.00000000000E+00 -0.64789992696E+03  0.64789992697E+03  0.25500000000E-02 0.  1.
    8880023    1    1    2    0    0 -0.11387426560E+02 -0.74842322851E+03 -0.12304184828E+03  0.10045976832E+04  0.65864270000E+03 0.  1.
    8880022    1    1    2    0    0  0.11387426560E+02  0.74842322851E+03  0.16513430559E+04  0.18195033783E+04  0.15294330000E+03 0.  0.
<mgrwt>
<rscale>  0 0.93282980E+03</rscale>
<asrwt>0</asrwt>
<pdfrwt beam="1">  1        2 0.33480018E+00 0.99703421E+03</pdfrwt>
<pdfrwt beam="2">  1       -2 0.99676911E-01 0.99703421E+03</pdfrwt>
<totfact> 0.44479448E+00</totfact>
</mgrwt>
</event>
<event>
 4    1  0.7595604E-007  0.1186138E+04  0.7818608E-02  0.9170716E-01
         -2   -1    0    0    0  501 -0.00000000000E+00  0.00000000000E+00  0.23146438779E+04  0.23146438779E+04  0.25500000000E-02 0.  1.
          2   -1    0    0  501    0  0.00000000000E+00 -0.00000000000E+00 -0.17077590504E+04  0.17077590504E+04  0.25500000000E-02 0. -1.
    8880023    1    1    2    0    0  0.98231335648E+03 -0.90406022465E+02  0.19899940935E+04  0.23166785443E+04  0.65864270000E+03 0.  0.
    8880022    1    1    2    0    0 -0.98231335648E+03  0.90406022465E+02 -0.13831092660E+04  0.17057243839E+04  0.15294330000E+03 0.  0.
<mgrwt>
<rscale>  0 0.11360862E+04</rscale>
<asrwt>0</asrwt>
<pdfrwt beam="1">  1        2 0.26273216E+00 0.11861378E+04</pdfrwt>
<pdfrwt beam="2">  1       -2 0.35609906E+00 0.11861378E+04</pdfrwt>
<totfact> 0.13588545E-01</totfact>
</mgrwt>
</event>
<event>
 4    1  0.7595604E-007  0.1340239E+04  0.7818608E-02  0.9031567E-01
         -2   -1    0    0    0  501 -0.00000000000E+00  0.00000000000E+00  0.19809652102E+04  0.19809652102E+04  0.25500000000E-02 0.  1.
          2   -1    0    0  501    0  0.00000000000E+00 -0.00000000000E+00 -0.11242590414E+04  0.11242590414E+04  0.25500000000E-02 0. -1.
    8880023    1    1    2    0    0  0.75159703749E+03 -0.89304645560E+03  0.12809195234E+04  0.18539134581E+04  0.65864270000E+03 0.  0.
    8880022    1    1    2    0    0 -0.75159703749E+03  0.89304645560E+03 -0.42421335460E+03  0.12513107935E+04  0.15294330000E+03 0.  0.
<mgrwt>
<rscale>  0 0.12974782E+04</rscale>
<asrwt>0</asrwt>
<pdfrwt beam="1">  1        2 0.17296293E+00 0.13402389E+04</pdfrwt>
<pdfrwt beam="2">  1       -2 0.30476387E+00 0.13402389E+04</pdfrwt>
<totfact> 0.60157469E-01</totfact>
</mgrwt>
</event>
<event>
 4    1  0.7595604E-007  0.6628619E+03  0.7818608E-02  0.1021399E+00
          2   -1    0    0  501    0  0.00000000000E+00  0.00000000000E+00  0.81058421239E+03  0.81058421239E+03  0.25500000000E-02 0. -1.
         -2   -1    0    0    0  501 -0.00000000000E+00 -0.00000000000E+00 -0.56884448303E+03  0.56884448304E+03  0.25500000000E-02 0.  1.
    8880023    1    1    2    0    0  0.66905926403E+02  0.33155722297E+02 -0.35984076577E+03  0.75423556524E+03  0.65864270000E+03 0.  1.
    8880022    1    1    2    0    0 -0.66905926403E+02 -0.33155722297E+02  0.60158049512E+03  0.62519313019E+03  0.15294330000E+03 0.  0.
<mgrwt>
<rscale>  0 0.47185212E+03</rscale>
<asrwt>0</asrwt>
<pdfrwt beam="1">  1        2 0.12470526E+00 0.66286191E+03</pdfrwt>
<pdfrwt beam="2">  1       -2 0.87514536E-01 0.66286191E+03</pdfrwt>
<totfact> 0.38989772E+01</totfact>
</mgrwt>
</event>
<event>
 4    1  0.7595604E-007  0.6699503E+03  0.7818608E-02  0.1015698E+00
          2   -1    0    0  501    0  0.00000000000E+00  0.00000000000E+00  0.20593664385E+04  0.20593664385E+04  0.25500000000E-02 0. -1.
         -2   -1    0    0    0  501 -0.00000000000E+00 -0.00000000000E+00 -0.15944374466E+03  0.15944374468E+03  0.25500000000E-02 0.  1.
    8880023    1    1    2    0    0  0.11172975416E+03 -0.50395697985E+02  0.58516370973E+03  0.88952236497E+03  0.65864270000E+03 0.  1.
    8880022    1    1    2    0    0 -0.11172975416E+03  0.50395697985E+02  0.13147589841E+04  0.13292878182E+04  0.15294330000E+03 0.  0.
<mgrwt>
<rscale>  0 0.49271349E+03</rscale>
<asrwt>0</asrwt>
<pdfrwt beam="1">  1        2 0.31682557E+00 0.66995035E+03</pdfrwt>
<pdfrwt beam="2">  1       -2 0.24529810E-01 0.66995035E+03</pdfrwt>
<totfact> 0.95258550E+01</totfact>
</mgrwt>
</event>
<event>
 4    1  0.7595604E-007  0.7063087E+03  0.7818608E-02  0.9971972E-01
          2   -1    0    0  501    0  0.00000000000E+00  0.00000000000E+00  0.87979321823E+03  0.87979321823E+03  0.25500000000E-02 0. -1.
         -2   -1    0    0    0  501 -0.00000000000E+00 -0.00000000000E+00 -0.30196009441E+03  0.30196009442E+03  0.25500000000E-02 0.  1.
    8880023    1    1    2    0    0 -0.20004892028E+03 -0.15824746130E+03  0.27688459172E+03  0.75864162350E+03  0.65864270000E+03 0.  1.
    8880022    1    1    2    0    0  0.20004892028E+03  0.15824746130E+03  0.30094853210E+03  0.42311168916E+03  0.15294330000E+03 0. -1.
<mgrwt>
<rscale>  0 0.56896467E+03</rscale>
<asrwt>0</asrwt>
<pdfrwt beam="1">  1        2 0.13535280E+00 0.70630874E+03</pdfrwt>
<pdfrwt beam="2">  1       -2 0.46455399E-01 0.70630874E+03</pdfrwt>
<totfact> 0.13489251E+02</totfact>
</mgrwt>
</event>
<event>
 4    1  0.7595604E-007  0.1176417E+04  0.7818608E-02  0.9180394E-01
          2   -1    0    0  501    0  0.00000000000E+00  0.00000000000E+00  0.28423341701E+04  0.28423341701E+04  0.25500000000E-02 0. -1.
         -2   -1    0    0    0  501 -0.00000000000E+00 -0.00000000000E+00 -0.45315544788E+03  0.45315544789E+03  0.25500000000E-02 0.  1.
    8880023    1    1    2    0    0  0.64118124709E+03 -0.73418905868E+03  0.17873117355E+04  0.21397290510E+04  0.65864270000E+03 0. -1.
    8880022    1    1    2    0    0 -0.64118124709E+03  0.73418905868E+03  0.60186698671E+03  0.11557605670E+04  0.15294330000E+03 0.  0.
<mgrwt>
<rscale>  0 0.11258101E+04</rscale>
<asrwt>0</asrwt>
<pdfrwt beam="1">  1        2 0.43728217E+00 0.11764171E+04</pdfrwt>
<pdfrwt beam="2">  1       -2 0.69716224E-01 0.11764171E+04</pdfrwt>
<totfact> 0.40682624E+00</totfact>
</mgrwt>
</event>
<event>
 4    1  0.7595604E-007  0.7484314E+03  0.7818608E-02  0.9836034E-01
          2   -1    0    0  501    0  0.00000000000E+00  0.00000000000E+00  0.27653116597E+04  0.27653116597E+04  0.25500000000E-02 0. -1.
         -2   -1    0    0    0  501 -0.00000000000E+00 -0.00000000000E+00 -0.55357796180E+03  0.55357796180E+03  0.25500000000E-02 0.  1.
    8880023    1    1    2    0    0  0.35509620274E+03 -0.15684733418E+02 -0.27865184796E+03  0.79862155161E+03  0.65864270000E+03 0.  1.
    8880022    1    1    2    0    0 -0.35509620274E+03  0.15684733418E+02  0.24903855458E+04  0.25202680699E+04  0.15294330000E+03 0.  0.
<mgrwt>
<rscale>  0 0.63464074E+03</rscale>
<asrwt>0</asrwt>
<pdfrwt beam="1">  1        2 0.42543257E+00 0.74843138E+03</pdfrwt>
<pdfrwt beam="2">  1       -2 0.85165839E-01 0.74843138E+03</pdfrwt>
<totfact> 0.30832159E+00</totfact>
</mgrwt>
</event>
<event>
 4    1  0.7595604E-007  0.8095558E+03  0.7818608E-02  0.9690503E-01
         -2   -1    0    0    0  501 -0.00000000000E+00  0.00000000000E+00  0.54963691898E+03  0.54963691899E+03  0.25500000000E-02 0.  1.
          2   -1    0    0  501    0  0.00000000000E+00 -0.00000000000E+00 -0.10331054861E+04  0.10331054861E+04  0.25500000000E-02 0. -1.
    8880023    1    1    2    0    0 -0.28094492243E+03 -0.37767760296E+03  0.10216542403E+03  0.81597696129E+03  0.65864270000E+03 0.  1.
    8880022    1    1    2    0    0  0.28094492243E+03  0.37767760296E+03 -0.58563399120E+03  0.76676544385E+03  0.15294330000E+03 0.  0.
<mgrwt>
<rscale>  0 0.71585070E+03</rscale>
<asrwt>0</asrwt>
<pdfrwt beam="1">  1        2 0.15893931E+00 0.80955582E+03</pdfrwt>
<pdfrwt beam="2">  1       -2 0.84559526E-01 0.80955582E+03</pdfrwt>
<totfact> 0.29568347E+01</totfact>
</mgrwt>
</event>
<event>
 4    1  0.7595604E-007  0.7720922E+03  0.7818608E-02  0.9774752E-01
         -2   -1    0    0    0  501 -0.00000000000E+00  0.00000000000E+00  0.66103213297E+03  0.66103213298E+03  0.25500000000E-02 0.  1.
          2   -1    0    0  501    0  0.00000000000E+00 -0.00000000000E+00 -0.24252639679E+04  0.24252639680E+04  0.25500000000E-02 0. -1.
    8880023    1    1    2    0    0 -0.26349560537E+02 -0.40202214001E+03  0.40694085101E+03  0.87276982239E+03  0.65864270000E+03 0.  1.
    8880022    1    1    2    0    0  0.26349560537E+02  0.40202214001E+03 -0.21711726860E+04  0.22135262785E+04  0.15294330000E+03 0.  0.
<mgrwt>
<rscale>  0 0.66735299E+03</rscale>
<asrwt>0</asrwt>
<pdfrwt beam="1">  1        2 0.37311753E+00 0.77209216E+03</pdfrwt>
<pdfrwt beam="2">  1       -2 0.10169725E+00 0.77209216E+03</pdfrwt>
<totfact> 0.31848471E+00</totfact>
</mgrwt>
</event>
<event>
 4    1  0.7595604E-007  0.8840369E+03  0.7818608E-02  0.9552159E-01
          2   -1    0    0  501    0  0.00000000000E+00  0.00000000000E+00  0.11598558790E+04  0.11598558790E+04  0.25500000000E-02 0. -1.
         -2   -1    0    0    0  501 -0.00000000000E+00 -0.00000000000E+00 -0.85413025548E+03  0.85413025548E+03  0.25500000000E-02 0.  1.
    8880023    1    1    2    0    0  0.13877417313E+03 -0.57310801746E+03 -0.49085562594E+03  0.10111679003E+04  0.65864270000E+03 0.  0.
    8880022    1    1    2    0    0 -0.13877417313E+03  0.57310801746E+03  0.79658124949E+03  0.10028182342E+04  0.15294330000E+03 0. -1.
<mgrwt>
<rscale>  0 0.80545183E+03</rscale>
<asrwt>0</asrwt>
<pdfrwt beam="1">  1        2 0.17843936E+00 0.88403692E+03</pdfrwt>
<pdfrwt beam="2">  1       -2 0.13140466E+00 0.88403692E+03</pdfrwt>
<totfact> 0.84939714E+00</totfact>
</mgrwt>
</event>
<event>
 4    1  0.8930125E-007  0.1050112E+04  0.7818608E-02  0.9318747E-01
          2   -1    0    0  501    0  0.00000000000E+00  0.00000000000E+00  0.27252118283E+04  0.27252118283E+04  0.25500000000E-02 0. -1.
         -2   -1    0    0    0  501 -0.00000000000E+00 -0.00000000000E+00 -0.10308653067E+04  0.10308653067E+04  0.25500000000E-02 0.  1.
    8880023    1    1    2    0    0  0.33906358559E+03  0.74428514557E+03 -0.67266474892E+03  0.12470816187E+04  0.65864270000E+03 0.  0.
    8880022    1    1    2    0    0 -0.33906358559E+03 -0.74428514557E+03  0.23670112705E+04  0.25089955163E+04  0.15294330000E+03 0.  0.
<mgrwt>
<rscale>  0 0.99075141E+03</rscale>
<asrwt>0</asrwt>
<pdfrwt beam="1">  1        2 0.41926336E+00 0.10501118E+04</pdfrwt>
<pdfrwt beam="2">  1       -2 0.15859466E+00 0.10501118E+04</pdfrwt>
<totfact> 0.66308126E-01</totfact>
</mgrwt>
</event>
<event>
 4    1  0.7595604E-007  0.6801194E+03  0.7818608E-02  0.1009256E+00
         -2   -1    0    0    0  501 -0.00000000000E+00  0.00000000000E+00  0.58481246796E+03  0.58481246796E+03  0.25500000000E-02 0.  1.
          2   -1    0    0  501    0  0.00000000000E+00 -0.00000000000E+00 -0.69510002583E+03  0.69510002584E+03  0.25500000000E-02 0. -1.
    8880023    1    1    2    0    0 -0.16577668462E+03 -0.35640521656E+02  0.35088718975E+03  0.76530006020E+03  0.65864270000E+03 0.  1.
    8880022    1    1    2    0    0  0.16577668462E+03  0.35640521656E+02 -0.46117474763E+03  0.51461243360E+03  0.15294330000E+03 0.  0.
<mgrwt>
<rscale>  0 0.51771316E+03</rscale>
<asrwt>0</asrwt>
<pdfrwt beam="1">  1        2 0.10693847E+00 0.68011937E+03</pdfrwt>
<pdfrwt beam="2">  1       -2 0.89971149E-01 0.68011937E+03</pdfrwt>
<totfact> 0.44540483E+01</totfact>
</mgrwt>
</event>
<event>
 4    1  0.7595604E-007  0.7104475E+03  0.7818608E-02  0.9956343E-01
         -2   -1    0    0    0  501 -0.00000000000E+00  0.00000000000E+00  0.67888203963E+03  0.67888203964E+03  0.25500000000E-02 0.  1.
          2   -1    0    0  501    0  0.00000000000E+00 -0.00000000000E+00 -0.66892057801E+03  0.66892057802E+03  0.25500000000E-02 0. -1.
    8880023    1    1    2    0    0  0.24335074408E+03 -0.10819375186E+03  0.42775076773E+03  0.82928065101E+03  0.65864270000E+03 0.  1.
    8880022    1    1    2    0    0 -0.24335074408E+03  0.10819375186E+03 -0.41778930611E+03  0.51852196665E+03  0.15294330000E+03 0.  0.
<mgrwt>
<rscale>  0 0.57606677E+03</rscale>
<asrwt>0</asrwt>
<pdfrwt beam="1">  1        2 0.10291086E+00 0.71044752E+03</pdfrwt>
<pdfrwt beam="2">  1       -2 0.10444339E+00 0.71044752E+03</pdfrwt>
<totfact> 0.32834296E+01</totfact>
</mgrwt>
</event>
<event>
 4    1  0.7595604E-007  0.8512150E+03  0.7818608E-02  0.9609385E-01
         -2   -1    0    0    0  501 -0.00000000000E+00  0.00000000000E+00  0.55088958213E+03  0.55088958214E+03  0.25500000000E-02 0.  1.
          2   -1    0    0  501    0  0.00000000000E+00 -0.00000000000E+00 -0.12033248679E+04  0.12033248679E+04  0.25500000000E-02 0. -1.
    8880023    1    1    2    0    0  0.26487405243E+03  0.46967908870E+03  0.53424262148E+02  0.85288983349E+03  0.65864270000E+03 0.  1.
    8880022    1    1    2    0    0 -0.26487405243E+03 -0.46967908870E+03 -0.70585954793E+03  0.90132461657E+03  0.15294330000E+03 0.  0.
<mgrwt>
<rscale>  0 0.76678090E+03</rscale>
<asrwt>0</asrwt>
<pdfrwt beam="1">  1        2 0.18512690E+00 0.85121496E+03</pdfrwt>
<pdfrwt beam="2">  1       -2 0.84752243E-01 0.85121496E+03</pdfrwt>
<totfact> 0.23064173E+01</totfact>
</mgrwt>
</event>
<event>
 4    1  0.7595604E-007  0.7665920E+03  0.7818608E-02  0.9788331E-01
         -2   -1    0    0    0  501 -0.00000000000E+00  0.00000000000E+00  0.89445551555E+03  0.89445551555E+03  0.25500000000E-02 0.  1.
          2   -1    0    0  501    0  0.00000000000E+00 -0.00000000000E+00 -0.91600948482E+03  0.91600948482E+03  0.25500000000E-02 0. -1.
    8880023    1    1    2    0    0  0.38148998481E+03 -0.91205774397E+02  0.65853624329E+03  0.10106103561E+04  0.65864270000E+03 0.  1.
    8880022    1    1    2    0    0 -0.38148998481E+03  0.91205774397E+02 -0.68009021256E+03  0.79985464431E+03  0.15294330000E+03 0.  0.
<mgrwt>
<rscale>  0 0.65992547E+03</rscale>
<asrwt>0</asrwt>
<pdfrwt beam="1">  1        2 0.14092454E+00 0.76659201E+03</pdfrwt>
<pdfrwt beam="2">  1       -2 0.13760854E+00 0.76659201E+03</pdfrwt>
<totfact> 0.10900341E+01</totfact>
</mgrwt>
</event>
<event>
 4    1  0.7595604E-007  0.7904133E+03  0.7818608E-02  0.9731921E-01
         -2   -1    0    0    0  501 -0.00000000000E+00  0.00000000000E+00  0.29949182335E+03  0.29949182336E+03  0.25500000000E-02 0.  1.
          2   -1    0    0  501    0  0.00000000000E+00 -0.00000000000E+00 -0.30549313854E+04  0.30549313854E+04  0.25500000000E-02 0. -1.
    8880023    1    1    2    0    0 -0.28239234483E+03  0.33346295096E+03 -0.28383127274E+03  0.83982937179E+03  0.65864270000E+03 0.  0.
    8880022    1    1    2    0    0  0.28239234483E+03 -0.33346295096E+03 -0.24716082893E+04  0.25145938369E+04  0.15294330000E+03 0.  0.
<mgrwt>
<rscale>  0 0.69147618E+03</rscale>
<asrwt>0</asrwt>
<pdfrwt beam="1">  1        2 0.46998942E+00 0.79041330E+03</pdfrwt>
<pdfrwt beam="2">  1       -2 0.46075667E-01 0.79041330E+03</pdfrwt>
<totfact> 0.76004033E+00</totfact>
</mgrwt>
</event>
<event>
 4    1  0.7595604E-007  0.1268242E+04  0.7818608E-02  0.9093482E-01
         -2   -1    0    0    0  501 -0.00000000000E+00  0.00000000000E+00  0.50914793007E+03  0.50914793008E+03  0.25500000000E-02 0.  1.
          2   -1    0    0  501    0  0.00000000000E+00 -0.00000000000E+00 -0.27847002815E+04  0.27847002815E+04  0.25500000000E-02 0. -1.
    8880023    1    1    2    0    0 -0.42861007919E+03 -0.99544991256E+03 -0.14253660232E+04  0.19079060865E+04  0.65864270000E+03 0. -1.
    8880022    1    1    2    0    0  0.42861007919E+03  0.99544991256E+03 -0.85018632814E+03  0.13859421250E+04  0.15294330000E+03 0.  0.
<mgrwt>
<rscale>  0 0.12223892E+04</rscale>
<asrwt>0</asrwt>
<pdfrwt beam="1">  1        2 0.42841542E+00 0.12682418E+04</pdfrwt>
<pdfrwt beam="2">  1       -2 0.78330452E-01 0.12682418E+04</pdfrwt>
<totfact> 0.33639863E+00</totfact>
</mgrwt>
</event>
<event>
 4    1  0.7595604E-007  0.6710676E+03  0.7818608E-02  0.1014909E+00
          2   -1    0    0  501    0  0.00000000000E+00  0.00000000000E+00  0.55703341495E+03  0.55703341496E+03  0.25500000000E-02 0. -1.
         -2   -1    0    0    0  501 -0.00000000000E+00 -0.00000000000E+00 -0.61594060765E+03  0.61594060766E+03  0.25500000000E-02 0.  1.
    8880023    1    1    2    0    0 -0.12543717632E+03  0.28054097747E+02 -0.39740866887E+03  0.77991369648E+03  0.65864270000E+03 0.  1.
    8880022    1    1    2    0    0  0.12543717632E+03 -0.28054097747E+02  0.33850147616E+03  0.39306032614E+03  0.15294330000E+03 0.  0.
<mgrwt>
<rscale>  0 0.49569465E+03</rscale>
<asrwt>0</asrwt>
<pdfrwt beam="1">  1        2 0.85697449E-01 0.67106760E+03</pdfrwt>
<pdfrwt beam="2">  1       -2 0.94760093E-01 0.67106760E+03</pdfrwt>
<totfact> 0.51743962E+01</totfact>
</mgrwt>
</event>
<event>
 4    1  0.7595604E-007  0.7083783E+03  0.7818608E-02  0.9964073E-01
         -2   -1    0    0    0  501 -0.00000000000E+00  0.00000000000E+00  0.19691392743E+03  0.19691392744E+03  0.25500000000E-02 0.  1.
          2   -1    0    0  501    0  0.00000000000E+00 -0.00000000000E+00 -0.24561551286E+04  0.24561551286E+04  0.25500000000E-02 0. -1.
    8880023    1    1    2    0    0 -0.25726596139E+03 -0.42471670249E+02 -0.49760615514E+03  0.86568568751E+03  0.65864270000E+03 0.  1.
    8880022    1    1    2    0    0  0.25726596139E+03  0.42471670249E+02 -0.17616350460E+04  0.17873833685E+04  0.15294330000E+03 0.  0.
<mgrwt>
<rscale>  0 0.57254034E+03</rscale>
<asrwt>0</asrwt>
<pdfrwt beam="1">  1        2 0.37787000E+00 0.70837831E+03</pdfrwt>
<pdfrwt beam="2">  1       -2 0.30294452E-01 0.70837831E+03</pdfrwt>
<totfact> 0.38900215E+01</totfact>
</mgrwt>
</event>
<event>
 4    1  0.7595604E-007  0.8580255E+03  0.7818608E-02  0.9597085E-01
         -2   -1    0    0    0  501 -0.00000000000E+00  0.00000000000E+00  0.47898897702E+03  0.47898897702E+03  0.25500000000E-02 0.  1.
          2   -1    0    0  501    0  0.00000000000E+00 -0.00000000000E+00 -0.17566450411E+04  0.17566450411E+04  0.25500000000E-02 0. -1.
    8880023    1    1    2    0    0 -0.51255148636E+03 -0.19921991565E+03 -0.24231361356E+02  0.85836761711E+03  0.65864270000E+03 0.  0.
    8880022    1    1    2    0    0  0.51255148636E+03  0.19921991565E+03 -0.12534247027E+04  0.13772664010E+04  0.15294330000E+03 0.  0.
<mgrwt>
<rscale>  0 0.77489392E+03</rscale>
<asrwt>0</asrwt>
<pdfrwt beam="1">  1        2 0.27025308E+00 0.85802553E+03</pdfrwt>
<pdfrwt beam="2">  1       -2 0.73690613E-01 0.85802553E+03</pdfrwt>
<totfact> 0.15375834E+01</totfact>
</mgrwt>
</event>
<event>
 4    1  0.7595604E-007  0.7141333E+03  0.7818608E-02  0.9942961E-01
         -2   -1    0    0    0  501 -0.00000000000E+00  0.00000000000E+00  0.16580338192E+03  0.16580338194E+03  0.25500000000E-02 0.  1.
          2   -1    0    0  501    0  0.00000000000E+00 -0.00000000000E+00 -0.40527570237E+04  0.40527570237E+04  0.25500000000E-02 0. -1.
    8880023    1    1    2    0    0  0.26831975800E+03  0.64657757788E+02 -0.64810984340E+03  0.96438202677E+03  0.65864270000E+03 0.  1.
    8880022    1    1    2    0    0 -0.26831975800E+03 -0.64657757788E+02 -0.32388437984E+04  0.32541783788E+04  0.15294330000E+03 0.  0.
<mgrwt>
<rscale>  0 0.58223633E+03</rscale>
<asrwt>0</asrwt>
<pdfrwt beam="1">  1        2 0.62350100E+00 0.71413327E+03</pdfrwt>
<pdfrwt beam="2">  1       -2 0.25508216E-01 0.71413327E+03</pdfrwt>
<totfact> 0.47778066E+00</totfact>
</mgrwt>
</event>
<event>
 4    1  0.7595604E-007  0.7067271E+03  0.7818608E-02  0.9970361E-01
         -2   -1    0    0    0  501 -0.00000000000E+00  0.00000000000E+00  0.14281271286E+03  0.14281271288E+03  0.25500000000E-02 0.  1.
          2   -1    0    0  501    0  0.00000000000E+00 -0.00000000000E+00 -0.17686564403E+04  0.17686564403E+04  0.25500000000E-02 0. -1.
    8880023    1    1    2    0    0 -0.39301129523E+02  0.25319636991E+03 -0.11364677151E+04  0.13382907211E+04  0.65864270000E+03 0. -1.
    8880022    1    1    2    0    0  0.39301129523E+02 -0.25319636991E+03 -0.48937601239E+03  0.57317843211E+03  0.15294330000E+03 0. -1.
<mgrwt>
<rscale>  0 0.56969155E+03</rscale>
<asrwt>0</asrwt>
<pdfrwt beam="1">  1        2 0.27210098E+00 0.70672709E+03</pdfrwt>
<pdfrwt beam="2">  1       -2 0.21971188E-01 0.70672709E+03</pdfrwt>
<totfact> 0.16619114E+02</totfact>
</mgrwt>
</event>
<event>
 4    1  0.7595604E-007  0.7474214E+03  0.7818608E-02  0.9838834E-01
         -2   -1    0    0    0  501 -0.00000000000E+00  0.00000000000E+00  0.21353396790E+03  0.21353396792E+03  0.25500000000E-02 0.  1.
          2   -1    0    0  501    0  0.00000000000E+00 -0.00000000000E+00 -0.23620266552E+04  0.23620266552E+04  0.25500000000E-02 0. -1.
    8880023    1    1    2    0    0 -0.34399641234E+03  0.80591287713E+02 -0.54116064789E+03  0.92276407626E+03  0.65864270000E+03 0.  0.
    8880022    1    1    2    0    0  0.34399641234E+03 -0.80591287713E+02 -0.16073320394E+04  0.16527965469E+04  0.15294330000E+03 0.  0.
<mgrwt>
<rscale>  0 0.63319508E+03</rscale>
<asrwt>0</asrwt>
<pdfrwt beam="1">  1        2 0.36338870E+00 0.74742136E+03</pdfrwt>
<pdfrwt beam="2">  1       -2 0.32851381E-01 0.74742136E+03</pdfrwt>
<totfact> 0.37543330E+01</totfact>
</mgrwt>
</event>
<event>
 4    1  0.1615086E-006  0.7534380E+03  0.7818608E-02  0.9822402E-01
         -2   -1    0    0    0  501 -0.00000000000E+00  0.00000000000E+00  0.12055296318E+04  0.12055296318E+04  0.25500000000E-02 0.  1.
          2   -1    0    0  501    0  0.00000000000E+00 -0.00000000000E+00 -0.23033439337E+04  0.23033439337E+04  0.25500000000E-02 0. -1.
    8880023    1    1    2    0    0  0.24847167296E+03  0.26855243017E+03  0.10680216405E+04  0.13070344337E+04  0.65864270000E+03 0.  1.
    8880022    1    1    2    0    0 -0.24847167296E+03 -0.26855243017E+03 -0.21658359423E+04  0.22018391318E+04  0.15294330000E+03 0.  0.
<mgrwt>
<rscale>  0 0.64174064E+03</rscale>
<asrwt>0</asrwt>
<pdfrwt beam="1">  1        2 0.35436061E+00 0.75343798E+03</pdfrwt>
<pdfrwt beam="2">  1       -2 0.18546610E+00 0.75343798E+03</pdfrwt>
<totfact> 0.78781741E-01</totfact>
</mgrwt>
</event>
<event>
 4    1  0.7595604E-007  0.1022582E+04  0.7818608E-02  0.9352592E-01
         -2   -1    0    0    0  501 -0.00000000000E+00  0.00000000000E+00  0.72219634118E+03  0.72219634118E+03  0.25500000000E-02 0.  1.
          2   -1    0    0  501    0  0.00000000000E+00 -0.00000000000E+00 -0.16897080302E+04  0.16897080302E+04  0.25500000000E-02 0. -1.
    8880023    1    1    2    0    0  0.14289453206E+03 -0.76905446579E+03  0.15598094371E+03  0.10344099186E+04  0.65864270000E+03 0.  0.
    8880022    1    1    2    0    0 -0.14289453206E+03  0.76905446579E+03 -0.11234926328E+04  0.13774944528E+04  0.15294330000E+03 0.  0.
<mgrwt>
<rscale>  0 0.96082020E+03</rscale>
<asrwt>0</asrwt>
<pdfrwt beam="1">  1        2 0.25995508E+00 0.10225819E+04</pdfrwt>
<pdfrwt beam="2">  1       -2 0.11110713E+00 0.10225819E+04</pdfrwt>
<totfact> 0.63319092E+00</totfact>
</mgrwt>
</event>
<event>
 4    1  0.7595604E-007  0.8018594E+03  0.7818608E-02  0.9706790E-01
          2   -1    0    0  501    0  0.00000000000E+00  0.00000000000E+00  0.16532297916E+04  0.16532297916E+04  0.25500000000E-02 0. -1.
         -2   -1    0    0    0  501 -0.00000000000E+00 -0.00000000000E+00 -0.27152212124E+03  0.27152212125E+03  0.25500000000E-02 0.  1.
    8880023    1    1    2    0    0  0.11066931756E+03 -0.44375735608E+03  0.11158438269E+04  0.13740763957E+04  0.65864270000E+03 0.  0.
    8880022    1    1    2    0    0 -0.11066931756E+03  0.44375735608E+03  0.26586384347E+03  0.55067551716E+03  0.15294330000E+03 0. -1.
<mgrwt>
<rscale>  0 0.70613954E+03</rscale>
<asrwt>0</asrwt>
<pdfrwt beam="1">  1        2 0.25434305E+00 0.80185940E+03</pdfrwt>
<pdfrwt beam="2">  1       -2 0.41772633E-01 0.80185940E+03</pdfrwt>
<totfact> 0.57561241E+01</totfact>
</mgrwt>
</event>
<event>
 4    1  0.7595604E-007  0.7459424E+03  0.7818608E-02  0.9842963E-01
          2   -1    0    0  501    0  0.00000000000E+00  0.00000000000E+00  0.21885834816E+04  0.21885834816E+04  0.25500000000E-02 0. -1.
         -2   -1    0    0    0  501 -0.00000000000E+00 -0.00000000000E+00 -0.18974084613E+03  0.18974084615E+03  0.25500000000E-02 0.  1.
    8880023    1    1    2    0    0 -0.32958906020E+03  0.11828347795E+03  0.69462078937E+03  0.10192782628E+04  0.65864270000E+03 0.  1.
    8880022    1    1    2    0    0  0.32958906020E+03 -0.11828347795E+03  0.13042218461E+04  0.13590460649E+04  0.15294330000E+03 0.  0.
<mgrwt>
<rscale>  0 0.63106981E+03</rscale>
<asrwt>0</asrwt>
<pdfrwt beam="1">  1        2 0.33670516E+00 0.74594245E+03</pdfrwt>
<pdfrwt beam="2">  1       -2 0.29190899E-01 0.74594245E+03</pdfrwt>
<totfact> 0.58411340E+01</totfact>
</mgrwt>
</event>
<event>
 4    1  0.7595604E-007  0.9686847E+03  0.7818608E-02  0.9423726E-01
          2   -1    0    0  501    0  0.00000000000E+00  0.00000000000E+00  0.20904030637E+04  0.20904030637E+04  0.25500000000E-02 0. -1.
         -2   -1    0    0    0  501 -0.00000000000E+00 -0.00000000000E+00 -0.45456449923E+03  0.45456449924E+03  0.25500000000E-02 0.  1.
    8880023    1    1    2    0    0 -0.69269483251E+03 -0.15720578665E+03  0.15297725801E+04  0.18106778133E+04  0.65864270000E+03 0. -1.
    8880022    1    1    2    0    0  0.69269483251E+03  0.15720578665E+03  0.10606598428E+03  0.73428974961E+03  0.15294330000E+03 0.  0.
<mgrwt>
<rscale>  0 0.90148605E+03</rscale>
<asrwt>0</asrwt>
<pdfrwt beam="1">  1        2 0.32160046E+00 0.96868467E+03</pdfrwt>
<pdfrwt beam="2">  1       -2 0.69933002E-01 0.96868467E+03</pdfrwt>
<totfact> 0.11168420E+01</totfact>
</mgrwt>
</event>
<event>
 4    1  0.7595604E-007  0.9874139E+03  0.7818608E-02  0.9398213E-01
         -2   -1    0    0    0  501 -0.00000000000E+00  0.00000000000E+00  0.87965571439E+03  0.87965571440E+03  0.25500000000E-02 0.  1.
          2   -1    0    0  501    0  0.00000000000E+00 -0.00000000000E+00 -0.16874420263E+04  0.16874420263E+04  0.25500000000E-02 0. -1.
    8880023    1    1    2    0    0  0.66790390609E+02  0.73260837626E+03  0.46317179409E+03  0.10906485714E+04  0.65864270000E+03 0.  1.
    8880022    1    1    2    0    0 -0.66790390609E+02 -0.73260837626E+03 -0.12709581060E+04  0.14764491693E+04  0.15294330000E+03 0.  0.
<mgrwt>
<rscale>  0 0.92222931E+03</rscale>
<asrwt>0</asrwt>
<pdfrwt beam="1">  1        2 0.25960647E+00 0.98741389E+03</pdfrwt>
<pdfrwt beam="2">  1       -2 0.13533165E+00 0.98741389E+03</pdfrwt>
<totfact> 0.38922979E+00</totfact>
</mgrwt>
</event>
<event>
 4    1  0.7595604E-007  0.1807004E+04  0.7818608E-02  0.8718672E-01
          2   -1    0    0  501    0  0.00000000000E+00  0.00000000000E+00  0.35804317432E+04  0.35804317432E+04  0.25500000000E-02 0. -1.
         -2   -1    0    0    0  501 -0.00000000000E+00 -0.00000000000E+00 -0.11552544361E+04  0.11552544361E+04  0.25500000000E-02 0.  1.
    8880023    1    1    2    0    0 -0.14695638413E+04 -0.81965611100E+03  0.33415847661E+02  0.18073131574E+04  0.65864270000E+03 0.  0.
    8880022    1    1    2    0    0  0.14695638413E+04  0.81965611100E+03  0.23917614594E+04  0.29283730219E+04  0.15294330000E+03 0.  1.
<mgrwt>
<rscale>  0 0.17769173E+04</rscale>
<asrwt>0</asrwt>
<pdfrwt beam="1">  1        2 0.55083565E+00 0.18070042E+04</pdfrwt>
<pdfrwt beam="2">  1       -2 0.17773145E+00 0.18070042E+04</pdfrwt>
<totfact> 0.12281496E-01</totfact>
</mgrwt>
</event>
<event>
 4    1  0.7595604E-007  0.6602738E+03  0.7818608E-02  0.1023878E+00
          2   -1    0    0  501    0  0.00000000000E+00  0.00000000000E+00  0.18536984295E+04  0.18536984295E+04  0.25500000000E-02 0. -1.
         -2   -1    0    0    0  501 -0.00000000000E+00 -0.00000000000E+00 -0.12848523427E+03  0.12848523429E+03  0.25500000000E-02 0.  1.
    8880023    1    1    2    0    0 -0.11470214614E+02 -0.44941578741E+02  0.77280588465E+03  0.10164597645E+04  0.65864270000E+03 0.  1.
    8880022    1    1    2    0    0  0.11470214614E+02  0.44941578741E+02  0.95240731061E+03  0.96572389928E+03  0.15294330000E+03 0.  0.
<mgrwt>
<rscale>  0 0.46312899E+03</rscale>
<asrwt>0</asrwt>
<pdfrwt beam="1">  1        2 0.28518437E+00 0.66027382E+03</pdfrwt>
<pdfrwt beam="2">  1       -2 0.19766960E-01 0.66027382E+03</pdfrwt>
<totfact> 0.18071363E+02</totfact>
</mgrwt>
</event>
<event>
 4    1  0.7595604E-007  0.7245533E+03  0.7818608E-02  0.9907470E-01
          2   -1    0    0  501    0  0.00000000000E+00  0.00000000000E+00  0.71698288059E+03  0.71698288060E+03  0.25500000000E-02 0. -1.
         -2   -1    0    0    0  501 -0.00000000000E+00 -0.00000000000E+00 -0.54830891481E+03  0.54830891482E+03  0.25500000000E-02 0.  1.
    8880023    1    1    2    0    0  0.13753737960E+03 -0.26879496097E+03 -0.21294917816E+03  0.75519853057E+03  0.65864270000E+03 0.  1.
    8880022    1    1    2    0    0 -0.13753737960E+03  0.26879496097E+03  0.38162314394E+03  0.51009326484E+03  0.15294330000E+03 0.  0.
<mgrwt>
<rscale>  0 0.59900626E+03</rscale>
<asrwt>0</asrwt>
<pdfrwt beam="1">  1        2 0.11030506E+00 0.72455329E+03</pdfrwt>
<pdfrwt beam="2">  1       -2 0.84355218E-01 0.72455329E+03</pdfrwt>
<totfact> 0.49454851E+01</totfact>
</mgrwt>
</event>
<event>
 4    1  0.7595604E-007  0.7460738E+03  0.7818608E-02  0.9842595E-01
          2   -1    0    0  501    0  0.00000000000E+00  0.00000000000E+00  0.97985156865E+03  0.97985156865E+03  0.25500000000E-02 0. -1.
         -2   -1    0    0    0  501 -0.00000000000E+00 -0.00000000000E+00 -0.69199952733E+03  0.69199952733E+03  0.25500000000E-02 0.  1.
    8880023    1    1    2    0    0  0.34014821326E+03  0.84351093900E+02 -0.42811258733E+03  0.86017818371E+03  0.65864270000E+03 0.  1.
    8880022    1    1    2    0    0 -0.34014821326E+03 -0.84351093900E+02  0.71596462865E+03  0.81167291228E+03  0.15294330000E+03 0.  0.
<mgrwt>
<rscale>  0 0.63125899E+03</rscale>
<asrwt>0</asrwt>
<pdfrwt beam="1">  1        2 0.15074640E+00 0.74607380E+03</pdfrwt>
<pdfrwt beam="2">  1       -2 0.10646147E+00 0.74607380E+03</pdfrwt>
<totfact> 0.18765265E+01</totfact>
</mgrwt>
</event>
<event>
 4    1  0.7595604E-007  0.1054975E+04  0.7818608E-02  0.9312924E-01
          2   -1    0    0  501    0  0.00000000000E+00  0.00000000000E+00  0.13957125845E+04  0.13957125845E+04  0.25500000000E-02 0. -1.
         -2   -1    0    0    0  501 -0.00000000000E+00 -0.00000000000E+00 -0.94988255059E+03  0.94988255059E+03  0.25500000000E-02 0.  1.
    8880023    1    1    2    0    0  0.24535671453E+03  0.78674158503E+03 -0.42459265580E+03  0.11372121036E+04  0.65864270000E+03 0.  0.
    8880022    1    1    2    0    0 -0.24535671453E+03 -0.78674158503E+03  0.87042268973E+03  0.12083830315E+04  0.15294330000E+03 0.  0.
<mgrwt>
<rscale>  0 0.99601668E+03</rscale>
<asrwt>0</asrwt>
<pdfrwt beam="1">  1        2 0.21472501E+00 0.10549751E+04</pdfrwt>
<pdfrwt beam="2">  1       -2 0.14613578E+00 0.10549751E+04</pdfrwt>
<totfact> 0.46078970E+00</totfact>
</mgrwt>
</event>
<event>
 4    1  0.7595604E-007  0.9790890E+03  0.7818608E-02  0.9409442E-01
         -2   -1    0    0    0  501 -0.00000000000E+00  0.00000000000E+00  0.12464297459E+04  0.12464297459E+04  0.25500000000E-02 0.  1.
          2   -1    0    0  501    0  0.00000000000E+00 -0.00000000000E+00 -0.16784566904E+04  0.16784566904E+04  0.25500000000E-02 0. -1.
    8880023    1    1    2    0    0 -0.71759128416E+03  0.99336821804E+02  0.94543093413E+03  0.13610491956E+04  0.65864270000E+03 0.  0.
    8880022    1    1    2    0    0  0.71759128416E+03 -0.99336821804E+02 -0.13774578786E+04  0.15638372407E+04  0.15294330000E+03 0.  0.
<mgrwt>
<rscale>  0 0.91302712E+03</rscale>
<asrwt>0</asrwt>
<pdfrwt beam="1">  1        2 0.25822411E+00 0.97908900E+03</pdfrwt>
<pdfrwt beam="2">  1       -2 0.19175842E+00 0.97908900E+03</pdfrwt>
<totfact> 0.15170186E+00</totfact>
</mgrwt>
</event>
<event>
 4    1  0.7595604E-007  0.9233802E+03  0.7818608E-02  0.9489496E-01
          2   -1    0    0  501    0  0.00000000000E+00  0.00000000000E+00  0.29716357736E+04  0.29716357736E+04  0.25500000000E-02 0. -1.
         -2   -1    0    0    0  501 -0.00000000000E+00 -0.00000000000E+00 -0.50175401606E+03  0.50175401607E+03  0.25500000000E-02 0.  1.
    8880023    1    1    2    0    0  0.64074265271E+03  0.90937238278E+02  0.26317018232E+04  0.27889936215E+04  0.65864270000E+03 0. -1.
    8880022    1    1    2    0    0 -0.64074265271E+03 -0.90937238278E+02 -0.16182006566E+03  0.68439616815E+03  0.15294330000E+03 0.  0.
<mgrwt>
<rscale>  0 0.85062721E+03</rscale>
<asrwt>0</asrwt>
<pdfrwt beam="1">  1        2 0.45717473E+00 0.92338017E+03</pdfrwt>
<pdfrwt beam="2">  1       -2 0.77192927E-01 0.92338017E+03</pdfrwt>
<totfact> 0.28060657E+00</totfact>
</mgrwt>
</event>
<event>
 4    1  0.7595604E-007  0.7016877E+03  0.7818608E-02  0.9990271E-01
         -2   -1    0    0    0  501 -0.00000000000E+00  0.00000000000E+00  0.36601305727E+03  0.36601305728E+03  0.25500000000E-02 0.  1.
          2   -1    0    0  501    0  0.00000000000E+00 -0.00000000000E+00 -0.16708193719E+04  0.16708193719E+04  0.25500000000E-02 0. -1.
    8880023    1    1    2    0    0 -0.67747758360E+02  0.23230511186E+03 -0.71145429859E+00  0.70168806188E+03  0.65864270000E+03 0.  1.
    8880022    1    1    2    0    0  0.67747758360E+02 -0.23230511186E+03 -0.13040948603E+04  0.13351443673E+04  0.15294330000E+03 0.  0.
<mgrwt>
<rscale>  0 0.56078912E+03</rscale>
<asrwt>0</asrwt>
<pdfrwt beam="1">  1        2 0.25704913E+00 0.70168770E+03</pdfrwt>
<pdfrwt beam="2">  1       -2 0.56309702E-01 0.70168770E+03</pdfrwt>
<totfact> 0.31108677E+01</totfact>
</mgrwt>
</event>
<event>
 4    1  0.7595604E-007  0.6734630E+03  0.7818608E-02  0.1013293E+00
          2   -1    0    0  501    0  0.00000000000E+00  0.00000000000E+00  0.13036308129E+04  0.13036308129E+04  0.25500000000E-02 0. -1.
         -2   -1    0    0    0  501 -0.00000000000E+00 -0.00000000000E+00 -0.31530922558E+03  0.31530922559E+03  0.25500000000E-02 0.  1.
    8880023    1    1    2    0    0  0.13473387794E+03 -0.39861730967E+02  0.69615887532E+02  0.67705151467E+03  0.65864270000E+03 0.  1.
    8880022    1    1    2    0    0 -0.13473387794E+03  0.39861730967E+02  0.91870569980E+03  0.94188852382E+03  0.15294330000E+03 0.  0.
<mgrwt>
<rscale>  0 0.50186574E+03</rscale>
<asrwt>0</asrwt>
<pdfrwt beam="1">  1        2 0.20055859E+00 0.67346298E+03</pdfrwt>
<pdfrwt beam="2">  1       -2 0.48509111E-01 0.67346298E+03</pdfrwt>
<totfact> 0.67906393E+01</totfact>
</mgrwt>
</event>
<event>
 4    1  0.7595604E-007  0.6909256E+03  0.7818608E-02  0.1003716E+00
         -2   -1    0    0    0  501 -0.00000000000E+00  0.00000000000E+00  0.20067910952E+03  0.20067910954E+03  0.25500000000E-02 0.  1.
          2   -1    0    0  501    0  0.00000000000E+00 -0.00000000000E+00 -0.15077210256E+04  0.15077210256E+04  0.25500000000E-02 0. -1.
    8880023    1    1    2    0    0  0.12663040959E+03 -0.16592996093E+03 -0.47863115567E+03  0.84051531932E+03  0.65864270000E+03 0.  1.
    8880022    1    1    2    0    0 -0.12663040959E+03  0.16592996093E+03 -0.82841076043E+03  0.86788481585E+03  0.15294330000E+03 0.  0.
<mgrwt>
<rscale>  0 0.54050552E+03</rscale>
<asrwt>0</asrwt>
<pdfrwt beam="1">  1        2 0.23195707E+00 0.69092562E+03</pdfrwt>
<pdfrwt beam="2">  1       -2 0.30873710E-01 0.69092562E+03</pdfrwt>
<totfact> 0.12484866E+02</totfact>
</mgrwt>
</event>
<event>
 4    1  0.7595604E-007  0.7700127E+03  0.7818608E-02  0.9779843E-01
          2   -1    0    0  501    0  0.00000000000E+00  0.00000000000E+00  0.28621930114E+04  0.28621930114E+04  0.25500000000E-02 0. -1.
         -2   -1    0    0    0  501 -0.00000000000E+00 -0.00000000000E+00 -0.52336168381E+03  0.52336168381E+03  0.25500000000E-02 0.  1.
    8880023    1    1    2    0    0 -0.37007374271E+03 -0.14884502027E+03 -0.21242672479E+03  0.79877702444E+03  0.65864270000E+03 0.  0.
    8880022    1    1    2    0    0  0.37007374271E+03  0.14884502027E+03  0.25512580524E+04  0.25867776708E+04  0.15294330000E+03 0.  0.
<mgrwt>
<rscale>  0 0.66455604E+03</rscale>
<asrwt>0</asrwt>
<pdfrwt beam="1">  1        2 0.44033740E+00 0.77001274E+03</pdfrwt>
<pdfrwt beam="2">  1       -2 0.80517180E-01 0.77001274E+03</pdfrwt>
<totfact> 0.30548981E+00</totfact>
</mgrwt>
</event>
<event>
 4    1  0.7595604E-007  0.6850574E+03  0.7818608E-02  0.1006596E+00
         -2   -1    0    0    0  501 -0.00000000000E+00  0.00000000000E+00  0.13519387436E+03  0.13519387438E+03  0.25500000000E-02 0.  1.
          2   -1    0    0  501    0  0.00000000000E+00 -0.00000000000E+00 -0.30148676720E+04  0.30148676720E+04  0.25500000000E-02 0. -1.
    8880023    1    1    2    0    0 -0.84094013333E+02  0.16858697417E+03 -0.78712271772E+03  0.10434873023E+04  0.65864270000E+03 0.  1.
    8880022    1    1    2    0    0  0.84094013333E+02 -0.16858697417E+03 -0.20925510799E+04  0.21065742442E+04  0.15294330000E+03 0.  0.
<mgrwt>
<rscale>  0 0.52850099E+03</rscale>
<asrwt>0</asrwt>
<pdfrwt beam="1">  1        2 0.46382574E+00 0.68505735E+03</pdfrwt>
<pdfrwt beam="2">  1       -2 0.20799060E-01 0.68505735E+03</pdfrwt>
<totfact> 0.36254182E+01</totfact>
</mgrwt>
</event>
<event>
 4    1  0.7595604E-007  0.9160356E+03  0.7818608E-02  0.9500765E-01
          2   -1    0    0  501    0  0.00000000000E+00  0.00000000000E+00  0.17936778604E+04  0.17936778604E+04  0.25500000000E-02 0. -1.
         -2   -1    0    0    0  501 -0.00000000000E+00 -0.00000000000E+00 -0.63958796827E+03  0.63958796828E+03  0.25500000000E-02 0.  1.
    8880023    1    1    2    0    0  0.56679921564E+03  0.28991314310E+03 -0.19239957631E+03  0.93602285475E+03  0.65864270000E+03 0.  1.
    8880022    1    1    2    0    0 -0.56679921564E+03 -0.28991314310E+03  0.13464894685E+04  0.14972429740E+04  0.15294330000E+03 0.  0.
<mgrwt>
<rscale>  0 0.84227474E+03</rscale>
<asrwt>0</asrwt>
<pdfrwt beam="1">  1        2 0.27595044E+00 0.91603558E+03</pdfrwt>
<pdfrwt beam="2">  1       -2 0.98398149E-01 0.91603558E+03</pdfrwt>
<totfact> 0.75245198E+00</totfact>
</mgrwt>
</event>
<event>
 4    1  0.7595604E-007  0.7811131E+03  0.7818608E-02  0.9753229E-01
         -2   -1    0    0    0  501 -0.00000000000E+00  0.00000000000E+00  0.67414265914E+03  0.67414265915E+03  0.25500000000E-02 0.  1.
          2   -1    0    0  501    0  0.00000000000E+00 -0.00000000000E+00 -0.14199717666E+04  0.14199717666E+04  0.25500000000E-02 0. -1.
    8880023    1    1    2    0    0 -0.41524905805E+03  0.62415126918E+02  0.39033945407E+03  0.87321390503E+03  0.65864270000E+03 0.  0.
    8880022    1    1    2    0    0  0.41524905805E+03 -0.62415126918E+02 -0.11361685616E+04  0.12209005207E+04  0.15294330000E+03 0.  0.
<mgrwt>
<rscale>  0 0.67934108E+03</rscale>
<asrwt>0</asrwt>
<pdfrwt beam="1">  1        2 0.21845719E+00 0.78111307E+03</pdfrwt>
<pdfrwt beam="2">  1       -2 0.10371426E+00 0.78111307E+03</pdfrwt>
<totfact> 0.10875542E+01</totfact>
</mgrwt>
</event>
<event>
 4    1  0.7595604E-007  0.6687769E+03  0.7818608E-02  0.1016555E+00
          2   -1    0    0  501    0  0.00000000000E+00  0.00000000000E+00  0.18877718370E+03  0.18877718372E+03  0.25500000000E-02 0. -1.
         -2   -1    0    0    0  501 -0.00000000000E+00 -0.00000000000E+00 -0.12669038765E+04  0.12669038765E+04  0.25500000000E-02 0.  1.
    8880023    1    1    2    0    0  0.11327223015E+03  0.24934014963E+02 -0.10721589659E+04  0.12636405176E+04  0.65864270000E+03 0.  1.
    8880022    1    1    2    0    0 -0.11327223015E+03 -0.24934014963E+02 -0.59677268531E+01  0.19204054261E+03  0.15294330000E+03 0.  0.
<mgrwt>
<rscale>  0 0.48950453E+03</rscale>
<asrwt>0</asrwt>
<pdfrwt beam="1">  1        2 0.29042644E-01 0.66877688E+03</pdfrwt>
<pdfrwt beam="2">  1       -2 0.19490828E+00 0.66877688E+03</pdfrwt>
<totfact> 0.27119021E+01</totfact>
</mgrwt>
</event>
<event>
 4    1  0.7595604E-007  0.1093972E+04  0.7818608E-02  0.9267798E-01
         -2   -1    0    0    0  501 -0.00000000000E+00  0.00000000000E+00  0.87061227677E+03  0.87061227677E+03  0.25500000000E-02 0.  1.
          2   -1    0    0  501    0  0.00000000000E+00 -0.00000000000E+00 -0.15680446630E+04  0.15680446630E+04  0.25500000000E-02 0. -1.
    8880023    1    1    2    0    0 -0.53884578548E+03 -0.68746579725E+03  0.26948965890E+03  0.11266760339E+04  0.65864270000E+03 0.  0.
    8880022    1    1    2    0    0  0.53884578548E+03  0.68746579725E+03 -0.96692204517E+03  0.13119809059E+04  0.15294330000E+03 0. -1.
<mgrwt>
<rscale>  0 0.10380230E+04</rscale>
<asrwt>0</asrwt>
<pdfrwt beam="1">  1        2 0.24123764E+00 0.10939718E+04</pdfrwt>
<pdfrwt beam="2">  1       -2 0.13394035E+00 0.10939718E+04</pdfrwt>
<totfact> 0.46017316E+00</totfact>
</mgrwt>
</event>
<event>
 4    1  0.7595604E-007  0.7736514E+03  0.7818608E-02  0.9770967E-01
          2   -1    0    0  501    0  0.00000000000E+00  0.00000000000E+00  0.17564374566E+04  0.17564374566E+04  0.25500000000E-02 0. -1.
         -2   -1    0    0    0  501 -0.00000000000E+00 -0.00000000000E+00 -0.34277600171E+03  0.34277600172E+03  0.25500000000E-02 0.  1.
    8880023    1    1    2    0    0 -0.25864637172E+03  0.31277527201E+03  0.18390049548E+03  0.79520809533E+03  0.65864270000E+03 0.  0.
    8880022    1    1    2    0    0  0.25864637172E+03 -0.31277527201E+03  0.12297609594E+04  0.13040053630E+04  0.15294330000E+03 0.  0.
<mgrwt>
<rscale>  0 0.66944173E+03</rscale>
<asrwt>0</asrwt>
<pdfrwt beam="1">  1        2 0.27022116E+00 0.77365142E+03</pdfrwt>
<pdfrwt beam="2">  1       -2 0.52734768E-01 0.77365142E+03</pdfrwt>
<totfact> 0.31712475E+01</totfact>
</mgrwt>
</event>
<event>
 4    1  0.7595604E-007  0.6646615E+03  0.7818608E-02  0.1019819E+00
          2   -1    0    0  501    0  0.00000000000E+00  0.00000000000E+00  0.96720489540E+03  0.96720489540E+03  0.25500000000E-02 0. -1.
         -2   -1    0    0    0  501 -0.00000000000E+00 -0.00000000000E+00 -0.24824323405E+03  0.24824323407E+03  0.25500000000E-02 0.  1.
    8880023    1    1    2    0    0 -0.36221797392E+02 -0.81564382932E+02  0.24312730857E+03  0.70773290273E+03  0.65864270000E+03 0.  1.
    8880022    1    1    2    0    0  0.36221797392E+02  0.81564382932E+02  0.47583435277E+03  0.50771522674E+03  0.15294330000E+03 0.  0.
<mgrwt>
<rscale>  0 0.47751963E+03</rscale>
<asrwt>0</asrwt>
<pdfrwt beam="1">  1        2 0.14880075E+00 0.66466155E+03</pdfrwt>
<pdfrwt beam="2">  1       -2 0.38191266E-01 0.66466155E+03</pdfrwt>
<totfact> 0.17403597E+02</totfact>
</mgrwt>
</event>
<event>
 4    1  0.7595604E-007  0.1311672E+04  0.7818608E-02  0.9055545E-01
          2   -1    0    0  501    0  0.00000000000E+00  0.00000000000E+00  0.40355693511E+04  0.40355693511E+04  0.25500000000E-02 0. -1.
         -2   -1    0    0    0  501 -0.00000000000E+00 -0.00000000000E+00 -0.11239850185E+04  0.11239850185E+04  0.25500000000E-02 0.  1.
    8880023    1    1    2    0    0  0.92101657694E+03  0.66211960922E+03 -0.61731478587E+03  0.14496763994E+04  0.65864270000E+03 0.  0.
    8880022    1    1    2    0    0 -0.92101657694E+03 -0.66211960922E+03  0.35288991185E+04  0.37098779702E+04  0.15294330000E+03 0.  0.
<mgrwt>
<rscale>  0 0.12677413E+04</rscale>
<asrwt>0</asrwt>
<pdfrwt beam="1">  1        2 0.62085683E+00 0.13116723E+04</pdfrwt>
<pdfrwt beam="2">  1       -2 0.17292077E+00 0.13116723E+04</pdfrwt>
<totfact> 0.64233985E-02</totfact>
</mgrwt>
</event>
<event>
 4    1  0.7595604E-007  0.6586583E+03  0.7818608E-02  0.1025575E+00
          2   -1    0    0  501    0  0.00000000000E+00  0.00000000000E+00  0.29612051096E+03  0.29612051097E+03  0.25500000000E-02 0. -1.
         -2   -1    0    0    0  501 -0.00000000000E+00 -0.00000000000E+00 -0.67744559774E+03  0.67744559774E+03  0.25500000000E-02 0.  1.
    8880023    1    1    2    0    0 -0.30233283442E+01 -0.33725835235E+01 -0.45817246117E+03  0.80234202512E+03  0.65864270000E+03 0.  1.
    8880022    1    1    2    0    0  0.30233283442E+01  0.33725835235E+01  0.76847374397E+02  0.17122408359E+03  0.15294330000E+03 0.  0.
<mgrwt>
<rscale>  0 0.45727275E+03</rscale>
<asrwt>0</asrwt>
<pdfrwt beam="1">  1        2 0.45557002E-01 0.65865827E+03</pdfrwt>
<pdfrwt beam="2">  1       -2 0.10422240E+00 0.65865827E+03</pdfrwt>
<totfact> 0.84569530E+01</totfact>
</mgrwt>
</event>
<event>
 4    1  0.7595604E-007  0.8080359E+03  0.7818608E-02  0.9693683E-01
         -2   -1    0    0    0  501 -0.00000000000E+00  0.00000000000E+00  0.60521761311E+03  0.60521761311E+03  0.25500000000E-02 0.  1.
          2   -1    0    0  501    0  0.00000000000E+00 -0.00000000000E+00 -0.90323017389E+03  0.90323017389E+03  0.25500000000E-02 0. -1.
    8880023    1    1    2    0    0 -0.46734575591E+03 -0.26452466549E+02  0.17373550013E+03  0.82650227999E+03  0.65864270000E+03 0.  1.
    8880022    1    1    2    0    0  0.46734575591E+03  0.26452466549E+02 -0.47174806091E+03  0.68194550702E+03  0.15294330000E+03 0.  0.
<mgrwt>
<rscale>  0 0.71394166E+03</rscale>
<asrwt>0</asrwt>
<pdfrwt beam="1">  1        2 0.13895849E+00 0.80803589E+03</pdfrwt>
<pdfrwt beam="2">  1       -2 0.93110402E-01 0.80803589E+03</pdfrwt>
<totfact> 0.28776312E+01</totfact>
</mgrwt>
</event>
<event>
 4    1  0.7595604E-007  0.9269829E+03  0.7818608E-02  0.9484034E-01
         -2   -1    0    0    0  501 -0.00000000000E+00  0.00000000000E+00  0.73293764309E+03  0.73293764309E+03  0.25500000000E-02 0.  1.
          2   -1    0    0  501    0  0.00000000000E+00 -0.00000000000E+00 -0.13239186003E+04  0.13239186003E+04  0.25500000000E-02 0. -1.
    8880023    1    1    2    0    0  0.58824764087E+02  0.64963591479E+03  0.27037861914E+03  0.96560964091E+03  0.65864270000E+03 0.  1.
    8880022    1    1    2    0    0 -0.58824764087E+02 -0.64963591479E+03 -0.86135957637E+03  0.10912466025E+04  0.15294330000E+03 0.  0.
<mgrwt>
<rscale>  0 0.85471229E+03</rscale>
<asrwt>0</asrwt>
<pdfrwt beam="1">  1        2 0.20367978E+00 0.92698295E+03</pdfrwt>
<pdfrwt beam="2">  1       -2 0.11275964E+00 0.92698295E+03</pdfrwt>
<totfact> 0.99127913E+00</totfact>
</mgrwt>
</event>
<event>
 4    1  0.7595604E-007  0.8137606E+03  0.7818608E-02  0.9681796E-01
          2   -1    0    0  501    0  0.00000000000E+00  0.00000000000E+00  0.76223000316E+03  0.76223000317E+03  0.25500000000E-02 0. -1.
         -2   -1    0    0    0  501 -0.00000000000E+00 -0.00000000000E+00 -0.10970968784E+04  0.10970968784E+04  0.25500000000E-02 0.  1.
    8880023    1    1    2    0    0 -0.47564984015E+03 -0.46403463796E+02 -0.82434825941E+03  0.11583420527E+04  0.65864270000E+03 0.  0.
    8880022    1    1    2    0    0  0.47564984015E+03  0.46403463796E+02  0.48948138418E+03  0.70098482891E+03  0.15294330000E+03 0.  0.
<mgrwt>
<rscale>  0 0.72111046E+03</rscale>
<asrwt>0</asrwt>
<pdfrwt beam="1">  1        2 0.11726615E+00 0.81376057E+03</pdfrwt>
<pdfrwt beam="2">  1       -2 0.16878414E+00 0.81376057E+03</pdfrwt>
<totfact> 0.80648988E+00</totfact>
</mgrwt>
</event>
<event>
 4    1  0.7595604E-007  0.6966436E+03  0.7818608E-02  0.1001142E+00
          2   -1    0    0  501    0  0.00000000000E+00  0.00000000000E+00  0.10738449554E+04  0.10738449554E+04  0.25500000000E-02 0. -1.
         -2   -1    0    0    0  501 -0.00000000000E+00 -0.00000000000E+00 -0.22148297894E+03  0.22148297896E+03  0.25500000000E-02 0.  1.
    8880023    1    1    2    0    0  0.21812505892E+03 -0.62638797941E+02  0.55065455933E+03  0.88799369948E+03  0.65864270000E+03 0.  1.
    8880022    1    1    2    0    0 -0.21812505892E+03  0.62638797941E+02  0.30170741711E+03  0.40733423486E+03  0.15294330000E+03 0. -1.
<mgrwt>
<rscale>  0 0.55152316E+03</rscale>
<asrwt>0</asrwt>
<pdfrwt beam="1">  1        2 0.16520692E+00 0.69664364E+03</pdfrwt>
<pdfrwt beam="2">  1       -2 0.34074304E-01 0.69664364E+03</pdfrwt>
<totfact> 0.18499308E+02</totfact>
</mgrwt>
</event>
<event>
 4    1  0.7595604E-007  0.6877978E+03  0.7818608E-02  0.1005217E+00
          2   -1    0    0  501    0  0.00000000000E+00  0.00000000000E+00  0.12131042433E+04  0.12131042433E+04  0.25500000000E-02 0. -1.
         -2   -1    0    0    0  501 -0.00000000000E+00 -0.00000000000E+00 -0.29900795215E+03  0.29900795216E+03  0.25500000000E-02 0.  1.
    8880023    1    1    2    0    0 -0.54431680251E+01  0.19805539811E+03  0.14446716392E+03  0.70280618702E+03  0.65864270000E+03 0.  1.
    8880022    1    1    2    0    0  0.54431680251E+01 -0.19805539811E+03  0.76962912723E+03  0.80930600844E+03  0.15294330000E+03 0.  0.
<mgrwt>
<rscale>  0 0.53420543E+03</rscale>
<asrwt>0</asrwt>
<pdfrwt beam="1">  1        2 0.18663142E+00 0.68779777E+03</pdfrwt>
<pdfrwt beam="2">  1       -2 0.46001225E-01 0.68779777E+03</pdfrwt>
<totfact> 0.85154941E+01</totfact>
</mgrwt>
</event>
<event>
 4    1  0.7595604E-007  0.6831947E+03  0.7818608E-02  0.1007571E+00
         -2   -1    0    0    0  501 -0.00000000000E+00  0.00000000000E+00  0.25692722489E+03  0.25692722490E+03  0.25500000000E-02 0.  1.
          2   -1    0    0  501    0  0.00000000000E+00 -0.00000000000E+00 -0.11981289264E+04  0.11981289264E+04  0.25500000000E-02 0. -1.
    8880023    1    1    2    0    0 -0.13317119800E+03 -0.12332997360E+03 -0.25545060640E+03  0.72939020348E+03  0.65864270000E+03 0.  1.
    8880022    1    1    2    0    0  0.13317119800E+03  0.12332997360E+03 -0.68575109514E+03  0.72566594784E+03  0.15294330000E+03 0.  0.
<mgrwt>
<rscale>  0 0.52451405E+03</rscale>
<asrwt>0</asrwt>
<pdfrwt beam="1">  1        2 0.18432752E+00 0.68319474E+03</pdfrwt>
<pdfrwt beam="2">  1       -2 0.39527266E-01 0.68319474E+03</pdfrwt>
<totfact> 0.11723369E+02</totfact>
</mgrwt>
</event>
<event>
 4    1  0.7595604E-007  0.1025546E+04  0.7818608E-02  0.9348873E-01
          2   -1    0    0  501    0  0.00000000000E+00  0.00000000000E+00  0.12018539951E+04  0.12018539951E+04  0.25500000000E-02 0. -1.
         -2   -1    0    0    0  501 -0.00000000000E+00 -0.00000000000E+00 -0.16527442764E+04  0.16527442764E+04  0.25500000000E-02 0.  1.
    8880023    1    1    2    0    0  0.47404034764E+03  0.62707273545E+03 -0.13207981902E+04  0.16721999080E+04  0.65864270000E+03 0.  1.
    8880022    1    1    2    0    0 -0.47404034764E+03 -0.62707273545E+03  0.86990790897E+03  0.11823983634E+04  0.15294330000E+03 0.  0.
<mgrwt>
<rscale>  0 0.96405372E+03</rscale>
<asrwt>0</asrwt>
<pdfrwt beam="1">  1        2 0.18490062E+00 0.10255460E+04</pdfrwt>
<pdfrwt beam="2">  1       -2 0.25426835E+00 0.10255460E+04</pdfrwt>
<totfact> 0.11360133E+00</totfact>
</mgrwt>
</event>
<event>
 4    1  0.7595604E-007  0.8778281E+03  0.7818608E-02  0.9562605E-01
          2   -1    0    0  501    0  0.00000000000E+00  0.00000000000E+00  0.13714547301E+04  0.13714547301E+04  0.25500000000E-02 0. -1.
         -2   -1    0    0    0  501 -0.00000000000E+00 -0.00000000000E+00 -0.11193210685E+04  0.11193210685E+04  0.25500000000E-02 0.  1.
    8880023    1    1    2    0    0  0.34549919880E+02  0.57929122116E+03 -0.85883158243E+03  0.12280773221E+04  0.65864270000E+03 0.  1.
    8880022    1    1    2    0    0 -0.34549919880E+02 -0.57929122116E+03  0.11109652441E+04  0.12626984765E+04  0.15294330000E+03 0.  0.
<mgrwt>
<rscale>  0 0.79821449E+03</rscale>
<asrwt>0</asrwt>
<pdfrwt beam="1">  1        2 0.21099303E+00 0.87782813E+03</pdfrwt>
<pdfrwt beam="2">  1       -2 0.17220324E+00 0.87782813E+03</pdfrwt>
<totfact> 0.31118811E+00</totfact>
</mgrwt>
</event>
<event>
 4    1  0.7595604E-007  0.7138266E+03  0.7818608E-02  0.9944056E-01
         -2   -1    0    0    0  501 -0.00000000000E+00  0.00000000000E+00  0.11536336830E+03  0.11536336833E+03  0.25500000000E-02 0.  1.
          2   -1    0    0  501    0  0.00000000000E+00 -0.00000000000E+00 -0.42387907295E+04  0.42387907295E+04  0.25500000000E-02 0. -1.
    8880023    1    1    2    0    0  0.10245250770E+03 -0.25542466137E+03 -0.10806242500E+04  0.12951051115E+04  0.65864270000E+03 0.  0.
    8880022    1    1    2    0    0 -0.10245250770E+03  0.25542466137E+03 -0.30428031112E+04  0.30590489863E+04  0.15294330000E+03 0.  0.
<mgrwt>
<rscale>  0 0.58172826E+03</rscale>
<asrwt>0</asrwt>
<pdfrwt beam="1">  1        2 0.65212153E+00 0.71382665E+03</pdfrwt>
<pdfrwt beam="2">  1       -2 0.17748214E-01 0.71382665E+03</pdfrwt>
<totfact> 0.63536828E+00</totfact>
</mgrwt>
</event>
<event>
 4    1  0.7595604E-007  0.6957500E+03  0.7818608E-02  0.1001531E+00
         -2   -1    0    0    0  501 -0.00000000000E+00  0.00000000000E+00  0.31726823187E+03  0.31726823188E+03  0.25500000000E-02 0.  1.
          2   -1    0    0  501    0  0.00000000000E+00 -0.00000000000E+00 -0.26227879734E+04  0.26227879734E+04  0.25500000000E-02 0. -1.
    8880023    1    1    2    0    0  0.50422225641E+02 -0.21843881643E+03 -0.82604886605E+02  0.70063663258E+03  0.65864270000E+03 0.  0.
    8880022    1    1    2    0    0 -0.50422225641E+02  0.21843881643E+03 -0.22229148549E+04  0.22394195727E+04  0.15294330000E+03 0.  0.
<mgrwt>
<rscale>  0 0.54983985E+03</rscale>
<asrwt>0</asrwt>
<pdfrwt beam="1">  1        2 0.40350583E+00 0.69575004E+03</pdfrwt>
<pdfrwt beam="2">  1       -2 0.48810499E-01 0.69575004E+03</pdfrwt>
<totfact> 0.12444472E+01</totfact>
</mgrwt>
</event>
<event>
 4    1  0.7595604E-007  0.6868040E+03  0.7818608E-02  0.1005710E+00
         -2   -1    0    0    0  501 -0.00000000000E+00  0.00000000000E+00  0.18959746760E+03  0.18959746761E+03  0.25500000000E-02 0.  1.
          2   -1    0    0  501    0  0.00000000000E+00 -0.00000000000E+00 -0.11747143466E+04  0.11747143466E+04  0.25500000000E-02 0. -1.
    8880023    1    1    2    0    0  0.93257341675E+01  0.19442866342E+03 -0.63394989228E+03  0.93466151449E+03  0.65864270000E+03 0. -1.
    8880022    1    1    2    0    0 -0.93257341675E+01 -0.19442866342E+03 -0.35116698671E+03  0.42965029971E+03  0.15294330000E+03 0.  1.
<mgrwt>
<rscale>  0 0.53215781E+03</rscale>
<asrwt>0</asrwt>
<pdfrwt beam="1">  1        2 0.18072528E+00 0.68680396E+03</pdfrwt>
<pdfrwt beam="2">  1       -2 0.29168842E-01 0.68680396E+03</pdfrwt>
<totfact> 0.21507216E+02</totfact>
</mgrwt>
</event>
<event>
 4    1  0.7595604E-007  0.7400245E+03  0.7818608E-02  0.9859876E-01
          2   -1    0    0  501    0  0.00000000000E+00  0.00000000000E+00  0.37899554589E+03  0.37899554590E+03  0.25500000000E-02 0. -1.
         -2   -1    0    0    0  501 -0.00000000000E+00 -0.00000000000E+00 -0.13090685930E+04  0.13090685930E+04  0.25500000000E-02 0.  1.
    8880023    1    1    2    0    0 -0.10871497636E+03 -0.31938555827E+03 -0.10623805415E+04  0.12947156839E+04  0.65864270000E+03 0.  0.
    8880022    1    1    2    0    0  0.10871497636E+03  0.31938555827E+03  0.13230749444E+03  0.39334845496E+03  0.15294330000E+03 0. -1.
<mgrwt>
<rscale>  0 0.62245916E+03</rscale>
<asrwt>0</asrwt>
<pdfrwt beam="1">  1        2 0.58307008E-01 0.74002452E+03</pdfrwt>
<pdfrwt beam="2">  1       -2 0.20139517E+00 0.74002452E+03</pdfrwt>
<totfact> 0.11220658E+01</totfact>
</mgrwt>
</event>
<event>
 4    1  0.7595604E-007  0.8330927E+03  0.7818608E-02  0.9643345E-01
          2   -1    0    0  501    0  0.00000000000E+00  0.00000000000E+00  0.16662833253E+04  0.16662833253E+04  0.25500000000E-02 0. -1.
         -2   -1    0    0    0  501 -0.00000000000E+00 -0.00000000000E+00 -0.60966246347E+03  0.60966246347E+03  0.25500000000E-02 0.  1.
    8880023    1    1    2    0    0  0.12078750480E+03 -0.49562439921E+03 -0.24600731735E+03  0.86865584259E+03  0.65864270000E+03 0.  0.
    8880022    1    1    2    0    0 -0.12078750480E+03  0.49562439921E+03  0.13026281791E+04  0.14072899461E+04  0.15294330000E+03 0.  0.
<mgrwt>
<rscale>  0 0.74492579E+03</rscale>
<asrwt>0</asrwt>
<pdfrwt beam="1">  1        2 0.25635127E+00 0.83309266E+03</pdfrwt>
<pdfrwt beam="2">  1       -2 0.93794228E-01 0.83309266E+03</pdfrwt>
<totfact> 0.99960884E+00</totfact>
</mgrwt>
</event>
<event>
 4    1  0.7595604E-007  0.6611449E+03  0.7818608E-02  0.1023013E+00
          2   -1    0    0  501    0  0.00000000000E+00  0.00000000000E+00  0.61804638796E+03  0.61804638796E+03  0.25500000000E-02 0. -1.
         -2   -1    0    0    0  501 -0.00000000000E+00 -0.00000000000E+00 -0.30459293710E+03  0.30459293711E+03  0.25500000000E-02 0.  1.
    8880023    1    1    2    0    0  0.54016677477E+02  0.19610513914E+02  0.12436095134E+03  0.67273934490E+03  0.65864270000E+03 0.  1.
    8880022    1    1    2    0    0 -0.54016677477E+02 -0.19610513914E+02  0.18909249952E+03  0.24989998017E+03  0.15294330000E+03 0.  0.
<mgrwt>
<rscale>  0 0.46614846E+03</rscale>
<asrwt>0</asrwt>
<pdfrwt beam="1">  1        2 0.95084060E-01 0.66114490E+03</pdfrwt>
<pdfrwt beam="2">  1       -2 0.46860452E-01 0.66114490E+03</pdfrwt>
<totfact> 0.20929580E+02</totfact>
</mgrwt>
</event>
<event>
 4    1  0.7595604E-007  0.8734317E+03  0.7818608E-02  0.9570104E-01
         -2   -1    0    0    0  501 -0.00000000000E+00  0.00000000000E+00  0.75245926755E+03  0.75245926756E+03  0.25500000000E-02 0.  1.
          2   -1    0    0  501    0  0.00000000000E+00 -0.00000000000E+00 -0.16347225543E+04  0.16347225543E+04  0.25500000000E-02 0. -1.
    8880023    1    1    2    0    0  0.18724101736E+03 -0.54223013272E+03  0.41014476308E+03  0.96493608512E+03  0.65864270000E+03 0.  0.
    8880022    1    1    2    0    0 -0.18724101736E+03  0.54223013272E+03 -0.12924080498E+04  0.14222457368E+04  0.15294330000E+03 0.  0.
<mgrwt>
<rscale>  0 0.79306925E+03</rscale>
<asrwt>0</asrwt>
<pdfrwt beam="1">  1        2 0.25149578E+00 0.87343169E+03</pdfrwt>
<pdfrwt beam="2">  1       -2 0.11576296E+00 0.87343169E+03</pdfrwt>
<totfact> 0.62513852E+00</totfact>
</mgrwt>
</event>
<event>
 4    1  0.7595604E-007  0.9851366E+03  0.7818608E-02  0.9401267E-01
         -2   -1    0    0    0  501 -0.00000000000E+00  0.00000000000E+00  0.85108371503E+03  0.85108371503E+03  0.25500000000E-02 0.  1.
          2   -1    0    0  501    0  0.00000000000E+00 -0.00000000000E+00 -0.36313393236E+04  0.36313393236E+04  0.25500000000E-02 0. -1.
    8880023    1    1    2    0    0  0.29964884034E+03 -0.66850169074E+03  0.50916901255E+03  0.11089396862E+04  0.65864270000E+03 0.  0.
    8880022    1    1    2    0    0 -0.29964884034E+03  0.66850169074E+03 -0.32894246212E+04  0.33734833525E+04  0.15294330000E+03 0.  0.
<mgrwt>
<rscale>  0 0.91971480E+03</rscale>
<asrwt>0</asrwt>
<pdfrwt beam="1">  1        2 0.55866758E+00 0.98513661E+03</pdfrwt>
<pdfrwt beam="2">  1       -2 0.13093596E+00 0.98513661E+03</pdfrwt>
<totfact> 0.29028079E-01</totfact>
</mgrwt>
</event>
<event>
 4    1  0.7595604E-007  0.8686930E+03  0.7818608E-02  0.9578283E-01
          2   -1    0    0  501    0  0.00000000000E+00  0.00000000000E+00  0.10097078216E+04  0.10097078216E+04  0.25500000000E-02 0. -1.
         -2   -1    0    0    0  501 -0.00000000000E+00 -0.00000000000E+00 -0.12083090951E+04  0.12083090951E+04  0.25500000000E-02 0.  1.
    8880023    1    1    2    0    0 -0.24416703185E+03  0.51107710529E+03 -0.93514176996E+03  0.12763689448E+04  0.65864270000E+03 0.  1.
    8880022    1    1    2    0    0  0.24416703185E+03 -0.51107710529E+03  0.73654049646E+03  0.94164797188E+03  0.15294330000E+03 0.  0.
<mgrwt>
<rscale>  0 0.78750356E+03</rscale>
<asrwt>0</asrwt>
<pdfrwt beam="1">  1        2 0.15533966E+00 0.86869301E+03</pdfrwt>
<pdfrwt beam="2">  1       -2 0.18589371E+00 0.86869301E+03</pdfrwt>
<totfact> 0.41285194E+00</totfact>
</mgrwt>
</event>
<event>
 4    1  0.7595604E-007  0.8174115E+03  0.7818608E-02  0.9674341E-01
         -2   -1    0    0    0  501 -0.00000000000E+00  0.00000000000E+00  0.38352091056E+03  0.38352091057E+03  0.25500000000E-02 0.  1.
          2   -1    0    0  501    0  0.00000000000E+00 -0.00000000000E+00 -0.16591224369E+04  0.16591224369E+04  0.25500000000E-02 0. -1.
    8880023    1    1    2    0    0  0.59235456695E+02  0.48046076990E+03 -0.18270001560E+03  0.83758037985E+03  0.65864270000E+03 0.  1.
    8880022    1    1    2    0    0 -0.59235456695E+02 -0.48046076990E+03 -0.10929015107E+04  0.12050629676E+04  0.15294330000E+03 0.  0.
<mgrwt>
<rscale>  0 0.72565290E+03</rscale>
<asrwt>0</asrwt>
<pdfrwt beam="1">  1        2 0.25524960E+00 0.81741152E+03</pdfrwt>
<pdfrwt beam="2">  1       -2 0.59003218E-01 0.81741152E+03</pdfrwt>
<totfact> 0.28237083E+01</totfact>
</mgrwt>
</event>
<event>
 4    1  0.9819183E-007  0.6680945E+03  0.7818608E-02  0.1017067E+00
         -2   -1    0    0    0  501 -0.00000000000E+00  0.00000000000E+00  0.81103849389E+03  0.81103849390E+03  0.25500000000E-02 0.  1.
          2   -1    0    0  501    0  0.00000000000E+00 -0.00000000000E+00 -0.10795249570E+04  0.10795249570E+04  0.25500000000E-02 0. -1.
    8880023    1    1    2    0    0 -0.93251742334E+02  0.62001215148E+02  0.66225925880E+03  0.94071120450E+03  0.65864270000E+03 0.  1.
    8880022    1    1    2    0    0  0.93251742334E+02 -0.62001215148E+02 -0.93074572193E+03  0.94985224642E+03  0.15294330000E+03 0.  0.
<mgrwt>
<rscale>  0 0.48759936E+03</rscale>
<asrwt>0</asrwt>
<pdfrwt beam="1">  1        2 0.16608076E+00 0.66809449E+03</pdfrwt>
<pdfrwt beam="2">  1       -2 0.12477515E+00 0.66809449E+03</pdfrwt>
<totfact> 0.11116547E+01</totfact>
</mgrwt>
</event>
<event>
 4    1  0.7595604E-007  0.2126616E+04  0.7818608E-02  0.8560594E-01
          2   -1    0    0  501    0  0.00000000000E+00  0.00000000000E+00  0.42626413711E+04  0.42626413711E+04  0.25500000000E-02 0. -1.
         -2   -1    0    0    0  501 -0.00000000000E+00 -0.00000000000E+00 -0.10948065595E+04  0.10948065595E+04  0.25500000000E-02 0.  1.
    8880023    1    1    2    0    0 -0.15860885819E+04 -0.12541959040E+04  0.88333145529E+03  0.23027742012E+04  0.65864270000E+03 0.  0.
    8880022    1    1    2    0    0  0.15860885819E+04  0.12541959040E+04  0.22845033563E+04  0.30546737295E+04  0.15294330000E+03 0.  0.
<mgrwt>
<rscale>  0 0.21014759E+04</rscale>
<asrwt>0</asrwt>
<pdfrwt beam="1">  1        2 0.65579097E+00 0.21266158E+04</pdfrwt>
<pdfrwt beam="2">  1       -2 0.16843178E+00 0.21266158E+04</pdfrwt>
<totfact> 0.39920517E-02</totfact>
</mgrwt>
</event>
<event>
 4    1  0.7595604E-007  0.7086882E+03  0.7818608E-02  0.9962905E-01
         -2   -1    0    0    0  501 -0.00000000000E+00  0.00000000000E+00  0.56111048904E+03  0.56111048904E+03  0.25500000000E-02 0.  1.
          2   -1    0    0  501    0  0.00000000000E+00 -0.00000000000E+00 -0.18308279201E+04  0.18308279201E+04  0.25500000000E-02 0. -1.
    8880023    1    1    2    0    0 -0.30607849770E+02 -0.25979201591E+03  0.31713696185E+03  0.77641148293E+03  0.65864270000E+03 0.  1.
    8880022    1    1    2    0    0  0.30607849770E+02  0.25979201591E+03 -0.15868543929E+04  0.16155269262E+04  0.15294330000E+03 0.  0.
<mgrwt>
<rscale>  0 0.57307146E+03</rscale>
<asrwt>0</asrwt>
<pdfrwt beam="1">  1        2 0.28166583E+00 0.70868818E+03</pdfrwt>
<pdfrwt beam="2">  1       -2 0.86324691E-01 0.70868818E+03</pdfrwt>
<totfact> 0.10013868E+01</totfact>
</mgrwt>
</event>
<event>
 4    1  0.7595604E-007  0.6660443E+03  0.7818608E-02  0.1018673E+00
          2   -1    0    0  501    0  0.00000000000E+00  0.00000000000E+00  0.19534639079E+04  0.19534639079E+04  0.25500000000E-02 0. -1.
         -2   -1    0    0    0  501 -0.00000000000E+00 -0.00000000000E+00 -0.14397578096E+03  0.14397578098E+03  0.25500000000E-02 0.  1.
    8880023    1    1    2    0    0  0.89522779189E+02  0.42313301827E+02  0.67452293237E+03  0.94794310803E+03  0.65864270000E+03 0.  1.
    8880022    1    1    2    0    0 -0.89522779189E+02 -0.42313301827E+02  0.11349651945E+04  0.11494965808E+04  0.15294330000E+03 0.  0.
<mgrwt>
<rscale>  0 0.48168562E+03</rscale>
<asrwt>0</asrwt>
<pdfrwt beam="1">  1        2 0.30053289E+00 0.66604426E+03</pdfrwt>
<pdfrwt beam="2">  1       -2 0.22150122E-01 0.66604426E+03</pdfrwt>
<totfact> 0.13053334E+02</totfact>
</mgrwt>
</event>
<event>
 4    1  0.7595604E-007  0.7241071E+03  0.7818608E-02  0.9908926E-01
         -2   -1    0    0    0  501 -0.00000000000E+00  0.00000000000E+00  0.21038798090E+03  0.21038798092E+03  0.25500000000E-02 0.  1.
          2   -1    0    0  501    0  0.00000000000E+00 -0.00000000000E+00 -0.19135374910E+04  0.19135374910E+04  0.25500000000E-02 0. -1.
    8880023    1    1    2    0    0  0.18622471567E+03  0.23630752365E+03 -0.51447933565E+03  0.88826802461E+03  0.65864270000E+03 0.  1.
    8880022    1    1    2    0    0 -0.18622471567E+03 -0.23630752365E+03 -0.11886701744E+04  0.12356574473E+04  0.15294330000E+03 0.  0.
<mgrwt>
<rscale>  0 0.59830626E+03</rscale>
<asrwt>0</asrwt>
<pdfrwt beam="1">  1        2 0.29439037E+00 0.72410710E+03</pdfrwt>
<pdfrwt beam="2">  1       -2 0.32367383E-01 0.72410710E+03</pdfrwt>
<totfact> 0.68302064E+01</totfact>
</mgrwt>
</event>
<event>
 4    1  0.7595604E-007  0.7940192E+03  0.7818608E-02  0.9723880E-01
          2   -1    0    0  501    0  0.00000000000E+00  0.00000000000E+00  0.10479294506E+04  0.10479294506E+04  0.25500000000E-02 0. -1.
         -2   -1    0    0    0  501 -0.00000000000E+00 -0.00000000000E+00 -0.15038814216E+04  0.15038814216E+04  0.25500000000E-02 0.  1.
    8880023    1    1    2    0    0  0.37646754118E+03 -0.23436816448E+03 -0.13362323360E+04  0.15543433688E+04  0.65864270000E+03 0.  1.
    8880022    1    1    2    0    0 -0.37646754118E+03  0.23436816448E+03  0.88028036502E+03  0.99746750330E+03  0.15294330000E+03 0.  0.
<mgrwt>
<rscale>  0 0.69612607E+03</rscale>
<asrwt>0</asrwt>
<pdfrwt beam="1">  1        2 0.16121992E+00 0.79401918E+03</pdfrwt>
<pdfrwt beam="2">  1       -2 0.23136637E+00 0.79401918E+03</pdfrwt>
<totfact> 0.20142318E+00</totfact>
</mgrwt>
</event>
<event>
 4    1  0.7595604E-007  0.8033538E+03  0.7818608E-02  0.9703591E-01
          2   -1    0    0  501    0  0.00000000000E+00  0.00000000000E+00  0.87654802602E+03  0.87654802602E+03  0.25500000000E-02 0. -1.
         -2   -1    0    0    0  501 -0.00000000000E+00 -0.00000000000E+00 -0.52526344526E+03  0.52526344526E+03  0.25500000000E-02 0.  1.
    8880023    1    1    2    0    0  0.24747284295E+03 -0.38771676332E+03  0.42927233417E+03  0.91085236988E+03  0.65864270000E+03 0.  0.
    8880022    1    1    2    0    0 -0.24747284295E+03  0.38771676332E+03 -0.77987753410E+02  0.49095910141E+03  0.15294330000E+03 0. -1.
<mgrwt>
<rscale>  0 0.70803396E+03</rscale>
<asrwt>0</asrwt>
<pdfrwt beam="1">  1        2 0.13485354E+00 0.80335378E+03</pdfrwt>
<pdfrwt beam="2">  1       -2 0.80809762E-01 0.80335378E+03</pdfrwt>
<totfact> 0.41522338E+01</totfact>
</mgrwt>
</event>
<event>
 4    1  0.7595604E-007  0.1379126E+04  0.7818608E-02  0.9000074E-01
          2   -1    0    0  501    0  0.00000000000E+00  0.00000000000E+00  0.78755721906E+03  0.78755721906E+03  0.25500000000E-02 0. -1.
         -2   -1    0    0    0  501 -0.00000000000E+00 -0.00000000000E+00 -0.28093999291E+04  0.28093999292E+04  0.25500000000E-02 0.  1.
    8880023    1    1    2    0    0 -0.24035273878E+03 -0.11876063630E+04 -0.19301406106E+04  0.23722207519E+04  0.65864270000E+03 0.  0.
    8880022    1    1    2    0    0  0.24035273878E+03  0.11876063630E+04 -0.91702099453E+02  0.12247363963E+04  0.15294330000E+03 0.  0.
<mgrwt>
<rscale>  0 0.13378530E+04</rscale>
<asrwt>0</asrwt>
<pdfrwt beam="1">  1        2 0.12116265E+00 0.13791260E+04</pdfrwt>
<pdfrwt beam="2">  1       -2 0.43221537E+00 0.13791260E+04</pdfrwt>
<totfact> 0.15476500E-01</totfact>
</mgrwt>
</event>
<event>
 4    1  0.7595604E-007  0.8710894E+03  0.7818608E-02  0.9574134E-01
          2   -1    0    0  501    0  0.00000000000E+00  0.00000000000E+00  0.31420995481E+04  0.31420995481E+04  0.25500000000E-02 0. -1.
         -2   -1    0    0    0  501 -0.00000000000E+00 -0.00000000000E+00 -0.19993643155E+03  0.19993643156E+03  0.25500000000E-02 0.  1.
    8880023    1    1    2    0    0 -0.37372610527E+03 -0.43048277673E+03  0.23486943724E+04  0.25050273620E+04  0.65864270000E+03 0.  0.
    8880022    1    1    2    0    0  0.37372610527E+03  0.43048277673E+03  0.59346874408E+03  0.83700861766E+03  0.15294330000E+03 0.  0.
<mgrwt>
<rscale>  0 0.79032087E+03</rscale>
<asrwt>0</asrwt>
<pdfrwt beam="1">  1        2 0.48339992E+00 0.87108945E+03</pdfrwt>
<pdfrwt beam="2">  1       -2 0.30759452E-01 0.87108945E+03</pdfrwt>
<totfact> 0.14451349E+01</totfact>
</mgrwt>
</event>
<event>
 4    1  0.7595604E-007  0.1042679E+04  0.7818608E-02  0.9327734E-01
          2   -1    0    0  501    0  0.00000000000E+00  0.00000000000E+00  0.10217195475E+04  0.10217195475E+04  0.25500000000E-02 0. -1.
         -2   -1    0    0    0  501 -0.00000000000E+00 -0.00000000000E+00 -0.11496173709E+04  0.11496173709E+04  0.25500000000E-02 0.  1.
    8880023    1    1    2    0    0 -0.42942274778E+03  0.68481102830E+03  0.48058167467E+03  0.11481023443E+04  0.65864270000E+03 0.  0.
    8880022    1    1    2    0    0  0.42942274778E+03 -0.68481102830E+03 -0.60847949807E+03  0.10232345740E+04  0.15294330000E+03 0.  0.
<mgrwt>
<rscale>  0 0.98269230E+03</rscale>
<asrwt>0</asrwt>
<pdfrwt beam="1">  1        2 0.15718762E+00 0.10426794E+04</pdfrwt>
<pdfrwt beam="2">  1       -2 0.17686421E+00 0.10426794E+04</pdfrwt>
<totfact> 0.45903889E+00</totfact>
</mgrwt>
</event>
<event>
 4    1  0.7595604E-007  0.7732347E+03  0.7818608E-02  0.9771976E-01
         -2   -1    0    0    0  501 -0.00000000000E+00  0.00000000000E+00  0.26817821997E+03  0.26817821998E+03  0.25500000000E-02 0.  1.
          2   -1    0    0  501    0  0.00000000000E+00 -0.00000000000E+00 -0.19210212607E+04  0.19210212607E+04  0.25500000000E-02 0. -1.
    8880023    1    1    2    0    0 -0.13464026900E+03 -0.38203880528E+03 -0.41446487923E+03  0.87731008951E+03  0.65864270000E+03 0.  1.
    8880022    1    1    2    0    0  0.13464026900E+03  0.38203880528E+03 -0.12383781615E+04  0.13118893912E+04  0.15294330000E+03 0.  0.
<mgrwt>
<rscale>  0 0.66888417E+03</rscale>
<asrwt>0</asrwt>
<pdfrwt beam="1">  1        2 0.29554172E+00 0.77323467E+03</pdfrwt>
<pdfrwt beam="2">  1       -2 0.41258189E-01 0.77323467E+03</pdfrwt>
<totfact> 0.42227754E+01</totfact>
</mgrwt>
</event>
<event>
 4    1  0.7595604E-007  0.1165380E+04  0.7818608E-02  0.9191533E-01
          2   -1    0    0  501    0  0.00000000000E+00  0.00000000000E+00  0.13542131940E+04  0.13542131940E+04  0.25500000000E-02 0. -1.
         -2   -1    0    0    0  501 -0.00000000000E+00 -0.00000000000E+00 -0.12372032433E+04  0.12372032433E+04  0.25500000000E-02 0.  1.
    8880023    1    1    2    0    0 -0.59688756689E+03  0.75367461903E+03 -0.66585427618E+03  0.13421893764E+04  0.65864270000E+03 0.  0.
    8880022    1    1    2    0    0  0.59688756689E+03 -0.75367461903E+03  0.78286422684E+03  0.12492270609E+04  0.15294330000E+03 0.  0.
<mgrwt>
<rscale>  0 0.11141253E+04</rscale>
<asrwt>0</asrwt>
<pdfrwt beam="1">  1        2 0.20834049E+00 0.11653799E+04</pdfrwt>
<pdfrwt beam="2">  1       -2 0.19033896E+00 0.11653799E+04</pdfrwt>
<totfact> 0.23089598E+00</totfact>
</mgrwt>
</event>
<event>
 4    1  0.7595604E-007  0.8304037E+03  0.7818608E-02  0.9648547E-01
          2   -1    0    0  501    0  0.00000000000E+00  0.00000000000E+00  0.85003185011E+03  0.85003185012E+03  0.25500000000E-02 0. -1.
         -2   -1    0    0    0  501 -0.00000000000E+00 -0.00000000000E+00 -0.54623863954E+03  0.54623863954E+03  0.25500000000E-02 0.  1.
    8880023    1    1    2    0    0  0.41726563482E+03 -0.28574367512E+03  0.13289383653E+03  0.84097029432E+03  0.65864270000E+03 0.  0.
    8880022    1    1    2    0    0 -0.41726563482E+03  0.28574367512E+03  0.17089937405E+03  0.55530019534E+03  0.15294330000E+03 0.  0.
<mgrwt>
<rscale>  0 0.74164656E+03</rscale>
<asrwt>0</asrwt>
<pdfrwt beam="1">  1        2 0.13077413E+00 0.83040368E+03</pdfrwt>
<pdfrwt beam="2">  1       -2 0.84036714E-01 0.83040368E+03</pdfrwt>
<totfact> 0.39548897E+01</totfact>
</mgrwt>
</event>
<event>
 4    1  0.7595604E-007  0.8205402E+03  0.7818608E-02  0.9668026E-01
          2   -1    0    0  501    0  0.00000000000E+00  0.00000000000E+00  0.26807151838E+04  0.26807151838E+04  0.25500000000E-02 0. -1.
         -2   -1    0    0    0  501 -0.00000000000E+00 -0.00000000000E+00 -0.20216433102E+03  0.20216433103E+03  0.25500000000E-02 0.  1.
    8880023    1    1    2    0    0 -0.47426232766E+02 -0.48705927757E+03  0.87584236340E+03  0.12001608389E+04  0.65864270000E+03 0.  0.
    8880022    1    1    2    0    0  0.47426232766E+02  0.48705927757E+03  0.16027084893E+04  0.16827186759E+04  0.15294330000E+03 0.  0.
<mgrwt>
<rscale>  0 0.72952811E+03</rscale>
<asrwt>0</asrwt>
<pdfrwt beam="1">  1        2 0.41241768E+00 0.82054018E+03</pdfrwt>
<pdfrwt beam="2">  1       -2 0.31102208E-01 0.82054018E+03</pdfrwt>
<totfact> 0.27119388E+01</totfact>
</mgrwt>
</event>
<event>
 4    1  0.7595604E-007  0.7942512E+03  0.7818608E-02  0.9723367E-01
          2   -1    0    0  501    0  0.00000000000E+00  0.00000000000E+00  0.73631759804E+03  0.73631759804E+03  0.25500000000E-02 0. -1.
         -2   -1    0    0    0  501 -0.00000000000E+00 -0.00000000000E+00 -0.83815567741E+03  0.83815567741E+03  0.25500000000E-02 0.  1.
    8880023    1    1    2    0    0 -0.14742127993E+03 -0.41867856986E+03 -0.51705043027E+03  0.94772154789E+03  0.65864270000E+03 0.  1.
    8880022    1    1    2    0    0  0.14742127993E+03  0.41867856986E+03  0.41521235090E+03  0.62675172756E+03  0.15294330000E+03 0.  0.
<mgrwt>
<rscale>  0 0.69642429E+03</rscale>
<asrwt>0</asrwt>
<pdfrwt beam="1">  1        2 0.11327963E+00 0.79425121E+03</pdfrwt>
<pdfrwt beam="2">  1       -2 0.12894703E+00 0.79425121E+03</pdfrwt>
<totfact> 0.17198962E+01</totfact>
</mgrwt>
</event>
<event>
 4    1  0.7595604E-007  0.7864550E+03  0.7818608E-02  0.9740887E-01
         -2   -1    0    0    0  501 -0.00000000000E+00  0.00000000000E+00  0.26816061416E+03  0.26816061417E+03  0.25500000000E-02 0.  1.
          2   -1    0    0  501    0  0.00000000000E+00 -0.00000000000E+00 -0.27051113008E+04  0.27051113008E+04  0.25500000000E-02 0. -1.
    8880023    1    1    2    0    0 -0.41480732787E+03 -0.11241086082E+03 -0.39327706945E+03  0.87930562406E+03  0.65864270000E+03 0.  1.
    8880022    1    1    2    0    0  0.41480732787E+03  0.11241086082E+03 -0.20436736172E+04  0.20939662909E+04  0.15294330000E+03 0.  0.
<mgrwt>
<rscale>  0 0.68633730E+03</rscale>
<asrwt>0</asrwt>
<pdfrwt beam="1">  1        2 0.41617095E+00 0.78645504E+03</pdfrwt>
<pdfrwt beam="2">  1       -2 0.41255481E-01 0.78645504E+03</pdfrwt>
<totfact> 0.15356637E+01</totfact>
</mgrwt>
</event>
<event>
 4    1  0.7595604E-007  0.1118547E+04  0.7818608E-02  0.9240682E-01
          2   -1    0    0  501    0  0.00000000000E+00  0.00000000000E+00  0.17643308732E+04  0.17643308733E+04  0.25500000000E-02 0. -1.
         -2   -1    0    0    0  501 -0.00000000000E+00 -0.00000000000E+00 -0.71864719280E+03  0.71864719281E+03  0.25500000000E-02 0.  1.
    8880023    1    1    2    0    0 -0.72004866863E+03 -0.54668745397E+03  0.36050813873E+02  0.11191278412E+04  0.65864270000E+03 0.  0.
    8880022    1    1    2    0    0  0.72004866863E+03  0.54668745397E+03  0.10096328666E+04  0.13638502248E+04  0.15294330000E+03 0.  0.
<mgrwt>
<rscale>  0 0.10643211E+04</rscale>
<asrwt>0</asrwt>
<pdfrwt beam="1">  1        2 0.27143552E+00 0.11185470E+04</pdfrwt>
<pdfrwt beam="2">  1       -2 0.11056111E+00 0.11185470E+04</pdfrwt>
<totfact> 0.57690706E+00</totfact>
</mgrwt>
</event>
<event>
 4    1  0.7595604E-007  0.8008041E+03  0.7818608E-02  0.9709060E-01
          2   -1    0    0  501    0  0.00000000000E+00  0.00000000000E+00  0.33271421099E+04  0.33271421099E+04  0.25500000000E-02 0. -1.
         -2   -1    0    0    0  501 -0.00000000000E+00 -0.00000000000E+00 -0.20293351562E+03  0.20293351563E+03  0.25500000000E-02 0.  1.
    8880023    1    1    2    0    0 -0.25826134064E+03 -0.37520408644E+03  0.71541578841E+03  0.10738281907E+04  0.65864270000E+03 0.  1.
    8880022    1    1    2    0    0  0.25826134064E+03  0.37520408644E+03  0.24087928059E+04  0.24562474349E+04  0.15294330000E+03 0.  0.
<mgrwt>
<rscale>  0 0.70479911E+03</rscale>
<asrwt>0</asrwt>
<pdfrwt beam="1">  1        2 0.51186797E+00 0.80080412E+03</pdfrwt>
<pdfrwt beam="2">  1       -2 0.31220544E-01 0.80080412E+03</pdfrwt>
<totfact> 0.10807968E+01</totfact>
</mgrwt>
</event>
<event>
 4    1  0.7595604E-007  0.9921286E+03  0.7818608E-02  0.9391929E-01
         -2   -1    0    0    0  501 -0.00000000000E+00  0.00000000000E+00  0.13049690982E+04  0.13049690982E+04  0.25500000000E-02 0.  1.
          2   -1    0    0  501    0  0.00000000000E+00 -0.00000000000E+00 -0.12341319290E+04  0.12341319290E+04  0.25500000000E-02 0. -1.
    8880023    1    1    2    0    0  0.22570021499E+03 -0.70680144176E+03  0.95341732099E+03  0.13759809807E+04  0.65864270000E+03 0.  1.
    8880022    1    1    2    0    0 -0.22570021499E+03  0.70680144176E+03 -0.88258015179E+03  0.11631200465E+04  0.15294330000E+03 0.  0.
<mgrwt>
<rscale>  0 0.92742872E+03</rscale>
<asrwt>0</asrwt>
<pdfrwt beam="1">  1        2 0.18986645E+00 0.99212856E+03</pdfrwt>
<pdfrwt beam="2">  1       -2 0.20076448E+00 0.99212856E+03</pdfrwt>
<totfact> 0.23604772E+00</totfact>
</mgrwt>
</event>
<event>
 4    1  0.7595604E-007  0.7524946E+03  0.7818608E-02  0.9824940E-01
          2   -1    0    0  501    0  0.00000000000E+00  0.00000000000E+00  0.78576233118E+03  0.78576233118E+03  0.25500000000E-02 0. -1.
         -2   -1    0    0    0  501 -0.00000000000E+00 -0.00000000000E+00 -0.12103806081E+04  0.12103806081E+04  0.25500000000E-02 0.  1.
    8880023    1    1    2    0    0  0.36387255663E+03  0.58942241259E+01 -0.10286811663E+04  0.12745325134E+04  0.65864270000E+03 0.  1.
    8880022    1    1    2    0    0 -0.36387255663E+03 -0.58942241259E+01  0.60406288945E+03  0.72161042590E+03  0.15294330000E+03 0.  0.
<mgrwt>
<rscale>  0 0.64041105E+03</rscale>
<asrwt>0</asrwt>
<pdfrwt beam="1">  1        2 0.12088651E+00 0.75249464E+03</pdfrwt>
<pdfrwt beam="2">  1       -2 0.18621240E+00 0.75249464E+03</pdfrwt>
<totfact> 0.59124032E+00</totfact>
</mgrwt>
</event>
<event>
 4    1  0.7595604E-007  0.8775829E+03  0.7818608E-02  0.9563021E-01
          2   -1    0    0  501    0  0.00000000000E+00  0.00000000000E+00  0.40842746311E+04  0.40842746311E+04  0.25500000000E-02 0. -1.
         -2   -1    0    0    0  501 -0.00000000000E+00 -0.00000000000E+00 -0.25300804536E+03  0.25300804538E+03  0.25500000000E-02 0.  1.
    8880023    1    1    2    0    0 -0.26159868937E+03  0.51759794206E+03  0.62996761334E+03  0.10802827889E+04  0.65864270000E+03 0.  0.
    8880022    1    1    2    0    0  0.26159868937E+03 -0.51759794206E+03  0.32012989724E+04  0.32569998876E+04  0.15294330000E+03 0.  0.
<mgrwt>
<rscale>  0 0.79792793E+03</rscale>
<asrwt>0</asrwt>
<pdfrwt beam="1">  1        2 0.62834990E+00 0.87758288E+03</pdfrwt>
<pdfrwt beam="2">  1       -2 0.38924317E-01 0.87758288E+03</pdfrwt>
<totfact> 0.19699138E+00</totfact>
</mgrwt>
</event>
<event>
 4    1  0.7595604E-007  0.7286673E+03  0.7818608E-02  0.9894280E-01
         -2   -1    0    0    0  501 -0.00000000000E+00  0.00000000000E+00  0.78446695719E+03  0.78446695720E+03  0.25500000000E-02 0.  1.
          2   -1    0    0  501    0  0.00000000000E+00 -0.00000000000E+00 -0.65882503685E+03  0.65882503686E+03  0.25500000000E-02 0. -1.
    8880023    1    1    2    0    0  0.16559004133E+03  0.26405644480E+03  0.53688148648E+03  0.90509546713E+03  0.65864270000E+03 0.  1.
    8880022    1    1    2    0    0 -0.16559004133E+03 -0.26405644480E+03 -0.41123956613E+03  0.53819652693E+03  0.15294330000E+03 0.  0.
<mgrwt>
<rscale>  0 0.60539280E+03</rscale>
<asrwt>0</asrwt>
<pdfrwt beam="1">  1        2 0.10135770E+00 0.72866733E+03</pdfrwt>
<pdfrwt beam="2">  1       -2 0.12068722E+00 0.72866733E+03</pdfrwt>
<totfact> 0.23502818E+01</totfact>
</mgrwt>
</event>
<event>
 4    1  0.7595604E-007  0.1439941E+04  0.7818608E-02  0.8953253E-01
         -2   -1    0    0    0  501 -0.00000000000E+00  0.00000000000E+00  0.30071648036E+04  0.30071648036E+04  0.25500000000E-02 0.  1.
          2   -1    0    0  501    0  0.00000000000E+00 -0.00000000000E+00 -0.90649069030E+03  0.90649069031E+03  0.25500000000E-02 0. -1.
    8880023    1    1    2    0    0  0.11479356855E+04 -0.56733112194E+03  0.21900088497E+04  0.26209864380E+04  0.65864270000E+03 0.  1.
    8880022    1    1    2    0    0 -0.11479356855E+04  0.56733112194E+03 -0.89334736436E+02  0.12926690559E+04  0.15294330000E+03 0. -1.
<mgrwt>
<rscale>  0 0.14007820E+04</rscale>
<asrwt>0</asrwt>
<pdfrwt beam="1">  1        2 0.13946011E+00 0.14399414E+04</pdfrwt>
<pdfrwt beam="2">  1       -2 0.46264074E+00 0.14399414E+04</pdfrwt>
<totfact> 0.79413443E-02</totfact>
</mgrwt>
</event>
<event>
 4    1  0.7595604E-007  0.6785253E+03  0.7818608E-02  0.1010170E+00
          2   -1    0    0  501    0  0.00000000000E+00  0.00000000000E+00  0.24214080078E+04  0.24214080078E+04  0.25500000000E-02 0. -1.
         -2   -1    0    0    0  501 -0.00000000000E+00 -0.00000000000E+00 -0.12997462230E+03  0.12997462232E+03  0.25500000000E-02 0.  1.
    8880023    1    1    2    0    0 -0.11999195580E+03 -0.11040066294E+03  0.82583151384E+03  0.10688284574E+04  0.65864270000E+03 0.  1.
    8880022    1    1    2    0    0  0.11999195580E+03  0.11040066294E+03  0.14656018717E+04  0.14825541727E+04  0.15294330000E+03 0.  0.
<mgrwt>
<rscale>  0 0.51406960E+03</rscale>
<asrwt>0</asrwt>
<pdfrwt beam="1">  1        2 0.37252428E+00 0.67852530E+03</pdfrwt>
<pdfrwt beam="2">  1       -2 0.19996097E-01 0.67852530E+03</pdfrwt>
<totfact> 0.86286326E+01</totfact>
</mgrwt>
</event>
<event>
 4    1  0.7595604E-007  0.1348048E+04  0.7818608E-02  0.9025140E-01
          2   -1    0    0  501    0  0.00000000000E+00  0.00000000000E+00  0.16371271570E+04  0.16371271570E+04  0.25500000000E-02 0. -1.
         -2   -1    0    0    0  501 -0.00000000000E+00 -0.00000000000E+00 -0.10350090587E+04  0.10350090587E+04  0.25500000000E-02 0.  1.
    8880023    1    1    2    0    0 -0.10578271770E+04  0.51422280932E+03  0.13722535200E+02  0.13481179282E+04  0.65864270000E+03 0.  0.
    8880022    1    1    2    0    0  0.10578271770E+04 -0.51422280932E+03  0.58839556309E+03  0.13240182875E+04  0.15294330000E+03 0.  0.
<mgrwt>
<rscale>  0 0.13055956E+04</rscale>
<asrwt>0</asrwt>
<pdfrwt beam="1">  1        2 0.25186572E+00 0.13480481E+04</pdfrwt>
<pdfrwt beam="2">  1       -2 0.15923216E+00 0.13480481E+04</pdfrwt>
<totfact> 0.25982180E+00</totfact>
</mgrwt>
</event>
<event>
 4    1  0.7595604E-007  0.7680584E+03  0.7818608E-02  0.9784675E-01
          2   -1    0    0  501    0  0.00000000000E+00  0.00000000000E+00  0.86722848060E+03  0.86722848061E+03  0.25500000000E-02 0. -1.
         -2   -1    0    0    0  501 -0.00000000000E+00 -0.00000000000E+00 -0.11133893249E+04  0.11133893249E+04  0.25500000000E-02 0.  1.
    8880023    1    1    2    0    0  0.63987835733E+02 -0.38988344933E+03 -0.91143090632E+03  0.11918976678E+04  0.65864270000E+03 0.  1.
    8880022    1    1    2    0    0 -0.63987835733E+02  0.38988344933E+03  0.66527006204E+03  0.78872013772E+03  0.15294330000E+03 0.  0.
<mgrwt>
<rscale>  0 0.66191512E+03</rscale>
<asrwt>0</asrwt>
<pdfrwt beam="1">  1        2 0.13341977E+00 0.76805843E+03</pdfrwt>
<pdfrwt beam="2">  1       -2 0.17129066E+00 0.76805843E+03</pdfrwt>
<totfact> 0.65494596E+00</totfact>
</mgrwt>
</event>
<event>
 4    1  0.7595604E-007  0.6718143E+03  0.7818608E-02  0.1014394E+00
          2   -1    0    0  501    0  0.00000000000E+00  0.00000000000E+00  0.10884967680E+04  0.10884967680E+04  0.25500000000E-02 0. -1.
         -2   -1    0    0    0  501 -0.00000000000E+00 -0.00000000000E+00 -0.20715835530E+03  0.20715835532E+03  0.25500000000E-02 0.  1.
    8880023    1    1    2    0    0  0.29432148671E+02 -0.12906581949E+03  0.42097859960E+03  0.79281613551E+03  0.65864270000E+03 0.  1.
    8880022    1    1    2    0    0 -0.29432148671E+02  0.12906581949E+03  0.46035981306E+03  0.50283898778E+03  0.15294330000E+03 0.  0.
<mgrwt>
<rscale>  0 0.49764934E+03</rscale>
<asrwt>0</asrwt>
<pdfrwt beam="1">  1        2 0.16746104E+00 0.67181429E+03</pdfrwt>
<pdfrwt beam="2">  1       -2 0.31870517E-01 0.67181429E+03</pdfrwt>
<totfact> 0.20584808E+02</totfact>
</mgrwt>
</event>
<event>
 4    1  0.7595604E-007  0.8787326E+03  0.7818608E-02  0.9561073E-01
          2   -1    0    0  501    0  0.00000000000E+00  0.00000000000E+00  0.30298595816E+04  0.30298595816E+04  0.25500000000E-02 0. -1.
         -2   -1    0    0    0  501 -0.00000000000E+00 -0.00000000000E+00 -0.29067506408E+03  0.29067506409E+03  0.25500000000E-02 0.  1.
    8880023    1    1    2    0    0  0.52459838714E+02  0.57931745827E+03  0.25388006979E+04  0.26865740158E+04  0.65864270000E+03 0.  0.
    8880022    1    1    2    0    0 -0.52459838714E+02 -0.57931745827E+03  0.20038381961E+03  0.63396062994E+03  0.15294330000E+03 0.  0.
<mgrwt>
<rscale>  0 0.79927086E+03</rscale>
<asrwt>0</asrwt>
<pdfrwt beam="1">  1        2 0.46613222E+00 0.87873259E+03</pdfrwt>
<pdfrwt beam="2">  1       -2 0.44719243E-01 0.87873259E+03</pdfrwt>
<totfact> 0.82398026E+00</totfact>
</mgrwt>
</event>
<event>
 4    1  0.7595604E-007  0.7066013E+03  0.7818608E-02  0.9970845E-01
          2   -1    0    0  501    0  0.00000000000E+00  0.00000000000E+00  0.96671645274E+03  0.96671645274E+03  0.25500000000E-02 0. -1.
         -2   -1    0    0    0  501 -0.00000000000E+00 -0.00000000000E+00 -0.56254899848E+03  0.56254899848E+03  0.25500000000E-02 0.  1.
    8880023    1    1    2    0    0  0.17613371895E+03 -0.18561294987E+03 -0.29766984838E+03  0.76674167684E+03  0.65864270000E+03 0.  1.
    8880022    1    1    2    0    0 -0.17613371895E+03  0.18561294987E+03  0.70183730264E+03  0.76252377438E+03  0.15294330000E+03 0.  0.
<mgrwt>
<rscale>  0 0.56947328E+03</rscale>
<asrwt>0</asrwt>
<pdfrwt beam="1">  1        2 0.14872561E+00 0.70660134E+03</pdfrwt>
<pdfrwt beam="2">  1       -2 0.86546001E-01 0.70660134E+03</pdfrwt>
<totfact> 0.31223615E+01</totfact>
</mgrwt>
</event>
<event>
 4    1  0.7595604E-007  0.9530105E+03  0.7818608E-02  0.9445796E-01
         -2   -1    0    0    0  501 -0.00000000000E+00  0.00000000000E+00  0.70009095460E+03  0.70009095460E+03  0.25500000000E-02 0.  1.
          2   -1    0    0  501    0  0.00000000000E+00 -0.00000000000E+00 -0.10580822445E+04  0.10580822446E+04  0.25500000000E-02 0. -1.
    8880023    1    1    2    0    0 -0.63511132429E+03 -0.26655651033E+03 -0.43658308073E+03  0.10482527177E+04  0.65864270000E+03 0.  0.
    8880022    1    1    2    0    0  0.63511132429E+03  0.26655651033E+03  0.78591790777E+02  0.70992048149E+03  0.15294330000E+03 0.  0.
<mgrwt>
<rscale>  0 0.88400812E+03</rscale>
<asrwt>0</asrwt>
<pdfrwt beam="1">  1        2 0.16278188E+00 0.95301048E+03</pdfrwt>
<pdfrwt beam="2">  1       -2 0.10770630E+00 0.95301048E+03</pdfrwt>
<totfact> 0.15954197E+01</totfact>
</mgrwt>
</event>
<event>
 4    1  0.7595604E-007  0.7450511E+03  0.7818608E-02  0.9845470E-01
         -2   -1    0    0    0  501 -0.00000000000E+00  0.00000000000E+00  0.55302676838E+03  0.55302676839E+03  0.25500000000E-02 0.  1.
          2   -1    0    0  501    0  0.00000000000E+00 -0.00000000000E+00 -0.87909167887E+03  0.87909167887E+03  0.25500000000E-02 0. -1.
    8880023    1    1    2    0    0  0.68751241012E+01 -0.34820071598E+03  0.21067480527E+03  0.77426422220E+03  0.65864270000E+03 0.  1.
    8880022    1    1    2    0    0 -0.68751241012E+01  0.34820071598E+03 -0.53673971576E+03  0.65785422506E+03  0.15294330000E+03 0.  0.
<mgrwt>
<rscale>  0 0.62978400E+03</rscale>
<asrwt>0</asrwt>
<pdfrwt beam="1">  1        2 0.13524487E+00 0.74505115E+03</pdfrwt>
<pdfrwt beam="2">  1       -2 0.85081041E-01 0.74505115E+03</pdfrwt>
<totfact> 0.36980363E+01</totfact>
</mgrwt>
</event>
<event>
 4    1  0.7595604E-007  0.9854818E+03  0.7818608E-02  0.9400803E-01
          2   -1    0    0  501    0  0.00000000000E+00  0.00000000000E+00  0.20446724364E+04  0.20446724364E+04  0.25500000000E-02 0. -1.
         -2   -1    0    0    0  501 -0.00000000000E+00 -0.00000000000E+00 -0.81495903482E+03  0.81495903482E+03  0.25500000000E-02 0.  1.
    8880023    1    1    2    0    0 -0.63387892195E+03 -0.36818710084E+03  0.17074111223E+04  0.19714023374E+04  0.65864270000E+03 0.  0.
    8880022    1    1    2    0    0  0.63387892195E+03  0.36818710084E+03 -0.47769772070E+03  0.88822913389E+03  0.15294330000E+03 0.  0.
<mgrwt>
<rscale>  0 0.92009611E+03</rscale>
<asrwt>0</asrwt>
<pdfrwt beam="1">  1        2 0.31456499E+00 0.98548183E+03</pdfrwt>
<pdfrwt beam="2">  1       -2 0.12537831E+00 0.98548183E+03</pdfrwt>
<totfact> 0.30059364E+00</totfact>
</mgrwt>
</event>
<event>
 4    1  0.7595604E-007  0.7451340E+03  0.7818608E-02  0.9845237E-01
         -2   -1    0    0    0  501 -0.00000000000E+00  0.00000000000E+00  0.15420969299E+04  0.15420969299E+04  0.25500000000E-02 0.  1.
          2   -1    0    0  501    0  0.00000000000E+00 -0.00000000000E+00 -0.10051502136E+04  0.10051502136E+04  0.25500000000E-02 0. -1.
    8880023    1    1    2    0    0 -0.17401990108E+03 -0.30188007138E+03  0.14100479818E+04  0.15948228807E+04  0.65864270000E+03 0.  1.
    8880022    1    1    2    0    0  0.17401990108E+03  0.30188007138E+03 -0.87310126558E+03  0.95242426284E+03  0.15294330000E+03 0.  0.
<mgrwt>
<rscale>  0 0.62990372E+03</rscale>
<asrwt>0</asrwt>
<pdfrwt beam="1">  1        2 0.15463849E+00 0.74513402E+03</pdfrwt>
<pdfrwt beam="2">  1       -2 0.23724568E+00 0.74513402E+03</pdfrwt>
<totfact> 0.19877996E+00</totfact>
</mgrwt>
</event>
<event>
 4    1  0.7595604E-007  0.6686533E+03  0.7818608E-02  0.1016647E+00
         -2   -1    0    0    0  501 -0.00000000000E+00  0.00000000000E+00  0.20809458571E+03  0.20809458573E+03  0.25500000000E-02 0.  1.
          2   -1    0    0  501    0  0.00000000000E+00 -0.00000000000E+00 -0.16083060403E+04  0.16083060403E+04  0.25500000000E-02 0. -1.
    8880023    1    1    2    0    0  0.92001781140E+02 -0.69445371302E+02 -0.36137626350E+03  0.76005920652E+03  0.65864270000E+03 0.  1.
    8880022    1    1    2    0    0 -0.92001781140E+02  0.69445371302E+02 -0.10388351911E+04  0.10563414195E+04  0.15294330000E+03 0.  0.
<mgrwt>
<rscale>  0 0.48916163E+03</rscale>
<asrwt>0</asrwt>
<pdfrwt beam="1">  1        2 0.24743169E+00 0.66865327E+03</pdfrwt>
<pdfrwt beam="2">  1       -2 0.32014553E-01 0.66865327E+03</pdfrwt>
<totfact> 0.10290547E+02</totfact>
</mgrwt>
</event>
<event>
 4    1  0.7595604E-007  0.7091497E+03  0.7818608E-02  0.9961172E-01
          2   -1    0    0  501    0  0.00000000000E+00  0.00000000000E+00  0.33929658352E+04  0.33929658352E+04  0.25500000000E-02 0. -1.
         -2   -1    0    0    0  501 -0.00000000000E+00 -0.00000000000E+00 -0.22356920561E+03  0.22356920562E+03  0.25500000000E-02 0.  1.
    8880023    1    1    2    0    0 -0.24309720837E+03 -0.99934286446E+02  0.36849878018E+03  0.79917749692E+03  0.65864270000E+03 0.  1.
    8880022    1    1    2    0    0  0.24309720837E+03  0.99934286446E+02  0.28008978494E+04  0.28173575439E+04  0.15294330000E+03 0.  0.
<mgrwt>
<rscale>  0 0.57386053E+03</rscale>
<asrwt>0</asrwt>
<pdfrwt beam="1">  1        2 0.52199471E+00 0.70914972E+03</pdfrwt>
<pdfrwt beam="2">  1       -2 0.34395264E-01 0.70914972E+03</pdfrwt>
<totfact> 0.82903247E+00</totfact>
</mgrwt>
</event>
<event>
 4    1  0.7595604E-007  0.7230179E+03  0.7818608E-02  0.9912504E-01
          2   -1    0    0  501    0  0.00000000000E+00  0.00000000000E+00  0.72440187701E+03  0.72440187701E+03  0.25500000000E-02 0. -1.
         -2   -1    0    0    0  501 -0.00000000000E+00 -0.00000000000E+00 -0.97552172825E+03  0.97552172825E+03  0.25500000000E-02 0.  1.
    8880023    1    1    2    0    0 -0.16566839302E+03  0.24798926554E+03 -0.78646871532E+03  0.10683107875E+04  0.65864270000E+03 0.  1.
    8880022    1    1    2    0    0  0.16566839302E+03 -0.24798926554E+03  0.53534886408E+03  0.63161281776E+03  0.15294330000E+03 0.  0.
<mgrwt>
<rscale>  0 0.59659118E+03</rscale>
<asrwt>0</asrwt>
<pdfrwt beam="1">  1        2 0.11144644E+00 0.72301791E+03</pdfrwt>
<pdfrwt beam="2">  1       -2 0.15008027E+00 0.72301791E+03</pdfrwt>
<totfact> 0.11950805E+01</totfact>
</mgrwt>
</event>
<event>
 4    1  0.7595604E-007  0.7502024E+03  0.7818608E-02  0.9831166E-01
          2   -1    0    0  501    0  0.00000000000E+00  0.00000000000E+00  0.50728797658E+04  0.50728797658E+04  0.25500000000E-02 0. -1.
         -2   -1    0    0    0  501 -0.00000000000E+00 -0.00000000000E+00 -0.17693041282E+03  0.17693041284E+03  0.25500000000E-02 0.  1.
    8880023    1    1    2    0    0  0.20160029375E+03 -0.29723853965E+03  0.66989491890E+03  0.10057648018E+04  0.65864270000E+03 0.  1.
    8880022    1    1    2    0    0 -0.20160029375E+03  0.29723853965E+03  0.42260544341E+04  0.42440453769E+04  0.15294330000E+03 0.  0.
<mgrwt>
<rscale>  0 0.63716460E+03</rscale>
<asrwt>0</asrwt>
<pdfrwt beam="1">  1        2 0.78044299E+00 0.75020240E+03</pdfrwt>
<pdfrwt beam="2">  1       -2 0.27220065E-01 0.75020240E+03</pdfrwt>
<totfact> 0.40098541E-01</totfact>
</mgrwt>
</event>
<event>
 4    1  0.7595604E-007  0.8191026E+03  0.7818608E-02  0.9670919E-01
          2   -1    0    0  501    0  0.00000000000E+00  0.00000000000E+00  0.17537909420E+04  0.17537909420E+04  0.25500000000E-02 0. -1.
         -2   -1    0    0    0  501 -0.00000000000E+00 -0.00000000000E+00 -0.86958499972E+03  0.86958499972E+03  0.25500000000E-02 0.  1.
    8880023    1    1    2    0    0  0.35502547816E+03  0.33328033052E+03 -0.62492369601E+03  0.10302711784E+04  0.65864270000E+03 0.  0.
    8880022    1    1    2    0    0 -0.35502547816E+03 -0.33328033052E+03  0.15091296383E+04  0.15931047634E+04  0.15294330000E+03 0.  0.
<mgrwt>
<rscale>  0 0.72774945E+03</rscale>
<asrwt>0</asrwt>
<pdfrwt beam="1">  1        2 0.26981399E+00 0.81910260E+03</pdfrwt>
<pdfrwt beam="2">  1       -2 0.13378231E+00 0.81910260E+03</pdfrwt>
<totfact> 0.37696450E+00</totfact>
</mgrwt>
</event>
<event>
 4    1  0.7595604E-007  0.6818170E+03  0.7818608E-02  0.1008314E+00
          2   -1    0    0  501    0  0.00000000000E+00  0.00000000000E+00  0.24701772473E+03  0.24701772474E+03  0.25500000000E-02 0. -1.
         -2   -1    0    0    0  501 -0.00000000000E+00 -0.00000000000E+00 -0.11474300446E+04  0.11474300446E+04  0.25500000000E-02 0.  1.
    8880023    1    1    2    0    0  0.17431662321E+03  0.26036397780E+02 -0.93640550802E+03  0.11583305490E+04  0.65864270000E+03 0.  0.
    8880022    1    1    2    0    0 -0.17431662321E+03 -0.26036397780E+02  0.35993188110E+02  0.23611722035E+03  0.15294330000E+03 0.  0.
<mgrwt>
<rscale>  0 0.52150251E+03</rscale>
<asrwt>0</asrwt>
<pdfrwt beam="1">  1        2 0.38002728E-01 0.68181697E+03</pdfrwt>
<pdfrwt beam="2">  1       -2 0.17652770E+00 0.68181697E+03</pdfrwt>
<totfact> 0.26639981E+01</totfact>
</mgrwt>
</event>
<event>
 4    1  0.7595604E-007  0.7260468E+03  0.7818608E-02  0.9902633E-01
         -2   -1    0    0    0  501 -0.00000000000E+00  0.00000000000E+00  0.61323011040E+03  0.61323011040E+03  0.25500000000E-02 0.  1.
          2   -1    0    0  501    0  0.00000000000E+00 -0.00000000000E+00 -0.15768956079E+04  0.15768956079E+04  0.25500000000E-02 0. -1.
    8880023    1    1    2    0    0 -0.27256987527E+03 -0.13798349491E+03  0.36894916517E+03  0.81441234919E+03  0.65864270000E+03 0.  1.
    8880022    1    1    2    0    0  0.27256987527E+03  0.13798349491E+03 -0.13326146627E+04  0.13757133691E+04  0.15294330000E+03 0.  0.
<mgrwt>
<rscale>  0 0.60133871E+03</rscale>
<asrwt>0</asrwt>
<pdfrwt beam="1">  1        2 0.24259932E+00 0.72604682E+03</pdfrwt>
<pdfrwt beam="2">  1       -2 0.94343094E-01 0.72604682E+03</pdfrwt>
<totfact> 0.11203386E+01</totfact>
</mgrwt>
</event>
<event>
 4    1  0.7595604E-007  0.9422884E+03  0.7818608E-02  0.9461297E-01
         -2   -1    0    0    0  501 -0.00000000000E+00  0.00000000000E+00  0.86283949672E+03  0.86283949672E+03  0.25500000000E-02 0.  1.
          2   -1    0    0  501    0  0.00000000000E+00 -0.00000000000E+00 -0.14020776038E+04  0.14020776038E+04  0.25500000000E-02 0. -1.
    8880023    1    1    2    0    0  0.66870133251E+03  0.83281605955E+02  0.46114898358E+03  0.10490785906E+04  0.65864270000E+03 0.  0.
    8880022    1    1    2    0    0 -0.66870133251E+03 -0.83281605955E+02 -0.10003870907E+04  0.12158385099E+04  0.15294330000E+03 0.  0.
<mgrwt>
<rscale>  0 0.87198359E+03</rscale>
<asrwt>0</asrwt>
<pdfrwt beam="1">  1        2 0.21570425E+00 0.94228844E+03</pdfrwt>
<pdfrwt beam="2">  1       -2 0.13274454E+00 0.94228844E+03</pdfrwt>
<totfact> 0.59376891E+00</totfact>
</mgrwt>
</event>
<event>
 4    1  0.7595604E-007  0.1082537E+04  0.7818608E-02  0.9280752E-01
          2   -1    0    0  501    0  0.00000000000E+00  0.00000000000E+00  0.78897729826E+03  0.78897729827E+03  0.25500000000E-02 0. -1.
         -2   -1    0    0    0  501 -0.00000000000E+00 -0.00000000000E+00 -0.13907640660E+04  0.13907640660E+04  0.25500000000E-02 0.  1.
    8880023    1    1    2    0    0  0.38642087903E+03  0.76730416945E+03 -0.71860047685E+03  0.12993358441E+04  0.65864270000E+03 0.  0.
    8880022    1    1    2    0    0 -0.38642087903E+03 -0.76730416945E+03  0.11681370914E+03  0.88040552013E+03  0.15294330000E+03 0.  0.
<mgrwt>
<rscale>  0 0.10257432E+04</rscale>
<asrwt>0</asrwt>
<pdfrwt beam="1">  1        2 0.12138112E+00 0.10825373E+04</pdfrwt>
<pdfrwt beam="2">  1       -2 0.21396370E+00 0.10825373E+04</pdfrwt>
<totfact> 0.37349516E+00</totfact>
</mgrwt>
</event>
<event>
 4    1  0.7595604E-007  0.7496670E+03  0.7818608E-02  0.9832633E-01
         -2   -1    0    0    0  501 -0.00000000000E+00  0.00000000000E+00  0.39199234839E+03  0.39199234840E+03  0.25500000000E-02 0.  1.
          2   -1    0    0  501    0  0.00000000000E+00 -0.00000000000E+00 -0.15164705966E+04  0.15164705966E+04  0.25500000000E-02 0. -1.
    8880023    1    1    2    0    0 -0.32576480007E+03  0.14855221634E+03 -0.33856651813E+02  0.75043117278E+03  0.65864270000E+03 0.  1.
    8880022    1    1    2    0    0  0.32576480007E+03 -0.14855221634E+03 -0.10906215964E+04  0.11580317723E+04  0.15294330000E+03 0.  0.
<mgrwt>
<rscale>  0 0.63640313E+03</rscale>
<asrwt>0</asrwt>
<pdfrwt beam="1">  1        2 0.23330317E+00 0.74966704E+03</pdfrwt>
<pdfrwt beam="2">  1       -2 0.60306516E-01 0.74966704E+03</pdfrwt>
<totfact> 0.32578484E+01</totfact>
</mgrwt>
</event>
<event>
 4    1  0.7595604E-007  0.6648646E+03  0.7818608E-02  0.1019647E+00
         -2   -1    0    0    0  501 -0.00000000000E+00  0.00000000000E+00  0.39667973433E+03  0.39667973433E+03  0.25500000000E-02 0.  1.
          2   -1    0    0  501    0  0.00000000000E+00 -0.00000000000E+00 -0.10779157760E+04  0.10779157760E+04  0.25500000000E-02 0. -1.
    8880023    1    1    2    0    0 -0.92800184952E+01  0.90269943858E+02  0.10091679059E+03  0.67247987806E+03  0.65864270000E+03 0.  1.
    8880022    1    1    2    0    0  0.92800184952E+01 -0.90269943858E+02 -0.78215283223E+03  0.80211563224E+03  0.15294330000E+03 0.  0.
<mgrwt>
<rscale>  0 0.47814124E+03</rscale>
<asrwt>0</asrwt>
<pdfrwt beam="1">  1        2 0.16583320E+00 0.66486464E+03</pdfrwt>
<pdfrwt beam="2">  1       -2 0.61027652E-01 0.66486464E+03</pdfrwt>
<totfact> 0.57524137E+01</totfact>
</mgrwt>
</event>
<event>
 4    1  0.7595604E-007  0.1011256E+04  0.7818608E-02  0.9366977E-01
          2   -1    0    0  501    0  0.00000000000E+00  0.00000000000E+00  0.28265730591E+04  0.28265730591E+04  0.25500000000E-02 0. -1.
         -2   -1    0    0    0  501 -0.00000000000E+00 -0.00000000000E+00 -0.33411368502E+03  0.33411368503E+03  0.25500000000E-02 0.  1.
    8880023    1    1    2    0    0  0.29000956717E+03 -0.71043840396E+03  0.77726846955E+03  0.12754547248E+04  0.65864270000E+03 0.  0.
    8880022    1    1    2    0    0 -0.29000956717E+03  0.71043840396E+03  0.17151909045E+04  0.18852320193E+04  0.15294330000E+03 0.  0.
<mgrwt>
<rscale>  0 0.94843862E+03</rscale>
<asrwt>0</asrwt>
<pdfrwt beam="1">  1        2 0.43485739E+00 0.10112559E+04</pdfrwt>
<pdfrwt beam="2">  1       -2 0.51402106E-01 0.10112559E+04</pdfrwt>
<totfact> 0.81064482E+00</totfact>
</mgrwt>
</event>
<event>
 4    1  0.7595604E-007  0.8049424E+03  0.7818608E-02  0.9700210E-01
         -2   -1    0    0    0  501 -0.00000000000E+00  0.00000000000E+00  0.12472978704E+03  0.12472978707E+03  0.25500000000E-02 0.  1.
          2   -1    0    0  501    0  0.00000000000E+00 -0.00000000000E+00 -0.35487520539E+04  0.35487520539E+04  0.25500000000E-02 0. -1.
    8880023    1    1    2    0    0 -0.42122088220E+03 -0.19155949264E+03 -0.16838858501E+04  0.18663879107E+04  0.65864270000E+03 0.  0.
    8880022    1    1    2    0    0  0.42122088220E+03  0.19155949264E+03 -0.17401364167E+04  0.18070939302E+04  0.15294330000E+03 0.  0.
<mgrwt>
<rscale>  0 0.71004307E+03</rscale>
<asrwt>0</asrwt>
<pdfrwt beam="1">  1        2 0.54596178E+00 0.80494241E+03</pdfrwt>
<pdfrwt beam="2">  1       -2 0.19189201E-01 0.80494241E+03</pdfrwt>
<totfact> 0.18421219E+01</totfact>
</mgrwt>
</event>
<event>
 4    1  0.7595604E-007  0.6944460E+03  0.7818608E-02  0.1002107E+00
          2   -1    0    0  501    0  0.00000000000E+00  0.00000000000E+00  0.14117611647E+04  0.14117611647E+04  0.25500000000E-02 0. -1.
         -2   -1    0    0    0  501 -0.00000000000E+00 -0.00000000000E+00 -0.47574644958E+03  0.47574644958E+03  0.25500000000E-02 0.  1.
    8880023    1    1    2    0    0 -0.20018708420E+03  0.91488875340E+02 -0.19810282947E+03  0.72214958305E+03  0.65864270000E+03 0.  1.
    8880022    1    1    2    0    0  0.20018708420E+03 -0.91488875340E+02  0.11341175446E+04  0.11653580312E+04  0.15294330000E+03 0.  0.
<mgrwt>
<rscale>  0 0.54735892E+03</rscale>
<asrwt>0</asrwt>
<pdfrwt beam="1">  1        2 0.21719403E+00 0.69444603E+03</pdfrwt>
<pdfrwt beam="2">  1       -2 0.73191761E-01 0.69444603E+03</pdfrwt>
<totfact> 0.24710655E+01</totfact>
</mgrwt>
</event>
<event>
 4    1  0.7595604E-007  0.6879997E+03  0.7818608E-02  0.1005118E+00
         -2   -1    0    0    0  501 -0.00000000000E+00  0.00000000000E+00  0.98276974838E+03  0.98276974839E+03  0.25500000000E-02 0.  1.
          2   -1    0    0  501    0  0.00000000000E+00 -0.00000000000E+00 -0.96049946983E+03  0.96049946983E+03  0.25500000000E-02 0. -1.
    8880023    1    1    2    0    0 -0.19256949925E+03 -0.49500623703E+02  0.84123549850E+03  0.10867477601E+04  0.65864270000E+03 0.  1.
    8880022    1    1    2    0    0  0.19256949925E+03  0.49500623703E+02 -0.81896521995E+03  0.85652145816E+03  0.15294330000E+03 0.  0.
<mgrwt>
<rscale>  0 0.53461858E+03</rscale>
<asrwt>0</asrwt>
<pdfrwt beam="1">  1        2 0.14776915E+00 0.68799966E+03</pdfrwt>
<pdfrwt beam="2">  1       -2 0.15119535E+00 0.68799966E+03</pdfrwt>
<totfact> 0.80448542E+00</totfact>
</mgrwt>
</event>
<event>
 4    1  0.7595604E-007  0.8329023E+03  0.7818608E-02  0.9643712E-01
         -2   -1    0    0    0  501 -0.00000000000E+00  0.00000000000E+00  0.10937110552E+04  0.10937110552E+04  0.25500000000E-02 0.  1.
          2   -1    0    0  501    0  0.00000000000E+00 -0.00000000000E+00 -0.49763736967E+03  0.49763736968E+03  0.25500000000E-02 0. -1.
    8880023    1    1    2    0    0 -0.22144665650E+03  0.45921388686E+03  0.64977789147E+03  0.10563794442E+04  0.65864270000E+03 0.  1.
    8880022    1    1    2    0    0  0.22144665650E+03 -0.45921388686E+03 -0.53704205955E+02  0.53496898070E+03  0.15294330000E+03 0.  0.
<mgrwt>
<rscale>  0 0.74469396E+03</rscale>
<asrwt>0</asrwt>
<pdfrwt beam="1">  1        2 0.76559596E-01 0.83290229E+03</pdfrwt>
<pdfrwt beam="2">  1       -2 0.16826324E+00 0.83290229E+03</pdfrwt>
<totfact> 0.13682734E+01</totfact>
</mgrwt>
</event>
<event>
 4    1  0.7595604E-007  0.8277151E+03  0.7818608E-02  0.9653794E-01
          2   -1    0    0  501    0  0.00000000000E+00  0.00000000000E+00  0.20211382256E+04  0.20211382256E+04  0.25500000000E-02 0. -1.
         -2   -1    0    0    0  501 -0.00000000000E+00 -0.00000000000E+00 -0.22622606037E+03  0.22622606038E+03  0.25500000000E-02 0.  1.
    8880023    1    1    2    0    0  0.34466725645E+02  0.50011417754E+03  0.11301949507E+04  0.14008757899E+04  0.65864270000E+03 0. -1.
    8880022    1    1    2    0    0 -0.34466725645E+02 -0.50011417754E+03  0.66471721453E+03  0.84648849612E+03  0.15294330000E+03 0.  1.
<mgrwt>
<rscale>  0 0.73835765E+03</rscale>
<asrwt>0</asrwt>
<pdfrwt beam="1">  1        2 0.31094434E+00 0.82771514E+03</pdfrwt>
<pdfrwt beam="2">  1       -2 0.34804009E-01 0.82771514E+03</pdfrwt>
<totfact> 0.51409530E+01</totfact>
</mgrwt>
</event>
<event>
 4    1  0.7595604E-007  0.9072664E+03  0.7818608E-02  0.9514466E-01
         -2   -1    0    0    0  501 -0.00000000000E+00  0.00000000000E+00  0.12148255220E+04  0.12148255220E+04  0.25500000000E-02 0.  1.
          2   -1    0    0  501    0  0.00000000000E+00 -0.00000000000E+00 -0.72412924099E+03  0.72412924099E+03  0.25500000000E-02 0. -1.
    8880023    1    1    2    0    0  0.30972651944E+03  0.54165628065E+03  0.81476653152E+03  0.12194165615E+04  0.65864270000E+03 0.  0.
    8880022    1    1    2    0    0 -0.30972651944E+03 -0.54165628065E+03 -0.32407025050E+03  0.71953820154E+03  0.15294330000E+03 0.  0.
<mgrwt>
<rscale>  0 0.83225654E+03</rscale>
<asrwt>0</asrwt>
<pdfrwt beam="1">  1        2 0.11140450E+00 0.90726636E+03</pdfrwt>
<pdfrwt beam="2">  1       -2 0.18689623E+00 0.90726636E+03</pdfrwt>
<totfact> 0.63926248E+00</totfact>
</mgrwt>
</event>
<event>
 4    1  0.7595604E-007  0.6788971E+03  0.7818608E-02  0.1009955E+00
          2   -1    0    0  501    0  0.00000000000E+00  0.00000000000E+00  0.14114170792E+04  0.14114170792E+04  0.25500000000E-02 0. -1.
         -2   -1    0    0    0  501 -0.00000000000E+00 -0.00000000000E+00 -0.29275938742E+03  0.29275938743E+03  0.25500000000E-02 0.  1.
    8880023    1    1    2    0    0  0.13404342835E+03  0.95516715439E+02  0.13117332137E+03  0.69145334630E+03  0.65864270000E+03 0.  1.
    8880022    1    1    2    0    0 -0.13404342835E+03 -0.95516715439E+02  0.98748437037E+03  0.10127231203E+04  0.15294330000E+03 0.  0.
<mgrwt>
<rscale>  0 0.51492720E+03</rscale>
<asrwt>0</asrwt>
<pdfrwt beam="1">  1        2 0.21714108E+00 0.67889711E+03</pdfrwt>
<pdfrwt beam="2">  1       -2 0.45039907E-01 0.67889711E+03</pdfrwt>
<totfact> 0.68404900E+01</totfact>
</mgrwt>
</event>
<event>
 4    1  0.7595604E-007  0.6724075E+03  0.7818608E-02  0.1013993E+00
          2   -1    0    0  501    0  0.00000000000E+00  0.00000000000E+00  0.14019847276E+04  0.14019847276E+04  0.25500000000E-02 0. -1.
         -2   -1    0    0    0  501 -0.00000000000E+00 -0.00000000000E+00 -0.20775118266E+03  0.20775118268E+03  0.25500000000E-02 0.  1.
    8880023    1    1    2    0    0 -0.64052936138E+01  0.13520577686E+03  0.38436597489E+03  0.77451212954E+03  0.65864270000E+03 0.  1.
    8880022    1    1    2    0    0  0.64052936138E+01 -0.13520577686E+03  0.80986757001E+03  0.83522378070E+03  0.15294330000E+03 0.  0.
<mgrwt>
<rscale>  0 0.49918176E+03</rscale>
<asrwt>0</asrwt>
<pdfrwt beam="1">  1        2 0.21568997E+00 0.67240749E+03</pdfrwt>
<pdfrwt beam="2">  1       -2 0.31961719E-01 0.67240749E+03</pdfrwt>
<totfact> 0.13431087E+02</totfact>
</mgrwt>
</event>
<event>
 4    1  0.7595604E-007  0.7425135E+03  0.7818608E-02  0.9852685E-01
          2   -1    0    0  501    0  0.00000000000E+00  0.00000000000E+00  0.14325644777E+04  0.14325644777E+04  0.25500000000E-02 0. -1.
         -2   -1    0    0    0  501 -0.00000000000E+00 -0.00000000000E+00 -0.40596926469E+03  0.40596926470E+03  0.25500000000E-02 0.  1.
    8880023    1    1    2    0    0  0.34196175502E+03 -0.24045576322E+02 -0.31320785945E+01  0.74252006560E+03  0.65864270000E+03 0.  0.
    8880022    1    1    2    0    0 -0.34196175502E+03  0.24045576322E+02  0.10297272916E+04  0.10960136768E+04  0.15294330000E+03 0.  0.
<mgrwt>
<rscale>  0 0.62610199E+03</rscale>
<asrwt>0</asrwt>
<pdfrwt beam="1">  1        2 0.22039454E+00 0.74251346E+03</pdfrwt>
<pdfrwt beam="2">  1       -2 0.62456810E-01 0.74251346E+03</pdfrwt>
<totfact> 0.33719615E+01</totfact>
</mgrwt>
</event>
<event>
 4    1  0.7595604E-007  0.6794111E+03  0.7818608E-02  0.1009659E+00
         -2   -1    0    0    0  501 -0.00000000000E+00  0.00000000000E+00  0.57315047066E+03  0.57315047066E+03  0.25500000000E-02 0.  1.
          2   -1    0    0  501    0  0.00000000000E+00 -0.00000000000E+00 -0.11138497848E+04  0.11138497848E+04  0.25500000000E-02 0. -1.
    8880023    1    1    2    0    0  0.80320994309E+02 -0.14607460345E+03  0.35262854555E+03  0.76547132493E+03  0.65864270000E+03 0.  1.
    8880022    1    1    2    0    0 -0.80320994309E+02  0.14607460345E+03 -0.89332785966E+03  0.92152893051E+03  0.15294330000E+03 0.  0.
<mgrwt>
<rscale>  0 0.51610490E+03</rscale>
<asrwt>0</asrwt>
<pdfrwt beam="1">  1        2 0.17136150E+00 0.67941111E+03</pdfrwt>
<pdfrwt beam="2">  1       -2 0.88176996E-01 0.67941111E+03</pdfrwt>
<totfact> 0.24274373E+01</totfact>
</mgrwt>
</event>
<event>
 4    1  0.7595604E-007  0.8281565E+03  0.7818608E-02  0.9652930E-01
         -2   -1    0    0    0  501 -0.00000000000E+00  0.00000000000E+00  0.27202349088E+03  0.27202349089E+03  0.25500000000E-02 0.  1.
          2   -1    0    0  501    0  0.00000000000E+00 -0.00000000000E+00 -0.24420415352E+04  0.24420415352E+04  0.25500000000E-02 0. -1.
    8880023    1    1    2    0    0 -0.31459710325E+03 -0.39123092647E+03 -0.50891070418E+03  0.97202535270E+03  0.65864270000E+03 0.  1.
    8880022    1    1    2    0    0  0.31459710325E+03  0.39123092647E+03 -0.16611073402E+04  0.17420396734E+04  0.15294330000E+03 0.  0.
<mgrwt>
<rscale>  0 0.73889828E+03</rscale>
<asrwt>0</asrwt>
<pdfrwt beam="1">  1        2 0.37569868E+00 0.82815650E+03</pdfrwt>
<pdfrwt beam="2">  1       -2 0.41849769E-01 0.82815650E+03</pdfrwt>
<totfact> 0.21006827E+01</totfact>
</mgrwt>
</event>
<event>
 4    1  0.7595604E-007  0.7147646E+03  0.7818608E-02  0.9940716E-01
         -2   -1    0    0    0  501 -0.00000000000E+00  0.00000000000E+00  0.12953601804E+03  0.12953601806E+03  0.25500000000E-02 0.  1.
          2   -1    0    0  501    0  0.00000000000E+00 -0.00000000000E+00 -0.22235900234E+04  0.22235900234E+04  0.25500000000E-02 0. -1.
    8880023    1    1    2    0    0  0.96768212638E+02 -0.26021940326E+03 -0.11185681524E+04  0.13274347979E+04  0.65864270000E+03 0.  0.
    8880022    1    1    2    0    0 -0.96768212638E+02  0.26021940326E+03 -0.97548585294E+03  0.10256912436E+04  0.15294330000E+03 0.  1.
<mgrwt>
<rscale>  0 0.58327956E+03</rscale>
<asrwt>0</asrwt>
<pdfrwt beam="1">  1        2 0.34209074E+00 0.71476460E+03</pdfrwt>
<pdfrwt beam="2">  1       -2 0.19928620E-01 0.71476460E+03</pdfrwt>
<totfact> 0.11128641E+02</totfact>
</mgrwt>
</event>
<event>
 4    1  0.7595604E-007  0.1037193E+04  0.7818608E-02  0.9334438E-01
         -2   -1    0    0    0  501 -0.00000000000E+00  0.00000000000E+00  0.43097945545E+03  0.43097945545E+03  0.25500000000E-02 0.  1.
          2   -1    0    0  501    0  0.00000000000E+00 -0.00000000000E+00 -0.31176063917E+04  0.31176063917E+04  0.25500000000E-02 0. -1.
    8880023    1    1    2    0    0 -0.56653565409E+03 -0.56656471213E+03 -0.38440904835E+03  0.11061368555E+04  0.65864270000E+03 0.  0.
    8880022    1    1    2    0    0  0.56653565409E+03  0.56656471213E+03 -0.23022178879E+04  0.24424489916E+04  0.15294330000E+03 0.  0.
<mgrwt>
<rscale>  0 0.97673288E+03</rscale>
<asrwt>0</asrwt>
<pdfrwt beam="1">  1        2 0.47963174E+00 0.10371926E+04</pdfrwt>
<pdfrwt beam="2">  1       -2 0.66304534E-01 0.10371926E+04</pdfrwt>
<totfact> 0.31270089E+00</totfact>
</mgrwt>
</event>
<event>
 4    1  0.7595604E-007  0.7462821E+03  0.7818608E-02  0.9842012E-01
          2   -1    0    0  501    0  0.00000000000E+00  0.00000000000E+00  0.11628407879E+04  0.11628407879E+04  0.25500000000E-02 0. -1.
         -2   -1    0    0    0  501 -0.00000000000E+00 -0.00000000000E+00 -0.46345881369E+03  0.46345881369E+03  0.25500000000E-02 0.  1.
    8880023    1    1    2    0    0  0.15714714757E+03  0.31373804838E+03 -0.87363708074E+02  0.75137834194E+03  0.65864270000E+03 0.  1.
    8880022    1    1    2    0    0 -0.15714714757E+03 -0.31373804838E+03  0.78674568231E+03  0.87492125968E+03  0.15294330000E+03 0.  0.
<mgrwt>
<rscale>  0 0.63155883E+03</rscale>
<asrwt>0</asrwt>
<pdfrwt beam="1">  1        2 0.17889858E+00 0.74628212E+03</pdfrwt>
<pdfrwt beam="2">  1       -2 0.71301357E-01 0.74628212E+03</pdfrwt>
<totfact> 0.36254407E+01</totfact>
</mgrwt>
</event>
<event>
 4    1  0.7595604E-007  0.9438218E+03  0.7818608E-02  0.9459059E-01
          2   -1    0    0  501    0  0.00000000000E+00  0.00000000000E+00  0.65146673467E+03  0.65146673468E+03  0.25500000000E-02 0. -1.
         -2   -1    0    0    0  501 -0.00000000000E+00 -0.00000000000E+00 -0.11403490573E+04  0.11403490573E+04  0.25500000000E-02 0.  1.
    8880023    1    1    2    0    0 -0.64925208487E+03  0.18831145372E+03 -0.55610353023E+03  0.10954683089E+04  0.65864270000E+03 0.  0.
    8880022    1    1    2    0    0  0.64925208487E+03 -0.18831145372E+03  0.67221207640E+02  0.69634748300E+03  0.15294330000E+03 0.  0.
<mgrwt>
<rscale>  0 0.87370689E+03</rscale>
<asrwt>0</asrwt>
<pdfrwt beam="1">  1        2 0.10022565E+00 0.94382185E+03</pdfrwt>
<pdfrwt beam="2">  1       -2 0.17543832E+00 0.94382185E+03</pdfrwt>
<totfact> 0.87278271E+00</totfact>
</mgrwt>
</event>
<event>
 4    1  0.7595604E-007  0.9393032E+03  0.7818608E-02  0.9465674E-01
          2   -1    0    0  501    0  0.00000000000E+00  0.00000000000E+00  0.94410538594E+03  0.94410538595E+03  0.25500000000E-02 0. -1.
         -2   -1    0    0    0  501 -0.00000000000E+00 -0.00000000000E+00 -0.12948556739E+04  0.12948556739E+04  0.25500000000E-02 0.  1.
    8880023    1    1    2    0    0  0.66911490947E+03  0.27669578578E+02 -0.94371860362E+03  0.13315011741E+04  0.65864270000E+03 0.  0.
    8880022    1    1    2    0    0 -0.66911490947E+03 -0.27669578578E+02  0.59296831570E+03  0.90745988567E+03  0.15294330000E+03 0.  0.
<mgrwt>
<rscale>  0 0.86862514E+03</rscale>
<asrwt>0</asrwt>
<pdfrwt beam="1">  1        2 0.14524698E+00 0.93930324E+03</pdfrwt>
<pdfrwt beam="2">  1       -2 0.19920857E+00 0.93930324E+03</pdfrwt>
<totfact> 0.36834292E+00</totfact>
</mgrwt>
</event>
<event>
 4    1  0.7595604E-007  0.7412312E+03  0.7818608E-02  0.9856375E-01
         -2   -1    0    0    0  501 -0.00000000000E+00  0.00000000000E+00  0.83438729389E+03  0.83438729390E+03  0.25500000000E-02 0.  1.
          2   -1    0    0  501    0  0.00000000000E+00 -0.00000000000E+00 -0.75086755832E+03  0.75086755833E+03  0.25500000000E-02 0. -1.
    8880023    1    1    2    0    0 -0.21643838319E+03 -0.26223635179E+03  0.59626314157E+03  0.95129039634E+03  0.65864270000E+03 0.  1.
    8880022    1    1    2    0    0  0.21643838319E+03  0.26223635179E+03 -0.51274340600E+03  0.63396445588E+03  0.15294330000E+03 0.  0.
<mgrwt>
<rscale>  0 0.62422926E+03</rscale>
<asrwt>0</asrwt>
<pdfrwt beam="1">  1        2 0.11551808E+00 0.74123119E+03</pdfrwt>
<pdfrwt beam="2">  1       -2 0.12836728E+00 0.74123119E+03</pdfrwt>
<totfact> 0.17048993E+01</totfact>
</mgrwt>
</event>
<event>
 4    1  0.7595604E-007  0.1251173E+04  0.7818608E-02  0.9108916E-01
         -2   -1    0    0    0  501 -0.00000000000E+00  0.00000000000E+00  0.12961808570E+04  0.12961808570E+04  0.25500000000E-02 0.  1.
          2   -1    0    0  501    0  0.00000000000E+00 -0.00000000000E+00 -0.16860229277E+04  0.16860229277E+04  0.25500000000E-02 0. -1.
    8880023    1    1    2    0    0  0.60341208342E+02 -0.10620647490E+04  0.71484748259E+03  0.14409856773E+04  0.65864270000E+03 0.  1.
    8880022    1    1    2    0    0 -0.60341208342E+02  0.10620647490E+04 -0.11046895532E+04  0.15412181074E+04  0.15294330000E+03 0. -1.
<mgrwt>
<rscale>  0 0.12045125E+04</rscale>
<asrwt>0</asrwt>
<pdfrwt beam="1">  1        2 0.25938814E+00 0.12511726E+04</pdfrwt>
<pdfrwt beam="2">  1       -2 0.19941244E+00 0.12511726E+04</pdfrwt>
<totfact> 0.12922807E+00</totfact>
</mgrwt>
</event>
<event>
 4    1  0.7595604E-007  0.1458419E+04  0.7818608E-02  0.8939570E-01
          2   -1    0    0  501    0  0.00000000000E+00  0.00000000000E+00  0.49455109179E+04  0.49455109179E+04  0.25500000000E-02 0. -1.
         -2   -1    0    0    0  501 -0.00000000000E+00 -0.00000000000E+00 -0.42933009958E+03  0.42933009958E+03  0.25500000000E-02 0.  1.
    8880023    1    1    2    0    0 -0.68297244614E+03  0.11075759453E+04  0.15292389408E+04  0.21131866413E+04  0.65864270000E+03 0.  1.
    8880022    1    1    2    0    0  0.68297244614E+03 -0.11075759453E+04  0.29869418775E+04  0.32616543761E+04  0.15294330000E+03 0.  0.
<mgrwt>
<rscale>  0 0.14198562E+04</rscale>
<asrwt>0</asrwt>
<pdfrwt beam="1">  1        2 0.76084784E+00 0.14584190E+04</pdfrwt>
<pdfrwt beam="2">  1       -2 0.66050784E-01 0.14584190E+04</pdfrwt>
<totfact> 0.85294951E-02</totfact>
</mgrwt>
</event>
<event>
 4    1  0.7595604E-007  0.7975426E+03  0.7818608E-02  0.9716135E-01
         -2   -1    0    0    0  501 -0.00000000000E+00  0.00000000000E+00  0.24126208968E+03  0.24126208969E+03  0.25500000000E-02 0.  1.
          2   -1    0    0  501    0  0.00000000000E+00 -0.00000000000E+00 -0.33756936988E+04  0.33756936988E+04  0.25500000000E-02 0. -1.
    8880023    1    1    2    0    0 -0.13709304298E+03 -0.42833333500E+03 -0.50282494824E+03  0.94281869049E+03  0.65864270000E+03 0.  1.
    8880022    1    1    2    0    0  0.13709304298E+03  0.42833333500E+03 -0.26316066608E+04  0.26741370980E+04  0.15294330000E+03 0.  0.
<mgrwt>
<rscale>  0 0.70064201E+03</rscale>
<asrwt>0</asrwt>
<pdfrwt beam="1">  1        2 0.51933746E+00 0.79754257E+03</pdfrwt>
<pdfrwt beam="2">  1       -2 0.37117247E-01 0.79754257E+03</pdfrwt>
<totfact> 0.72345516E+00</totfact>
</mgrwt>
</event>
<event>
 4    1  0.7595604E-007  0.1095369E+04  0.7818608E-02  0.9266230E-01
         -2   -1    0    0    0  501 -0.00000000000E+00  0.00000000000E+00  0.82661384913E+03  0.82661384913E+03  0.25500000000E-02 0.  1.
          2   -1    0    0  501    0  0.00000000000E+00 -0.00000000000E+00 -0.12209782434E+04  0.12209782434E+04  0.25500000000E-02 0. -1.
    8880023    1    1    2    0    0 -0.58895500017E+03 -0.64742150248E+03 -0.55823884848E+02  0.10967903658E+04  0.65864270000E+03 0.  0.
    8880022    1    1    2    0    0  0.58895500017E+03  0.64742150248E+03 -0.33854050947E+03  0.95080172679E+03  0.15294330000E+03 0.  0.
<mgrwt>
<rscale>  0 0.10395213E+04</rscale>
<asrwt>0</asrwt>
<pdfrwt beam="1">  1        2 0.18784281E+00 0.10953688E+04</pdfrwt>
<pdfrwt beam="2">  1       -2 0.12717136E+00 0.10953688E+04</pdfrwt>
<totfact> 0.83112237E+00</totfact>
</mgrwt>
</event>
<event>
 4    1  0.7595604E-007  0.6624669E+03  0.7818608E-02  0.1021760E+00
         -2   -1    0    0    0  501 -0.00000000000E+00  0.00000000000E+00  0.55186775519E+03  0.55186775520E+03  0.25500000000E-02 0.  1.
          2   -1    0    0  501    0  0.00000000000E+00 -0.00000000000E+00 -0.14159542118E+04  0.14159542118E+04  0.25500000000E-02 0. -1.
    8880023    1    1    2    0    0  0.36164938883E+02 -0.61190614980E+02  0.34507645262E+03  0.74695391998E+03  0.65864270000E+03 0.  1.
    8880022    1    1    2    0    0 -0.36164938883E+02  0.61190614980E+02 -0.12091629092E+04  0.12208680470E+04  0.15294330000E+03 0.  0.
<mgrwt>
<rscale>  0 0.47056723E+03</rscale>
<asrwt>0</asrwt>
<pdfrwt beam="1">  1        2 0.21783911E+00 0.66246691E+03</pdfrwt>
<pdfrwt beam="2">  1       -2 0.84902732E-01 0.66246691E+03</pdfrwt>
<totfact> 0.17705694E+01</totfact>
</mgrwt>
</event>
<event>
 4    1  0.7595604E-007  0.7024134E+03  0.7818608E-02  0.9987333E-01
         -2   -1    0    0    0  501 -0.00000000000E+00  0.00000000000E+00  0.78011481996E+03  0.78011481996E+03  0.25500000000E-02 0.  1.
          2   -1    0    0  501    0  0.00000000000E+00 -0.00000000000E+00 -0.10218092506E+04  0.10218092506E+04  0.25500000000E-02 0. -1.
    8880023    1    1    2    0    0 -0.24101724054E+03  0.38536674940E+02  0.59279350483E+03  0.91912389328E+03  0.65864270000E+03 0.  1.
    8880022    1    1    2    0    0  0.24101724054E+03 -0.38536674940E+02 -0.83448793550E+03  0.88280017732E+03  0.15294330000E+03 0.  0.
<mgrwt>
<rscale>  0 0.56209166E+03</rscale>
<asrwt>0</asrwt>
<pdfrwt beam="1">  1        2 0.15720142E+00 0.70241341E+03</pdfrwt>
<pdfrwt beam="2">  1       -2 0.12001766E+00 0.70241341E+03</pdfrwt>
<totfact> 0.13244051E+01</totfact>
</mgrwt>
</event>
<event>
 4    1  0.7595604E-007  0.1002053E+04  0.7818608E-02  0.9378876E-01
          2   -1    0    0  501    0  0.00000000000E+00  0.00000000000E+00  0.41744576649E+04  0.41744576649E+04  0.25500000000E-02 0. -1.
         -2   -1    0    0    0  501 -0.00000000000E+00 -0.00000000000E+00 -0.19304666913E+03  0.19304666915E+03  0.25500000000E-02 0.  1.
    8880023    1    1    2    0    0  0.40071507398E+03 -0.64009994419E+03  0.25884265847E+04  0.27756193723E+04  0.65864270000E+03 0.  1.
    8880022    1    1    2    0    0 -0.40071507398E+03  0.64009994419E+03  0.13929844110E+04  0.15918849618E+04  0.15294330000E+03 0.  0.
<mgrwt>
<rscale>  0 0.93834656E+03</rscale>
<asrwt>0</asrwt>
<pdfrwt beam="1">  1        2 0.64222419E+00 0.10020532E+04</pdfrwt>
<pdfrwt beam="2">  1       -2 0.29699491E-01 0.10020532E+04</pdfrwt>
<totfact> 0.27110896E+00</totfact>
</mgrwt>
</event>
<event>
 4    1  0.7595604E-007  0.7298361E+03  0.7818608E-02  0.9890609E-01
         -2   -1    0    0    0  501 -0.00000000000E+00  0.00000000000E+00  0.22734606564E+03  0.22734606565E+03  0.25500000000E-02 0.  1.
          2   -1    0    0  501    0  0.00000000000E+00 -0.00000000000E+00 -0.20352890737E+04  0.20352890737E+04  0.25500000000E-02 0. -1.
    8880023    1    1    2    0    0 -0.16036293460E+03 -0.27043349604E+03 -0.44330651519E+03  0.85392120201E+03  0.65864270000E+03 0.  1.
    8880022    1    1    2    0    0  0.16036293460E+03  0.27043349604E+03 -0.13646364929E+04  0.14087139374E+04  0.15294330000E+03 0.  0.
<mgrwt>
<rscale>  0 0.60718587E+03</rscale>
<asrwt>0</asrwt>
<pdfrwt beam="1">  1        2 0.31312138E+00 0.72983611E+03</pdfrwt>
<pdfrwt beam="2">  1       -2 0.34976319E-01 0.72983611E+03</pdfrwt>
<totfact> 0.50597385E+01</totfact>
</mgrwt>
</event>
<event>
 4    1  0.7595604E-007  0.6736596E+03  0.7818608E-02  0.1013165E+00
         -2   -1    0    0    0  501 -0.00000000000E+00  0.00000000000E+00  0.21321640959E+03  0.21321640961E+03  0.25500000000E-02 0.  1.
          2   -1    0    0  501    0  0.00000000000E+00 -0.00000000000E+00 -0.99323752154E+03  0.99323752155E+03  0.25500000000E-02 0. -1.
    8880023    1    1    2    0    0  0.12810547529E+03 -0.59966919167E+02 -0.43021402947E+03  0.79931305607E+03  0.65864270000E+03 0.  1.
    8880022    1    1    2    0    0 -0.12810547529E+03  0.59966919167E+02 -0.34980708248E+03  0.40714087508E+03  0.15294330000E+03 0. -1.
<mgrwt>
<rscale>  0 0.50235990E+03</rscale>
<asrwt>0</asrwt>
<pdfrwt beam="1">  1        2 0.15280577E+00 0.67365960E+03</pdfrwt>
<pdfrwt beam="2">  1       -2 0.32802525E-01 0.67365960E+03</pdfrwt>
<totfact> 0.22361564E+02</totfact>
</mgrwt>
</event>
<event>
 4    1  0.7595604E-007  0.9115384E+03  0.7818608E-02  0.9507757E-01
         -2   -1    0    0    0  501 -0.00000000000E+00  0.00000000000E+00  0.42843562761E+03  0.42843562762E+03  0.25500000000E-02 0.  1.
          2   -1    0    0  501    0  0.00000000000E+00 -0.00000000000E+00 -0.18890174701E+04  0.18890174701E+04  0.25500000000E-02 0. -1.
    8880023    1    1    2    0    0 -0.63013715103E+03  0.43871186240E+01 -0.25172199282E+03  0.94565651473E+03  0.65864270000E+03 0.  0.
    8880022    1    1    2    0    0  0.63013715103E+03 -0.43871186240E+01 -0.12088598497E+04  0.13717965830E+04  0.15294330000E+03 0.  0.
<mgrwt>
<rscale>  0 0.83714345E+03</rscale>
<asrwt>0</asrwt>
<pdfrwt beam="1">  1        2 0.29061807E+00 0.91153842E+03</pdfrwt>
<pdfrwt beam="2">  1       -2 0.65913175E-01 0.91153842E+03</pdfrwt>
<totfact> 0.16500513E+01</totfact>
</mgrwt>
</event>
<event>
 4    1  0.7595604E-007  0.1056638E+04  0.7818608E-02  0.9310944E-01
         -2   -1    0    0    0  501 -0.00000000000E+00  0.00000000000E+00  0.80048443510E+03  0.80048443510E+03  0.25500000000E-02 0.  1.
          2   -1    0    0  501    0  0.00000000000E+00 -0.00000000000E+00 -0.24862776538E+04  0.24862776538E+04  0.25500000000E-02 0. -1.
    8880023    1    1    2    0    0  0.69143435438E+01  0.82621174282E+03  0.32661850139E+03  0.11059672255E+04  0.65864270000E+03 0.  0.
    8880022    1    1    2    0    0 -0.69143435438E+01 -0.82621174282E+03 -0.20124117201E+04  0.21807948634E+04  0.15294330000E+03 0.  0.
<mgrwt>
<rscale>  0 0.99781557E+03</rscale>
<asrwt>0</asrwt>
<pdfrwt beam="1">  1        2 0.38250425E+00 0.10566380E+04</pdfrwt>
<pdfrwt beam="2">  1       -2 0.12315145E+00 0.10566380E+04</pdfrwt>
<totfact> 0.17620887E+00</totfact>
</mgrwt>
</event>
<event>
 4    1  0.7595604E-007  0.9807832E+03  0.7818608E-02  0.9407142E-01
         -2   -1    0    0    0  501 -0.00000000000E+00  0.00000000000E+00  0.55238495621E+03  0.55238495621E+03  0.25500000000E-02 0.  1.
          2   -1    0    0  501    0  0.00000000000E+00 -0.00000000000E+00 -0.17182032274E+04  0.17182032274E+04  0.25500000000E-02 0. -1.
    8880023    1    1    2    0    0  0.71736057538E+03 -0.11627239368E+03 -0.12026373444E+03  0.98812905874E+03  0.65864270000E+03 0.  0.
    8880022    1    1    2    0    0 -0.71736057538E+03  0.11627239368E+03 -0.10455545368E+04  0.12824591249E+04  0.15294330000E+03 0.  0.
<mgrwt>
<rscale>  0 0.91490212E+03</rscale>
<asrwt>0</asrwt>
<pdfrwt beam="1">  1        2 0.26433896E+00 0.98078319E+03</pdfrwt>
<pdfrwt beam="2">  1       -2 0.84982302E-01 0.98078319E+03</pdfrwt>
<totfact> 0.11555404E+01</totfact>
</mgrwt>
</event>
<event>
 4    1  0.7595604E-007  0.1376935E+04  0.7818608E-02  0.9001815E-01
          2   -1    0    0  501    0  0.00000000000E+00  0.00000000000E+00  0.43578783579E+04  0.43578783579E+04  0.25500000000E-02 0. -1.
         -2   -1    0    0    0  501 -0.00000000000E+00 -0.00000000000E+00 -0.52410543396E+03  0.52410543397E+03  0.25500000000E-02 0.  1.
    8880023    1    1    2    0    0 -0.41961199880E+03  0.11340479207E+04  0.32518724208E+04  0.35313769784E+04  0.65864270000E+03 0. -1.
    8880022    1    1    2    0    0  0.41961199880E+03 -0.11340479207E+04  0.58190050310E+03  0.13506068135E+04  0.15294330000E+03 0.  1.
<mgrwt>
<rscale>  0 0.13355809E+04</rscale>
<asrwt>0</asrwt>
<pdfrwt beam="1">  1        2 0.67044284E+00 0.13769347E+04</pdfrwt>
<pdfrwt beam="2">  1       -2 0.80631603E-01 0.13769347E+04</pdfrwt>
<totfact> 0.22788343E-01</totfact>
</mgrwt>
</event>
<event>
 4    1  0.7595604E-007  0.7781419E+03  0.7818608E-02  0.9760220E-01
          2   -1    0    0  501    0  0.00000000000E+00  0.00000000000E+00  0.16623943655E+04  0.16623943656E+04  0.25500000000E-02 0. -1.
         -2   -1    0    0    0  501 -0.00000000000E+00 -0.00000000000E+00 -0.28321379172E+03  0.28321379174E+03  0.25500000000E-02 0.  1.
    8880023    1    1    2    0    0 -0.14574193707E+03  0.38788392051E+03  0.40779944440E+03  0.87852446814E+03  0.65864270000E+03 0.  0.
    8880022    1    1    2    0    0  0.14574193707E+03 -0.38788392051E+03  0.97138112942E+03  0.10670836891E+04  0.15294330000E+03 0.  0.
<mgrwt>
<rscale>  0 0.67541773E+03</rscale>
<asrwt>0</asrwt>
<pdfrwt beam="1">  1        2 0.25575298E+00 0.77814192E+03</pdfrwt>
<pdfrwt beam="2">  1       -2 0.43571353E-01 0.77814192E+03</pdfrwt>
<totfact> 0.52477764E+01</totfact>
</mgrwt>
</event>
<event>
 4    1  0.7595604E-007  0.9203266E+03  0.7818608E-02  0.9494158E-01
         -2   -1    0    0    0  501 -0.00000000000E+00  0.00000000000E+00  0.75737382161E+03  0.75737382162E+03  0.25500000000E-02 0.  1.
          2   -1    0    0  501    0  0.00000000000E+00 -0.00000000000E+00 -0.32912675568E+04  0.32912675568E+04  0.25500000000E-02 0. -1.
    8880023    1    1    2    0    0 -0.19147096720E+03  0.61362021497E+03  0.42725732066E+03  0.10146673957E+04  0.65864270000E+03 0.  1.
    8880022    1    1    2    0    0  0.19147096720E+03 -0.61362021497E+03 -0.29611510559E+04  0.30339739828E+04  0.15294330000E+03 0.  0.
<mgrwt>
<rscale>  0 0.84715873E+03</rscale>
<asrwt>0</asrwt>
<pdfrwt beam="1">  1        2 0.50634885E+00 0.92032663E+03</pdfrwt>
<pdfrwt beam="2">  1       -2 0.11651905E+00 0.92032663E+03</pdfrwt>
<totfact> 0.67117804E-01</totfact>
</mgrwt>
</event>
<event>
 4    1  0.7595604E-007  0.6945025E+03  0.7818608E-02  0.1002082E+00
         -2   -1    0    0    0  501 -0.00000000000E+00  0.00000000000E+00  0.76282375386E+03  0.76282375387E+03  0.25500000000E-02 0.  1.
          2   -1    0    0  501    0  0.00000000000E+00 -0.00000000000E+00 -0.41321160796E+03  0.41321160797E+03  0.25500000000E-02 0. -1.
    8880023    1    1    2    0    0  0.58768434200E+02 -0.21229635234E+03  0.51172985074E+03  0.86267092015E+03  0.65864270000E+03 0.  1.
    8880022    1    1    2    0    0 -0.58768434200E+02  0.21229635234E+03 -0.16211770484E+03  0.31336444169E+03  0.15294330000E+03 0.  0.
<mgrwt>
<rscale>  0 0.54746691E+03</rscale>
<asrwt>0</asrwt>
<pdfrwt beam="1">  1        2 0.63571017E-01 0.69450247E+03</pdfrwt>
<pdfrwt beam="2">  1       -2 0.11735750E+00 0.69450247E+03</pdfrwt>
<totfact> 0.43659963E+01</totfact>
</mgrwt>
</event>
<event>
 4    1  0.7595604E-007  0.8476630E+03  0.7818608E-02  0.9615897E-01
         -2   -1    0    0    0  501 -0.00000000000E+00  0.00000000000E+00  0.22753226361E+03  0.22753226363E+03  0.25500000000E-02 0.  1.
          2   -1    0    0  501    0  0.00000000000E+00 -0.00000000000E+00 -0.35927307286E+04  0.35927307286E+04  0.25500000000E-02 0. -1.
    8880023    1    1    2    0    0 -0.18940799669E+03 -0.49884556583E+03 -0.70427443245E+03  0.11020594223E+04  0.65864270000E+03 0.  1.
    8880022    1    1    2    0    0  0.18940799669E+03  0.49884556583E+03 -0.26609240326E+04  0.27182035700E+04  0.15294330000E+03 0.  0.
<mgrwt>
<rscale>  0 0.76252893E+03</rscale>
<asrwt>0</asrwt>
<pdfrwt beam="1">  1        2 0.55272777E+00 0.84766296E+03</pdfrwt>
<pdfrwt beam="2">  1       -2 0.35004966E-01 0.84766296E+03</pdfrwt>
<totfact> 0.57053821E+00</totfact>
</mgrwt>
</event>
<event>
 4    1  0.7595604E-007  0.9091517E+03  0.7818608E-02  0.9511497E-01
         -2   -1    0    0    0  501 -0.00000000000E+00  0.00000000000E+00  0.72408089115E+03  0.72408089115E+03  0.25500000000E-02 0.  1.
          2   -1    0    0  501    0  0.00000000000E+00 -0.00000000000E+00 -0.15736358718E+04  0.15736358718E+04  0.25500000000E-02 0. -1.
    8880023    1    1    2    0    0 -0.35877304892E+03 -0.51383704170E+03  0.31853266387E+03  0.96333787960E+03  0.65864270000E+03 0.  1.
    8880022    1    1    2    0    0  0.35877304892E+03  0.51383704170E+03 -0.11680876445E+04  0.13343788833E+04  0.15294330000E+03 0.  0.
<mgrwt>
<rscale>  0 0.83441475E+03</rscale>
<asrwt>0</asrwt>
<pdfrwt beam="1">  1        2 0.24209783E+00 0.90915170E+03</pdfrwt>
<pdfrwt beam="2">  1       -2 0.11139706E+00 0.90915170E+03</pdfrwt>
<totfact> 0.73912221E+00</totfact>
</mgrwt>
</event>
<event>
 4    1  0.7595604E-007  0.1285421E+04  0.7818608E-02  0.9078253E-01
         -2   -1    0    0    0  501 -0.00000000000E+00  0.00000000000E+00  0.83418289562E+03  0.83418289563E+03  0.25500000000E-02 0.  1.
          2   -1    0    0  501    0  0.00000000000E+00 -0.00000000000E+00 -0.35551422079E+04  0.35551422079E+04  0.25500000000E-02 0. -1.
    8880023    1    1    2    0    0  0.55760155370E+03  0.95266888505E+03  0.16472688312E+03  0.12959331192E+04  0.65864270000E+03 0.  0.
    8880022    1    1    2    0    0 -0.55760155370E+03 -0.95266888505E+03 -0.28856861954E+04  0.30933919843E+04  0.15294330000E+03 0.  0.
<mgrwt>
<rscale>  0 0.12403506E+04</rscale>
<asrwt>0</asrwt>
<pdfrwt beam="1">  1        2 0.54694495E+00 0.12854212E+04</pdfrwt>
<pdfrwt beam="2">  1       -2 0.12833583E+00 0.12854212E+04</pdfrwt>
<totfact> 0.32859496E-01</totfact>
</mgrwt>
</event>
<event>
 4    1  0.7595604E-007  0.7308440E+03  0.7818608E-02  0.9887468E-01
         -2   -1    0    0    0  501 -0.00000000000E+00  0.00000000000E+00  0.36897885214E+03  0.36897885215E+03  0.25500000000E-02 0.  1.
          2   -1    0    0  501    0  0.00000000000E+00 -0.00000000000E+00 -0.11105948777E+04  0.11105948777E+04  0.25500000000E-02 0. -1.
    8880023    1    1    2    0    0 -0.26232617346E+03  0.17750401203E+03 -0.86418788771E+02  0.73593553310E+03  0.65864270000E+03 0.  1.
    8880022    1    1    2    0    0  0.26232617346E+03 -0.17750401203E+03 -0.65519723682E+03  0.74363819679E+03  0.15294330000E+03 0.  0.
<mgrwt>
<rscale>  0 0.60872482E+03</rscale>
<asrwt>0</asrwt>
<pdfrwt beam="1">  1        2 0.17086075E+00 0.73084397E+03</pdfrwt>
<pdfrwt beam="2">  1       -2 0.56765978E-01 0.73084397E+03</pdfrwt>
<totfact> 0.63568634E+01</totfact>
</mgrwt>
</event>
<event>
 4    1  0.7595604E-007  0.8074514E+03  0.7818608E-02  0.9694910E-01
         -2   -1    0    0    0  501 -0.00000000000E+00  0.00000000000E+00  0.10143430389E+04  0.10143430389E+04  0.25500000000E-02 0.  1.
          2   -1    0    0  501    0  0.00000000000E+00 -0.00000000000E+00 -0.85904868987E+03  0.85904868988E+03  0.25500000000E-02 0. -1.
    8880023    1    1    2    0    0 -0.21192585842E+03 -0.41623910673E+03  0.74989261243E+03  0.11019603894E+04  0.65864270000E+03 0.  1.
    8880022    1    1    2    0    0  0.21192585842E+03  0.41623910673E+03 -0.59459826342E+03  0.77143133934E+03  0.15294330000E+03 0.  0.
<mgrwt>
<rscale>  0 0.71320643E+03</rscale>
<asrwt>0</asrwt>
<pdfrwt beam="1">  1        2 0.13216134E+00 0.80745140E+03</pdfrwt>
<pdfrwt beam="2">  1       -2 0.15605278E+00 0.80745140E+03</pdfrwt>
<totfact> 0.85213832E+00</totfact>
</mgrwt>
</event>
<event>
 4    1  0.7595604E-007  0.8511663E+03  0.7818608E-02  0.9609474E-01
          2   -1    0    0  501    0  0.00000000000E+00  0.00000000000E+00  0.11445778225E+04  0.11445778225E+04  0.25500000000E-02 0. -1.
         -2   -1    0    0    0  501 -0.00000000000E+00 -0.00000000000E+00 -0.44498664883E+03  0.44498664884E+03  0.25500000000E-02 0.  1.
    8880023    1    1    2    0    0 -0.48611013056E+03  0.23317556550E+03  0.30497351713E+03  0.90415317054E+03  0.65864270000E+03 0. -1.
    8880022    1    1    2    0    0  0.48611013056E+03 -0.23317556550E+03  0.39461765649E+03  0.68541130075E+03  0.15294330000E+03 0.  1.
<mgrwt>
<rscale>  0 0.76672277E+03</rscale>
<asrwt>0</asrwt>
<pdfrwt beam="1">  1        2 0.17608889E+00 0.85116632E+03</pdfrwt>
<pdfrwt beam="2">  1       -2 0.68459486E-01 0.85116632E+03</pdfrwt>
<totfact> 0.40248221E+01</totfact>
</mgrwt>
</event>
<event>
 4    1  0.7595604E-007  0.9191542E+03  0.7818608E-02  0.9495957E-01
         -2   -1    0    0    0  501 -0.00000000000E+00  0.00000000000E+00  0.13558078874E+04  0.13558078874E+04  0.25500000000E-02 0.  1.
          2   -1    0    0  501    0  0.00000000000E+00 -0.00000000000E+00 -0.84979234162E+03  0.84979234163E+03  0.25500000000E-02 0. -1.
    8880023    1    1    2    0    0 -0.10680903593E+03 -0.63215988137E+03 -0.46651213072E+03  0.10307657640E+04  0.65864270000E+03 0. -1.
    8880022    1    1    2    0    0  0.10680903593E+03  0.63215988137E+03  0.97252767651E+03  0.11748344651E+04  0.15294330000E+03 0.  0.
<mgrwt>
<rscale>  0 0.84582547E+03</rscale>
<asrwt>0</asrwt>
<pdfrwt beam="1">  1        2 0.13073728E+00 0.91915423E+03</pdfrwt>
<pdfrwt beam="2">  1       -2 0.20858583E+00 0.91915423E+03</pdfrwt>
<totfact> 0.37202300E+00</totfact>
</mgrwt>
</event>
<event>
 4    1  0.7595604E-007  0.1002289E+04  0.7818608E-02  0.9378569E-01
          2   -1    0    0  501    0  0.00000000000E+00  0.00000000000E+00  0.26682815535E+04  0.26682815535E+04  0.25500000000E-02 0. -1.
         -2   -1    0    0    0  501 -0.00000000000E+00 -0.00000000000E+00 -0.32644000607E+03  0.32644000608E+03  0.25500000000E-02 0.  1.
    8880023    1    1    2    0    0  0.10882257604E+03 -0.74761714791E+03  0.84456030467E+03  0.13106738982E+04  0.65864270000E+03 0.  1.
    8880022    1    1    2    0    0 -0.10882257604E+03  0.74761714791E+03  0.14972812428E+04  0.16840476614E+04  0.15294330000E+03 0.  0.
<mgrwt>
<rscale>  0 0.93860586E+03</rscale>
<asrwt>0</asrwt>
<pdfrwt beam="1">  1        2 0.41050484E+00 0.10022894E+04</pdfrwt>
<pdfrwt beam="2">  1       -2 0.50221541E-01 0.10022894E+04</pdfrwt>
<totfact> 0.10559416E+01</totfact>
</mgrwt>
</event>
<event>
 4    1  0.7595604E-007  0.9985211E+03  0.7818608E-02  0.9383495E-01
          2   -1    0    0  501    0  0.00000000000E+00  0.00000000000E+00  0.13871685840E+04  0.13871685840E+04  0.25500000000E-02 0. -1.
         -2   -1    0    0    0  501 -0.00000000000E+00 -0.00000000000E+00 -0.82783907691E+03  0.82783907691E+03  0.25500000000E-02 0.  1.
    8880023    1    1    2    0    0 -0.36808507782E+03 -0.65402407315E+03 -0.32032030298E+03  0.10486417003E+04  0.65864270000E+03 0.  0.
    8880022    1    1    2    0    0  0.36808507782E+03  0.65402407315E+03  0.87964981006E+03  0.11663659606E+04  0.15294330000E+03 0.  0.
<mgrwt>
<rscale>  0 0.93446506E+03</rscale>
<asrwt>0</asrwt>
<pdfrwt beam="1">  1        2 0.21341055E+00 0.99852107E+03</pdfrwt>
<pdfrwt beam="2">  1       -2 0.12735986E+00 0.99852107E+03</pdfrwt>
<totfact> 0.66858915E+00</totfact>
</mgrwt>
</event>
<event>
 4    1  0.7595604E-007  0.8881026E+03  0.7818608E-02  0.9545407E-01
          2   -1    0    0  501    0  0.00000000000E+00  0.00000000000E+00  0.17493532282E+04  0.17493532282E+04  0.25500000000E-02 0. -1.
         -2   -1    0    0    0  501 -0.00000000000E+00 -0.00000000000E+00 -0.63994009144E+03  0.63994009145E+03  0.25500000000E-02 0.  1.
    8880023    1    1    2    0    0 -0.13687980046E+03  0.57981021910E+03 -0.22827972371E+03  0.91697208707E+03  0.65864270000E+03 0.  1.
    8880022    1    1    2    0    0  0.13687980046E+03 -0.57981021910E+03  0.13376928605E+04  0.14723212326E+04  0.15294330000E+03 0.  0.
<mgrwt>
<rscale>  0 0.81017340E+03</rscale>
<asrwt>0</asrwt>
<pdfrwt beam="1">  1        2 0.26913127E+00 0.88810257E+03</pdfrwt>
<pdfrwt beam="2">  1       -2 0.98452322E-01 0.88810257E+03</pdfrwt>
<totfact> 0.79751034E+00</totfact>
</mgrwt>
</event>
<event>
 4    1  0.7595604E-007  0.9249062E+03  0.7818608E-02  0.9487177E-01
          2   -1    0    0  501    0  0.00000000000E+00  0.00000000000E+00  0.21111245035E+04  0.21111245035E+04  0.25500000000E-02 0. -1.
         -2   -1    0    0    0  501 -0.00000000000E+00 -0.00000000000E+00 -0.52345897762E+03  0.52345897763E+03  0.25500000000E-02 0.  1.
    8880023    1    1    2    0    0 -0.64839051856E+03  0.35086798148E+02  0.13619653360E+02  0.92500651305E+03  0.65864270000E+03 0.  1.
    8880022    1    1    2    0    0  0.64839051856E+03 -0.35086798148E+02  0.15740458726E+04  0.17095769681E+04  0.15294330000E+03 0.  0.
<mgrwt>
<rscale>  0 0.85235853E+03</rscale>
<asrwt>0</asrwt>
<pdfrwt beam="1">  1        2 0.32478838E+00 0.92490624E+03</pdfrwt>
<pdfrwt beam="2">  1       -2 0.80532152E-01 0.92490624E+03</pdfrwt>
<totfact> 0.79899213E+00</totfact>
</mgrwt>
</event>
<event>
 4    1  0.7595604E-007  0.1048437E+04  0.7818608E-02  0.9320763E-01
         -2   -1    0    0    0  501 -0.00000000000E+00  0.00000000000E+00  0.27702257260E+04  0.27702257260E+04  0.25500000000E-02 0.  1.
          2   -1    0    0  501    0  0.00000000000E+00 -0.00000000000E+00 -0.69475866302E+03  0.69475866303E+03  0.25500000000E-02 0. -1.
    8880023    1    1    2    0    0 -0.64304134880E+03  0.50190417077E+03 -0.17809433852E+03  0.10634555809E+04  0.65864270000E+03 0.  0.
    8880022    1    1    2    0    0  0.64304134880E+03 -0.50190417077E+03  0.22535614015E+04  0.24015288081E+04  0.15294330000E+03 0.  0.
<mgrwt>
<rscale>  0 0.98893678E+03</rscale>
<asrwt>0</asrwt>
<pdfrwt beam="1">  1        2 0.10688595E+00 0.10484370E+04</pdfrwt>
<pdfrwt beam="2">  1       -2 0.42618858E+00 0.10484370E+04</pdfrwt>
<totfact> 0.20883275E-01</totfact>
</mgrwt>
</event>
<event>
 4    1  0.7595604E-007  0.6741368E+03  0.7818608E-02  0.1012856E+00
         -2   -1    0    0    0  501 -0.00000000000E+00  0.00000000000E+00  0.14002683611E+03  0.14002683613E+03  0.25500000000E-02 0.  1.
          2   -1    0    0  501    0  0.00000000000E+00 -0.00000000000E+00 -0.14593435063E+04  0.14593435063E+04  0.25500000000E-02 0. -1.
    8880023    1    1    2    0    0  0.96555609115E+02  0.10642921897E+03 -0.84700030046E+03  0.10825293897E+04  0.65864270000E+03 0.  0.
    8880022    1    1    2    0    0 -0.96555609115E+02 -0.10642921897E+03 -0.47231636977E+03  0.51684095278E+03  0.15294330000E+03 0.  0.
<mgrwt>
<rscale>  0 0.50355181E+03</rscale>
<asrwt>0</asrwt>
<pdfrwt beam="1">  1        2 0.22451438E+00 0.67413676E+03</pdfrwt>
<pdfrwt beam="2">  1       -2 0.21542591E-01 0.67413676E+03</pdfrwt>
<totfact> 0.25525216E+02</totfact>
</mgrwt>
</event>
<event>
 4    1  0.7595604E-007  0.7598244E+03  0.7818608E-02  0.9805562E-01
          2   -1    0    0  501    0  0.00000000000E+00  0.00000000000E+00  0.15327383694E+04  0.15327383694E+04  0.25500000000E-02 0. -1.
         -2   -1    0    0    0  501 -0.00000000000E+00 -0.00000000000E+00 -0.60273019423E+03  0.60273019424E+03  0.25500000000E-02 0.  1.
    8880023    1    1    2    0    0 -0.27425847074E+03  0.26135258987E+03 -0.31695539456E+03  0.82328234125E+03  0.65864270000E+03 0.  1.
    8880022    1    1    2    0    0  0.27425847074E+03 -0.26135258987E+03  0.12469635697E+04  0.13121862224E+04  0.15294330000E+03 0.  0.
<mgrwt>
<rscale>  0 0.65064888E+03</rscale>
<asrwt>0</asrwt>
<pdfrwt beam="1">  1        2 0.23580590E+00 0.75982438E+03</pdfrwt>
<pdfrwt beam="2">  1       -2 0.92727722E-01 0.75982438E+03</pdfrwt>
<totfact> 0.12281884E+01</totfact>
</mgrwt>
</event>
<event>
 4    1  0.7595604E-007  0.7700164E+03  0.7818608E-02  0.9779834E-01
          2   -1    0    0  501    0  0.00000000000E+00  0.00000000000E+00  0.15100331622E+04  0.15100331622E+04  0.25500000000E-02 0. -1.
         -2   -1    0    0    0  501 -0.00000000000E+00 -0.00000000000E+00 -0.12803606666E+04  0.12803606666E+04  0.25500000000E-02 0.  1.
    8880023    1    1    2    0    0  0.38916684016E+03  0.87545383047E+02 -0.11287478751E+04  0.13663809847E+04  0.65864270000E+03 0.  1.
    8880022    1    1    2    0    0 -0.38916684016E+03 -0.87545383047E+02  0.13584203707E+04  0.14240128441E+04  0.15294330000E+03 0.  0.
<mgrwt>
<rscale>  0 0.66456095E+03</rscale>
<asrwt>0</asrwt>
<pdfrwt beam="1">  1        2 0.23231279E+00 0.77001638E+03</pdfrwt>
<pdfrwt beam="2">  1       -2 0.19697856E+00 0.77001638E+03</pdfrwt>
<totfact> 0.17943641E+00</totfact>
</mgrwt>
</event>
<event>
 4    1  0.7595604E-007  0.1296775E+04  0.7818608E-02  0.9068350E-01
          2   -1    0    0  501    0  0.00000000000E+00  0.00000000000E+00  0.22259775957E+04  0.22259775957E+04  0.25500000000E-02 0. -1.
         -2   -1    0    0    0  501 -0.00000000000E+00 -0.00000000000E+00 -0.68437550405E+03  0.68437550405E+03  0.25500000000E-02 0.  1.
    8880023    1    1    2    0    0  0.10990192981E+04 -0.19992789385E+03  0.54899958261E+03  0.14081993212E+04  0.65864270000E+03 0.  1.
    8880022    1    1    2    0    0 -0.10990192981E+04  0.19992789385E+03  0.99260250908E+03  0.15021537786E+04  0.15294330000E+03 0.  0.
<mgrwt>
<rscale>  0 0.12522049E+04</rscale>
<asrwt>0</asrwt>
<pdfrwt beam="1">  1        2 0.34245809E+00 0.12967748E+04</pdfrwt>
<pdfrwt beam="2">  1       -2 0.10528854E+00 0.12967748E+04</pdfrwt>
<totfact> 0.35366940E+00</totfact>
</mgrwt>
</event>
<event>
 4    1  0.7595604E-007  0.7974155E+03  0.7818608E-02  0.9716412E-01
         -2   -1    0    0    0  501 -0.00000000000E+00  0.00000000000E+00  0.11249545214E+04  0.11249545214E+04  0.25500000000E-02 0.  1.
          2   -1    0    0  501    0  0.00000000000E+00 -0.00000000000E+00 -0.85324361562E+03  0.85324361562E+03  0.25500000000E-02 0. -1.
    8880023    1    1    2    0    0  0.44818100666E+03 -0.34569474212E+02 -0.59161456580E+03  0.99291453006E+03  0.65864270000E+03 0. -1.
    8880022    1    1    2    0    0 -0.44818100666E+03  0.34569474212E+02  0.86332547160E+03  0.98528360699E+03  0.15294330000E+03 0.  0.
<mgrwt>
<rscale>  0 0.70047959E+03</rscale>
<asrwt>0</asrwt>
<pdfrwt beam="1">  1        2 0.13126825E+00 0.79741549E+03</pdfrwt>
<pdfrwt beam="2">  1       -2 0.17306993E+00 0.79741549E+03</pdfrwt>
<totfact> 0.64837342E+00</totfact>
</mgrwt>
</event>
<event>
 4    1  0.7595604E-007  0.9089313E+03  0.7818608E-02  0.9511843E-01
          2   -1    0    0  501    0  0.00000000000E+00  0.00000000000E+00  0.92248261623E+03  0.92248261623E+03  0.25500000000E-02 0. -1.
         -2   -1    0    0    0  501 -0.00000000000E+00 -0.00000000000E+00 -0.10719419380E+04  0.10719419380E+04  0.25500000000E-02 0.  1.
    8880023    1    1    2    0    0 -0.34701631288E+02  0.62541321727E+03 -0.69948072267E+03  0.11469216988E+04  0.65864270000E+03 0.  0.
    8880022    1    1    2    0    0  0.34701631288E+02 -0.62541321727E+03  0.55002140088E+03  0.84750285545E+03  0.15294330000E+03 0.  0.
<mgrwt>
<rscale>  0 0.83416257E+03</rscale>
<asrwt>0</asrwt>
<pdfrwt beam="1">  1        2 0.14192040E+00 0.90893130E+03</pdfrwt>
<pdfrwt beam="2">  1       -2 0.16491414E+00 0.90893130E+03</pdfrwt>
<totfact> 0.65673711E+00</totfact>
</mgrwt>
</event>
<event>
 4    1  0.7595604E-007  0.8141501E+03  0.7818608E-02  0.9680996E-01
          2   -1    0    0  501    0  0.00000000000E+00  0.00000000000E+00  0.11732798233E+04  0.11732798233E+04  0.25500000000E-02 0. -1.
         -2   -1    0    0    0  501 -0.00000000000E+00 -0.00000000000E+00 -0.11412764286E+04  0.11412764286E+04  0.25500000000E-02 0.  1.
    8880023    1    1    2    0    0 -0.31963553708E+03  0.35617867386E+03 -0.92587223790E+03  0.12329151355E+04  0.65864270000E+03 0.  1.
    8880022    1    1    2    0    0  0.31963553708E+03 -0.35617867386E+03  0.95787563259E+03  0.10816411165E+04  0.15294330000E+03 0.  0.
<mgrwt>
<rscale>  0 0.72159614E+03</rscale>
<asrwt>0</asrwt>
<pdfrwt beam="1">  1        2 0.18050459E+00 0.81415007E+03</pdfrwt>
<pdfrwt beam="2">  1       -2 0.17558099E+00 0.81415007E+03</pdfrwt>
<totfact> 0.38791855E+00</totfact>
</mgrwt>
</event>
<event>
 4    1  0.7595604E-007  0.7616039E+03  0.7818608E-02  0.9800973E-01
          2   -1    0    0  501    0  0.00000000000E+00  0.00000000000E+00  0.26997263124E+04  0.26997263124E+04  0.25500000000E-02 0. -1.
         -2   -1    0    0    0  501 -0.00000000000E+00 -0.00000000000E+00 -0.48069747242E+03  0.48069747243E+03  0.25500000000E-02 0.  1.
    8880023    1    1    2    0    0 -0.34176728230E+03  0.17153838496E+03 -0.14968319312E+03  0.77617366441E+03  0.65864270000E+03 0.  1.
    8880022    1    1    2    0    0  0.34176728230E+03 -0.17153838496E+03  0.23687120331E+04  0.24042501204E+04  0.15294330000E+03 0.  0.
<mgrwt>
<rscale>  0 0.65310367E+03</rscale>
<asrwt>0</asrwt>
<pdfrwt beam="1">  1        2 0.41534251E+00 0.76160390E+03</pdfrwt>
<pdfrwt beam="2">  1       -2 0.73953456E-01 0.76160390E+03</pdfrwt>
<totfact> 0.46121394E+00</totfact>
</mgrwt>
</event>
<event>
 4    1  0.7595604E-007  0.8791158E+03  0.7818608E-02  0.9560425E-01
          2   -1    0    0  501    0  0.00000000000E+00  0.00000000000E+00  0.18061244393E+04  0.18061244393E+04  0.25500000000E-02 0. -1.
         -2   -1    0    0    0  501 -0.00000000000E+00 -0.00000000000E+00 -0.58594618785E+03  0.58594618786E+03  0.25500000000E-02 0.  1.
    8880023    1    1    2    0    0 -0.42676913230E+03 -0.39610908314E+03 -0.15336066844E+03  0.89239228981E+03  0.65864270000E+03 0.  1.
    8880022    1    1    2    0    0  0.42676913230E+03  0.39610908314E+03  0.13735389199E+04  0.14996783373E+04  0.15294330000E+03 0.  0.
<mgrwt>
<rscale>  0 0.79971816E+03</rscale>
<asrwt>0</asrwt>
<pdfrwt beam="1">  1        2 0.27786529E+00 0.87911575E+03</pdfrwt>
<pdfrwt beam="2">  1       -2 0.90145569E-01 0.87911575E+03</pdfrwt>
<totfact> 0.91322708E+00</totfact>
</mgrwt>
</event>
<event>
 4    1  0.1134472E-006  0.7657678E+03  0.7818608E-02  0.9790398E-01
          2   -1    0    0  501    0  0.00000000000E+00  0.00000000000E+00  0.12471749963E+04  0.12471749963E+04  0.25500000000E-02 0. -1.
         -2   -1    0    0    0  501 -0.00000000000E+00 -0.00000000000E+00 -0.22196119936E+04  0.22196119936E+04  0.25500000000E-02 0.  1.
    8880023    1    1    2    0    0  0.38011438197E+03  0.90017394337E+02 -0.21151516858E+04  0.22495037086E+04  0.65864270000E+03 0.  1.
    8880022    1    1    2    0    0 -0.38011438197E+03 -0.90017394337E+02  0.11427146885E+04  0.12172832814E+04  0.15294330000E+03 0.  0.
<mgrwt>
<rscale>  0 0.65880405E+03</rscale>
<asrwt>0</asrwt>
<pdfrwt beam="1">  1        2 0.19187308E+00 0.76576777E+03</pdfrwt>
<pdfrwt beam="2">  1       -2 0.34147877E+00 0.76576777E+03</pdfrwt>
<totfact> 0.33033816E-01</totfact>
</mgrwt>
</event>
<event>
 4    1  0.7595604E-007  0.7196654E+03  0.7818608E-02  0.9923720E-01
          2   -1    0    0  501    0  0.00000000000E+00  0.00000000000E+00  0.12400172235E+04  0.12400172235E+04  0.25500000000E-02 0. -1.
         -2   -1    0    0    0  501 -0.00000000000E+00 -0.00000000000E+00 -0.29610789974E+03  0.29610789975E+03  0.25500000000E-02 0.  1.
    8880023    1    1    2    0    0  0.10811022824E+03  0.26911003390E+03  0.23835461338E+03  0.75811025569E+03  0.65864270000E+03 0.  0.
    8880022    1    1    2    0    0 -0.10811022824E+03 -0.26911003390E+03  0.70555471037E+03  0.77801486756E+03  0.15294330000E+03 0.  0.
<mgrwt>
<rscale>  0 0.59125367E+03</rscale>
<asrwt>0</asrwt>
<pdfrwt beam="1">  1        2 0.19077188E+00 0.71966537E+03</pdfrwt>
<pdfrwt beam="2">  1       -2 0.45555061E-01 0.71966537E+03</pdfrwt>
<totfact> 0.83490460E+01</totfact>
</mgrwt>
</event>
<event>
 4    1  0.7595604E-007  0.7047064E+03  0.7818608E-02  0.9978210E-01
          2   -1    0    0  501    0  0.00000000000E+00  0.00000000000E+00  0.11222587953E+04  0.11222587953E+04  0.25500000000E-02 0. -1.
         -2   -1    0    0    0  501 -0.00000000000E+00 -0.00000000000E+00 -0.91279603124E+03  0.91279603124E+03  0.25500000000E-02 0.  1.
    8880023    1    1    2    0    0  0.77006460726E+02 -0.23847616705E+03 -0.75151216920E+03  0.10302337715E+04  0.65864270000E+03 0.  1.
    8880022    1    1    2    0    0 -0.77006460726E+02  0.23847616705E+03  0.96097493322E+03  0.10048210550E+04  0.15294330000E+03 0.  0.
<mgrwt>
<rscale>  0 0.56616088E+03</rscale>
<asrwt>0</asrwt>
<pdfrwt beam="1">  1        2 0.17265520E+00 0.70470638E+03</pdfrwt>
<pdfrwt beam="2">  1       -2 0.14043016E+00 0.70470638E+03</pdfrwt>
<totfact> 0.77146441E+00</totfact>
</mgrwt>
</event>
<event>
 4    1  0.7632290E-007  0.6835181E+03  0.7818608E-02  0.1007400E+00
          2   -1    0    0  501    0  0.00000000000E+00  0.00000000000E+00  0.32581256006E+04  0.32581256006E+04  0.25500000000E-02 0. -1.
         -2   -1    0    0    0  501 -0.00000000000E+00 -0.00000000000E+00 -0.45421588563E+03  0.45421588563E+03  0.25500000000E-02 0.  1.
    8880023    1    1    2    0    0 -0.15867415310E+03 -0.90605554928E+02 -0.18962835383E+03  0.70933488021E+03  0.65864270000E+03 0.  1.
    8880022    1    1    2    0    0  0.15867415310E+03  0.90605554928E+02  0.29935380688E+04  0.30030066060E+04  0.15294330000E+03 0.  0.
<mgrwt>
<rscale>  0 0.52521308E+03</rscale>
<asrwt>0</asrwt>
<pdfrwt beam="1">  1        2 0.50125012E+00 0.68351815E+03</pdfrwt>
<pdfrwt beam="2">  1       -2 0.69879364E-01 0.68351815E+03</pdfrwt>
<totfact> 0.24230120E+00</totfact>
</mgrwt>
</event>
<event>
 4    1  0.7595604E-007  0.6862305E+03  0.7818608E-02  0.1005998E+00
         -2   -1    0    0    0  501 -0.00000000000E+00  0.00000000000E+00  0.79662528934E+02  0.79662528975E+02  0.25500000000E-02 0.  1.
          2   -1    0    0  501    0  0.00000000000E+00 -0.00000000000E+00 -0.38432049135E+04  0.38432049135E+04  0.25500000000E-02 0. -1.
    8880023    1    1    2    0    0  0.12904451022E+03 -0.14300228648E+03 -0.15426348493E+04  0.16883822506E+04  0.65864270000E+03 0.  1.
    8880022    1    1    2    0    0 -0.12904451022E+03  0.14300228648E+03 -0.22209075353E+04  0.22344851919E+04  0.15294330000E+03 0.  0.
<mgrwt>
<rscale>  0 0.53096559E+03</rscale>
<asrwt>0</asrwt>
<pdfrwt beam="1">  1        2 0.59126215E+00 0.68623053E+03</pdfrwt>
<pdfrwt beam="2">  1       -2 0.12255777E-01 0.68623053E+03</pdfrwt>
<totfact> 0.24727749E+01</totfact>
</mgrwt>
</event>
<event>
 4    1  0.7595604E-007  0.6782417E+03  0.7818608E-02  0.1010336E+00
         -2   -1    0    0    0  501 -0.00000000000E+00  0.00000000000E+00  0.10578808857E+04  0.10578808857E+04  0.25500000000E-02 0.  1.
          2   -1    0    0  501    0  0.00000000000E+00 -0.00000000000E+00 -0.60065577533E+03  0.60065577533E+03  0.25500000000E-02 0. -1.
    8880023    1    1    2    0    0 -0.15177335509E+03  0.56270664971E+02  0.92116227541E+03  0.11439194390E+04  0.65864270000E+03 0.  1.
    8880022    1    1    2    0    0  0.15177335509E+03 -0.56270664971E+02 -0.46393716505E+03  0.51461722201E+03  0.15294330000E+03 0.  0.
<mgrwt>
<rscale>  0 0.51341210E+03</rscale>
<asrwt>0</asrwt>
<pdfrwt beam="1">  1        2 0.92408582E-01 0.67824166E+03</pdfrwt>
<pdfrwt beam="2">  1       -2 0.16275090E+00 0.67824166E+03</pdfrwt>
<totfact> 0.12186630E+01</totfact>
</mgrwt>
</event>
<event>
 4    1  0.7595604E-007  0.6966493E+03  0.7818608E-02  0.1001140E+00
          2   -1    0    0  501    0  0.00000000000E+00  0.00000000000E+00  0.70836785691E+03  0.70836785692E+03  0.25500000000E-02 0. -1.
         -2   -1    0    0    0  501 -0.00000000000E+00 -0.00000000000E+00 -0.36140706288E+03  0.36140706289E+03  0.25500000000E-02 0.  1.
    8880023    1    1    2    0    0  0.94261730149E+02 -0.20645763228E+03  0.10509040217E+03  0.70453121051E+03  0.65864270000E+03 0.  1.
    8880022    1    1    2    0    0 -0.94261730149E+02  0.20645763228E+03  0.24187039187E+03  0.36524370929E+03  0.15294330000E+03 0. -1.
<mgrwt>
<rscale>  0 0.55153375E+03</rscale>
<asrwt>0</asrwt>
<pdfrwt beam="1">  1        2 0.10897967E+00 0.69664929E+03</pdfrwt>
<pdfrwt beam="2">  1       -2 0.55601087E-01 0.69664929E+03</pdfrwt>
<totfact> 0.12444884E+02</totfact>
</mgrwt>
</event>
<event>
 4    1  0.7595604E-007  0.6819140E+03  0.7818608E-02  0.1008261E+00
         -2   -1    0    0    0  501 -0.00000000000E+00  0.00000000000E+00  0.55800921516E+03  0.55800921516E+03  0.25500000000E-02 0.  1.
          2   -1    0    0  501    0  0.00000000000E+00 -0.00000000000E+00 -0.49895033566E+03  0.49895033566E+03  0.25500000000E-02 0. -1.
    8880023    1    1    2    0    0  0.17144819774E+03 -0.42449317882E+02  0.27834197970E+03  0.73653302236E+03  0.65864270000E+03 0.  0.
    8880022    1    1    2    0    0 -0.17144819774E+03  0.42449317882E+02 -0.21928310020E+03  0.32042652847E+03  0.15294330000E+03 0.  0.
<mgrwt>
<rscale>  0 0.52171631E+03</rscale>
<asrwt>0</asrwt>
<pdfrwt beam="1">  1        2 0.76761590E-01 0.68191395E+03</pdfrwt>
<pdfrwt beam="2">  1       -2 0.85847571E-01 0.68191395E+03</pdfrwt>
<totfact> 0.73850592E+01</totfact>
</mgrwt>
</event>
<event>
 4    1  0.7595604E-007  0.6627515E+03  0.7818608E-02  0.1021499E+00
         -2   -1    0    0    0  501 -0.00000000000E+00  0.00000000000E+00  0.36224456771E+03  0.36224456772E+03  0.25500000000E-02 0.  1.
          2   -1    0    0  501    0  0.00000000000E+00 -0.00000000000E+00 -0.72672245106E+03  0.72672245107E+03  0.25500000000E-02 0. -1.
    8880023    1    1    2    0    0 -0.49562886620E+02 -0.54523951018E+02  0.25915733448E+02  0.66325799842E+03  0.65864270000E+03 0.  1.
    8880022    1    1    2    0    0  0.49562886620E+02  0.54523951018E+02 -0.39039361680E+03  0.42570902037E+03  0.15294330000E+03 0.  0.
<mgrwt>
<rscale>  0 0.47149453E+03</rscale>
<asrwt>0</asrwt>
<pdfrwt beam="1">  1        2 0.11180345E+00 0.66275150E+03</pdfrwt>
<pdfrwt beam="2">  1       -2 0.55729934E-01 0.66275150E+03</pdfrwt>
<totfact> 0.12015744E+02</totfact>
</mgrwt>
</event>
<event>
 4    1  0.7595604E-007  0.6640259E+03  0.7818608E-02  0.1020365E+00
         -2   -1    0    0    0  501 -0.00000000000E+00  0.00000000000E+00  0.98846698436E+02  0.98846698469E+02  0.25500000000E-02 0.  1.
          2   -1    0    0  501    0  0.00000000000E+00 -0.00000000000E+00 -0.22520466253E+04  0.22520466253E+04  0.25500000000E-02 0. -1.
    8880023    1    1    2    0    0 -0.73658211256E+02  0.41166844924E+02 -0.11122407701E+04  0.12953802446E+04  0.65864270000E+03 0.  1.
    8880022    1    1    2    0    0  0.73658211256E+02 -0.41166844924E+02 -0.10409591567E+04  0.10555130791E+04  0.15294330000E+03 0.  0.
<mgrwt>
<rscale>  0 0.47555136E+03</rscale>
<asrwt>0</asrwt>
<pdfrwt beam="1">  1        2 0.34646867E+00 0.66402594E+03</pdfrwt>
<pdfrwt beam="2">  1       -2 0.15207186E-01 0.66402594E+03</pdfrwt>
<totfact> 0.17179716E+02</totfact>
</mgrwt>
</event>
<event>
 4    1  0.7595604E-007  0.6913671E+03  0.7818608E-02  0.1003509E+00
         -2   -1    0    0    0  501 -0.00000000000E+00  0.00000000000E+00  0.27621730162E+03  0.27621730163E+03  0.25500000000E-02 0.  1.
          2   -1    0    0  501    0  0.00000000000E+00 -0.00000000000E+00 -0.11103284942E+04  0.11103284942E+04  0.25500000000E-02 0. -1.
    8880023    1    1    2    0    0 -0.13698354375E+03  0.15941686707E+03 -0.22956535203E+03  0.72848382678E+03  0.65864270000E+03 0.  1.
    8880022    1    1    2    0    0  0.13698354375E+03 -0.15941686707E+03 -0.60454584054E+03  0.65806196904E+03  0.15294330000E+03 0.  0.
<mgrwt>
<rscale>  0 0.54137808E+03</rscale>
<asrwt>0</asrwt>
<pdfrwt beam="1">  1        2 0.17081977E+00 0.69136708E+03</pdfrwt>
<pdfrwt beam="2">  1       -2 0.42494970E-01 0.69136708E+03</pdfrwt>
<totfact> 0.11476619E+02</totfact>
</mgrwt>
</event>
<event>
 4    1  0.7595604E-007  0.9602423E+03  0.7818608E-02  0.9435528E-01
          2   -1    0    0  501    0  0.00000000000E+00  0.00000000000E+00  0.29292560276E+04  0.29292560276E+04  0.25500000000E-02 0. -1.
         -2   -1    0    0    0  501 -0.00000000000E+00 -0.00000000000E+00 -0.76240065385E+03  0.76240065385E+03  0.25500000000E-02 0.  1.
    8880023    1    1    2    0    0  0.27677958633E+03 -0.64159811455E+03 -0.39015867754E+03  0.10364791749E+04  0.65864270000E+03 0.  1.
    8880022    1    1    2    0    0 -0.27677958633E+03  0.64159811455E+03  0.25570140513E+04  0.26551775066E+04  0.15294330000E+03 0.  0.
<mgrwt>
<rscale>  0 0.89208637E+03</rscale>
<asrwt>0</asrwt>
<pdfrwt beam="1">  1        2 0.45065478E+00 0.96024231E+03</pdfrwt>
<pdfrwt beam="2">  1       -2 0.11729241E+00 0.96024231E+03</pdfrwt>
<totfact> 0.11079455E+00</totfact>
</mgrwt>
</event>
<event>
 4    1  0.7595604E-007  0.6686821E+03  0.7818608E-02  0.1016626E+00
          2   -1    0    0  501    0  0.00000000000E+00  0.00000000000E+00  0.21077492448E+04  0.21077492448E+04  0.25500000000E-02 0. -1.
         -2   -1    0    0    0  501 -0.00000000000E+00 -0.00000000000E+00 -0.17938225726E+03  0.17938225728E+03  0.25500000000E-02 0.  1.
    8880023    1    1    2    0    0  0.16497837535E+02 -0.11425117153E+03  0.47265950328E+03  0.81886672978E+03  0.65864270000E+03 0.  1.
    8880022    1    1    2    0    0 -0.16497837535E+02  0.11425117153E+03  0.14557074843E+04  0.14682647723E+04  0.15294330000E+03 0.  0.
<mgrwt>
<rscale>  0 0.48924162E+03</rscale>
<asrwt>0</asrwt>
<pdfrwt beam="1">  1        2 0.32426911E+00 0.66868207E+03</pdfrwt>
<pdfrwt beam="2">  1       -2 0.27597271E-01 0.66868207E+03</pdfrwt>
<totfact> 0.72422436E+01</totfact>
</mgrwt>
</event>
<event>
 4    1  0.7595604E-007  0.6626040E+03  0.7818608E-02  0.1021634E+00
          2   -1    0    0  501    0  0.00000000000E+00  0.00000000000E+00  0.31380740019E+04  0.31380740019E+04  0.25500000000E-02 0. -1.
         -2   -1    0    0    0  501 -0.00000000000E+00 -0.00000000000E+00 -0.79975001027E+02  0.79975001067E+02  0.25500000000E-02 0.  1.
    8880023    1    1    2    0    0  0.24994481546E+02 -0.67890953753E+02  0.13734909860E+04  0.15249660982E+04  0.65864270000E+03 0.  1.
    8880022    1    1    2    0    0 -0.24994481546E+02  0.67890953753E+02  0.16846080149E+04  0.16930829048E+04  0.15294330000E+03 0.  0.
<mgrwt>
<rscale>  0 0.47101507E+03</rscale>
<asrwt>0</asrwt>
<pdfrwt beam="1">  1        2 0.48278053E+00 0.66260404E+03</pdfrwt>
<pdfrwt beam="2">  1       -2 0.12303848E-01 0.66260404E+03</pdfrwt>
<totfact> 0.74606283E+01</totfact>
</mgrwt>
</event>
<event>
 4    1  0.7595604E-007  0.7631345E+03  0.7818608E-02  0.9797059E-01
          2   -1    0    0  501    0  0.00000000000E+00  0.00000000000E+00  0.37845352596E+04  0.37845352596E+04  0.25500000000E-02 0. -1.
         -2   -1    0    0    0  501 -0.00000000000E+00 -0.00000000000E+00 -0.33037922509E+03  0.33037922510E+03  0.25500000000E-02 0.  1.
    8880023    1    1    2    0    0 -0.89100260045E+02 -0.37500020744E+03  0.14117543477E+03  0.77608293472E+03  0.65864270000E+03 0.  1.
    8880022    1    1    2    0    0  0.89100260045E+02  0.37500020744E+03  0.33129805997E+04  0.33388315499E+04  0.15294330000E+03 0.  0.
<mgrwt>
<rscale>  0 0.65520600E+03</rscale>
<asrwt>0</asrwt>
<pdfrwt beam="1">  1        2 0.58223613E+00 0.76313447E+03</pdfrwt>
<pdfrwt beam="2">  1       -2 0.50827578E-01 0.76313447E+03</pdfrwt>
<totfact> 0.20245447E+00</totfact>
</mgrwt>
</event>
<event>
 4    1  0.7595604E-007  0.6626478E+03  0.7818608E-02  0.1021594E+00
          2   -1    0    0  501    0  0.00000000000E+00  0.00000000000E+00  0.39205633190E+03  0.39205633191E+03  0.25500000000E-02 0. -1.
         -2   -1    0    0    0  501 -0.00000000000E+00 -0.00000000000E+00 -0.55129576860E+03  0.55129576861E+03  0.25500000000E-02 0.  1.
    8880023    1    1    2    0    0  0.48300049920E+02  0.54396357864E+02 -0.29591619708E+03  0.72571927116E+03  0.65864270000E+03 0.  1.
    8880022    1    1    2    0    0 -0.48300049920E+02 -0.54396357864E+02  0.13667676038E+03  0.21763282935E+03  0.15294330000E+03 0.  0.
<mgrwt>
<rscale>  0 0.47115748E+03</rscale>
<asrwt>0</asrwt>
<pdfrwt beam="1">  1        2 0.60316358E-01 0.66264777E+03</pdfrwt>
<pdfrwt beam="2">  1       -2 0.84814734E-01 0.66264777E+03</pdfrwt>
<totfact> 0.99973834E+01</totfact>
</mgrwt>
</event>
<event>
 4    1  0.7595604E-007  0.7662899E+03  0.7818608E-02  0.9789087E-01
         -2   -1    0    0    0  501 -0.00000000000E+00  0.00000000000E+00  0.74636397758E+03  0.74636397759E+03  0.25500000000E-02 0.  1.
          2   -1    0    0  501    0  0.00000000000E+00 -0.00000000000E+00 -0.18543271323E+04  0.18543271323E+04  0.25500000000E-02 0. -1.
    8880023    1    1    2    0    0  0.18982816233E+03  0.34257164925E+03  0.51557723209E+03  0.92359090218E+03  0.65864270000E+03 0.  0.
    8880022    1    1    2    0    0 -0.18982816233E+03 -0.34257164925E+03 -0.16235403868E+04  0.16771002077E+04  0.15294330000E+03 0.  0.
<mgrwt>
<rscale>  0 0.65951475E+03</rscale>
<asrwt>0</asrwt>
<pdfrwt beam="1">  1        2 0.28528110E+00 0.76628994E+03</pdfrwt>
<pdfrwt beam="2">  1       -2 0.11482523E+00 0.76628994E+03</pdfrwt>
<totfact> 0.49073321E+00</totfact>
</mgrwt>
</event>
<event>
 4    1  0.7595604E-007  0.1013276E+04  0.7818608E-02  0.9364391E-01
          2   -1    0    0  501    0  0.00000000000E+00  0.00000000000E+00  0.35699822607E+04  0.35699822607E+04  0.25500000000E-02 0. -1.
         -2   -1    0    0    0  501 -0.00000000000E+00 -0.00000000000E+00 -0.37236434523E+03  0.37236434524E+03  0.25500000000E-02 0.  1.
    8880023    1    1    2    0    0 -0.52293566122E+02  0.76823355253E+03  0.49443127902E+03  0.11274705780E+04  0.65864270000E+03 0.  1.
    8880022    1    1    2    0    0  0.52293566122E+02 -0.76823355253E+03  0.27031866364E+04  0.28148760280E+04  0.15294330000E+03 0.  0.
<mgrwt>
<rscale>  0 0.95064974E+03</rscale>
<asrwt>0</asrwt>
<pdfrwt beam="1">  1        2 0.54922803E+00 0.10132757E+04</pdfrwt>
<pdfrwt beam="2">  1       -2 0.57286824E-01 0.10132757E+04</pdfrwt>
<totfact> 0.21476066E+00</totfact>
</mgrwt>
</event>
<event>
 4    1  0.7595604E-007  0.7759606E+03  0.7818608E-02  0.9765413E-01
          2   -1    0    0  501    0  0.00000000000E+00  0.00000000000E+00  0.65481679438E+03  0.65481679439E+03  0.25500000000E-02 0. -1.
         -2   -1    0    0    0  501 -0.00000000000E+00 -0.00000000000E+00 -0.66700547081E+03  0.66700547081E+03  0.25500000000E-02 0.  1.
    8880023    1    1    2    0    0  0.21898280175E+03  0.34691674285E+03 -0.26044884554E+03  0.81850381877E+03  0.65864270000E+03 0.  1.
    8880022    1    1    2    0    0 -0.21898280175E+03 -0.34691674285E+03  0.24826016912E+03  0.50331844643E+03  0.15294330000E+03 0.  0.
<mgrwt>
<rscale>  0 0.67252200E+03</rscale>
<asrwt>0</asrwt>
<pdfrwt beam="1">  1        2 0.10074105E+00 0.77596063E+03</pdfrwt>
<pdfrwt beam="2">  1       -2 0.10261623E+00 0.77596063E+03</pdfrwt>
<totfact> 0.34979702E+01</totfact>
</mgrwt>
</event>
<event>
 4    1  0.7595604E-007  0.7503151E+03  0.7818608E-02  0.9830859E-01
          2   -1    0    0  501    0  0.00000000000E+00  0.00000000000E+00  0.52134015114E+03  0.52134015115E+03  0.25500000000E-02 0. -1.
         -2   -1    0    0    0  501 -0.00000000000E+00 -0.00000000000E+00 -0.65688987036E+03  0.65688987036E+03  0.25500000000E-02 0.  1.
    8880023    1    1    2    0    0  0.35522079533E+03 -0.54595510746E+02  0.37010894646E+02  0.75122732632E+03  0.65864270000E+03 0.  0.
    8880022    1    1    2    0    0 -0.35522079533E+03  0.54595510746E+02 -0.17256061386E+03  0.42700269519E+03  0.15294330000E+03 0. -1.
<mgrwt>
<rscale>  0 0.63732469E+03</rscale>
<asrwt>0</asrwt>
<pdfrwt beam="1">  1        2 0.80206177E-01 0.75031506E+03</pdfrwt>
<pdfrwt beam="2">  1       -2 0.10105998E+00 0.75031506E+03</pdfrwt>
<totfact> 0.47798550E+01</totfact>
</mgrwt>
</event>
<event>
 4    1  0.7595604E-007  0.7389619E+03  0.7818608E-02  0.9862981E-01
         -2   -1    0    0    0  501 -0.00000000000E+00  0.00000000000E+00  0.26323961916E+03  0.26323961918E+03  0.25500000000E-02 0.  1.
          2   -1    0    0  501    0  0.00000000000E+00 -0.00000000000E+00 -0.13696752983E+04  0.13696752983E+04  0.25500000000E-02 0. -1.
    8880023    1    1    2    0    0 -0.43524955108E+02  0.33220481687E+03 -0.10113179949E+04  0.12525289439E+04  0.65864270000E+03 0. -1.
    8880022    1    1    2    0    0  0.43524955108E+02 -0.33220481687E+03 -0.95117684211E+02  0.38038597363E+03  0.15294330000E+03 0.  1.
<mgrwt>
<rscale>  0 0.62089398E+03</rscale>
<asrwt>0</asrwt>
<pdfrwt beam="1">  1        2 0.21071927E+00 0.73896189E+03</pdfrwt>
<pdfrwt beam="2">  1       -2 0.40498404E-01 0.73896189E+03</pdfrwt>
<totfact> 0.88549453E+01</totfact>
</mgrwt>
</event>
<event>
 4    1  0.7595604E-007  0.1055967E+04  0.7818608E-02  0.9311742E-01
         -2   -1    0    0    0  501 -0.00000000000E+00  0.00000000000E+00  0.56485606532E+03  0.56485606532E+03  0.25500000000E-02 0.  1.
          2   -1    0    0  501    0  0.00000000000E+00 -0.00000000000E+00 -0.15929801737E+04  0.15929801737E+04  0.25500000000E-02 0. -1.
    8880023    1    1    2    0    0 -0.69956432948E+03 -0.43802598293E+03 -0.52652703140E+03  0.11799567508E+04  0.65864270000E+03 0.  0.
    8880022    1    1    2    0    0  0.69956432948E+03  0.43802598293E+03 -0.50159707702E+03  0.97787948822E+03  0.15294330000E+03 0.  1.
<mgrwt>
<rscale>  0 0.99709026E+03</rscale>
<asrwt>0</asrwt>
<pdfrwt beam="1">  1        2 0.24507387E+00 0.10559674E+04</pdfrwt>
<pdfrwt beam="2">  1       -2 0.86900934E-01 0.10559674E+04</pdfrwt>
<totfact> 0.12785932E+01</totfact>
</mgrwt>
</event>
<event>
 4    1  0.7595604E-007  0.1354940E+04  0.7818608E-02  0.9019511E-01
         -2   -1    0    0    0  501 -0.00000000000E+00  0.00000000000E+00  0.17399596586E+04  0.17399596586E+04  0.25500000000E-02 0.  1.
          2   -1    0    0  501    0  0.00000000000E+00 -0.00000000000E+00 -0.32655257755E+04  0.32655257755E+04  0.25500000000E-02 0. -1.
    8880023    1    1    2    0    0 -0.11839638158E+04  0.16783203653E+02  0.13372371702E+04  0.19036978355E+04  0.65864270000E+03 0.  0.
    8880022    1    1    2    0    0  0.11839638158E+04 -0.16783203653E+02 -0.28628032871E+04  0.31017875986E+04  0.15294330000E+03 0.  0.
<mgrwt>
<rscale>  0 0.13127553E+04</rscale>
<asrwt>0</asrwt>
<pdfrwt beam="1">  1        2 0.50238858E+00 0.13549399E+04</pdfrwt>
<pdfrwt beam="2">  1       -2 0.26768610E+00 0.13549399E+04</pdfrwt>
<totfact> 0.56707510E-02</totfact>
</mgrwt>
</event>
<event>
 4    1  0.7595604E-007  0.6651516E+03  0.7818608E-02  0.1019407E+00
          2   -1    0    0  501    0  0.00000000000E+00  0.00000000000E+00  0.13564999819E+04  0.13564999819E+04  0.25500000000E-02 0. -1.
         -2   -1    0    0    0  501 -0.00000000000E+00 -0.00000000000E+00 -0.13184008443E+03  0.13184008445E+03  0.25500000000E-02 0.  1.
    8880023    1    1    2    0    0 -0.65244828991E+02 -0.66026867827E+02  0.92468285404E+03  0.11390632212E+04  0.65864270000E+03 0.  0.
    8880022    1    1    2    0    0  0.65244828991E+02  0.66026867827E+02  0.29997704342E+03  0.34927684518E+03  0.15294330000E+03 0.  1.
<mgrwt>
<rscale>  0 0.47901371E+03</rscale>
<asrwt>0</asrwt>
<pdfrwt beam="1">  1        2 0.20869229E+00 0.66515159E+03</pdfrwt>
<pdfrwt beam="2">  1       -2 0.20283091E-01 0.66515159E+03</pdfrwt>
<totfact> 0.32438793E+02</totfact>
</mgrwt>
</event>
<event>
 4    1  0.7595604E-007  0.6621567E+03  0.7818608E-02  0.1022048E+00
          2   -1    0    0  501    0  0.00000000000E+00  0.00000000000E+00  0.11318127137E+04  0.11318127137E+04  0.25500000000E-02 0. -1.
         -2   -1    0    0    0  501 -0.00000000000E+00 -0.00000000000E+00 -0.20479702061E+03  0.20479702063E+03  0.25500000000E-02 0.  1.
    8880023    1    1    2    0    0 -0.63882787495E+02  0.23669468177E+02  0.37761425841E+03  0.76226241458E+03  0.65864270000E+03 0.  1.
    8880022    1    1    2    0    0  0.63882787495E+02 -0.23669468177E+02  0.54940143468E+03  0.57434731975E+03  0.15294330000E+03 0.  0.
<mgrwt>
<rscale>  0 0.46954702E+03</rscale>
<asrwt>0</asrwt>
<pdfrwt beam="1">  1        2 0.17412503E+00 0.66215667E+03</pdfrwt>
<pdfrwt beam="2">  1       -2 0.31507234E-01 0.66215667E+03</pdfrwt>
<totfact> 0.19808265E+02</totfact>
</mgrwt>
</event>
<event>
 4    1  0.7595604E-007  0.9599435E+03  0.7818608E-02  0.9435950E-01
         -2   -1    0    0    0  501 -0.00000000000E+00  0.00000000000E+00  0.46422395049E+03  0.46422395050E+03  0.25500000000E-02 0.  1.
          2   -1    0    0  501    0  0.00000000000E+00 -0.00000000000E+00 -0.30771496725E+04  0.30771496725E+04  0.25500000000E-02 0. -1.
    8880023    1    1    2    0    0 -0.68517783250E+03  0.13495436102E+03 -0.14357439492E+03  0.97062101505E+03  0.65864270000E+03 0.  1.
    8880022    1    1    2    0    0  0.68517783250E+03 -0.13495436102E+03 -0.24693513271E+04  0.25707526079E+04  0.15294330000E+03 0.  0.
<mgrwt>
<rscale>  0 0.89175309E+03</rscale>
<asrwt>0</asrwt>
<pdfrwt beam="1">  1        2 0.47340763E+00 0.95994351E+03</pdfrwt>
<pdfrwt beam="2">  1       -2 0.71419071E-01 0.95994351E+03</pdfrwt>
<totfact> 0.28523187E+00</totfact>
</mgrwt>
</event>
<event>
 4    1  0.7595604E-007  0.1000455E+04  0.7818608E-02  0.9380963E-01
          2   -1    0    0  501    0  0.00000000000E+00  0.00000000000E+00  0.12060075238E+04  0.12060075238E+04  0.25500000000E-02 0. -1.
         -2   -1    0    0    0  501 -0.00000000000E+00 -0.00000000000E+00 -0.14678942674E+04  0.14678942674E+04  0.25500000000E-02 0.  1.
    8880023    1    1    2    0    0  0.12114438440E+03  0.74325218655E+03 -0.11335376206E+04  0.15118920326E+04  0.65864270000E+03 0.  1.
    8880022    1    1    2    0    0 -0.12114438440E+03 -0.74325218655E+03  0.87165087705E+03  0.11620097586E+04  0.15294330000E+03 0.  0.
<mgrwt>
<rscale>  0 0.93659068E+03</rscale>
<asrwt>0</asrwt>
<pdfrwt beam="1">  1        2 0.18553962E+00 0.10004549E+04</pdfrwt>
<pdfrwt beam="2">  1       -2 0.22582989E+00 0.10004549E+04</pdfrwt>
<totfact> 0.16959193E+00</totfact>
</mgrwt>
</event>
<event>
 4    1  0.7595604E-007  0.7577561E+03  0.7818608E-02  0.9810952E-01
          2   -1    0    0  501    0  0.00000000000E+00  0.00000000000E+00  0.21780878764E+04  0.21780878764E+04  0.25500000000E-02 0. -1.
         -2   -1    0    0    0  501 -0.00000000000E+00 -0.00000000000E+00 -0.62255228065E+03  0.62255228066E+03  0.25500000000E-02 0.  1.
    8880023    1    1    2    0    0 -0.30225809764E+03  0.22141399777E+03 -0.36276626353E+03  0.84011528031E+03  0.65864270000E+03 0.  1.
    8880022    1    1    2    0    0  0.30225809764E+03 -0.22141399777E+03  0.19183018593E+04  0.19605248767E+04  0.15294330000E+03 0.  0.
<mgrwt>
<rscale>  0 0.64778113E+03</rscale>
<asrwt>0</asrwt>
<pdfrwt beam="1">  1        2 0.33509044E+00 0.75775611E+03</pdfrwt>
<pdfrwt beam="2">  1       -2 0.95777274E-01 0.75775611E+03</pdfrwt>
<totfact> 0.50485107E+00</totfact>
</mgrwt>
</event>
<event>
 4    1  0.7595604E-007  0.7136508E+03  0.7818608E-02  0.9944686E-01
         -2   -1    0    0    0  501 -0.00000000000E+00  0.00000000000E+00  0.46697431357E+03  0.46697431358E+03  0.25500000000E-02 0.  1.
          2   -1    0    0  501    0  0.00000000000E+00 -0.00000000000E+00 -0.71748618401E+03  0.71748618401E+03  0.25500000000E-02 0. -1.
    8880023    1    1    2    0    0 -0.25054710317E+03 -0.11275404408E+03  0.91928318821E+02  0.71954732119E+03  0.65864270000E+03 0.  0.
    8880022    1    1    2    0    0  0.25054710317E+03  0.11275404408E+03 -0.34244018925E+03  0.46491317640E+03  0.15294330000E+03 0.  0.
<mgrwt>
<rscale>  0 0.58143656E+03</rscale>
<asrwt>0</asrwt>
<pdfrwt beam="1">  1        2 0.11038249E+00 0.71365085E+03</pdfrwt>
<pdfrwt beam="2">  1       -2 0.71842202E-01 0.71365085E+03</pdfrwt>
<totfact> 0.70783822E+01</totfact>
</mgrwt>
</event>
<event>
 4    1  0.7595604E-007  0.6884098E+03  0.7818608E-02  0.1004918E+00
          2   -1    0    0  501    0  0.00000000000E+00  0.00000000000E+00  0.75883403635E+03  0.75883403635E+03  0.25500000000E-02 0. -1.
         -2   -1    0    0    0  501 -0.00000000000E+00 -0.00000000000E+00 -0.61775855874E+03  0.61775855875E+03  0.25500000000E-02 0.  1.
    8880023    1    1    2    0    0 -0.13352289514E+03 -0.14922950143E+03 -0.38825653657E+03  0.79034875345E+03  0.65864270000E+03 0.  1.
    8880022    1    1    2    0    0  0.13352289514E+03  0.14922950143E+03  0.52933201418E+03  0.58624384165E+03  0.15294330000E+03 0.  0.
<mgrwt>
<rscale>  0 0.53545500E+03</rscale>
<asrwt>0</asrwt>
<pdfrwt beam="1">  1        2 0.11674370E+00 0.68840977E+03</pdfrwt>
<pdfrwt beam="2">  1       -2 0.95039779E-01 0.68840977E+03</pdfrwt>
<totfact> 0.35048193E+01</totfact>
</mgrwt>
</event>
<event>
 4    1  0.7595604E-007  0.7130686E+03  0.7818608E-02  0.9946778E-01
         -2   -1    0    0    0  501 -0.00000000000E+00  0.00000000000E+00  0.89123150006E+03  0.89123150007E+03  0.25500000000E-02 0.  1.
          2   -1    0    0  501    0  0.00000000000E+00 -0.00000000000E+00 -0.43040649372E+03  0.43040649373E+03  0.25500000000E-02 0. -1.
    8880023    1    1    2    0    0 -0.93953658214E+02  0.25657237039E+03  0.64232431046E+03  0.95971214289E+03  0.65864270000E+03 0.  1.
    8880022    1    1    2    0    0  0.93953658214E+02 -0.25657237039E+03 -0.18149930412E+03  0.36192585090E+03  0.15294330000E+03 0.  0.
<mgrwt>
<rscale>  0 0.58046832E+03</rscale>
<asrwt>0</asrwt>
<pdfrwt beam="1">  1        2 0.66216385E-01 0.71306863E+03</pdfrwt>
<pdfrwt beam="2">  1       -2 0.13711254E+00 0.71306863E+03</pdfrwt>
<totfact> 0.28164619E+01</totfact>
</mgrwt>
</event>
<event>
 4    1  0.7595604E-007  0.6810440E+03  0.7818608E-02  0.1008739E+00
          2   -1    0    0  501    0  0.00000000000E+00  0.00000000000E+00  0.99807185684E+03  0.99807185685E+03  0.25500000000E-02 0. -1.
         -2   -1    0    0    0  501 -0.00000000000E+00 -0.00000000000E+00 -0.46384693994E+03  0.46384693994E+03  0.25500000000E-02 0.  1.
    8880023    1    1    2    0    0 -0.56762229922E+02  0.16367278115E+03 -0.18562314518E+03  0.70588730568E+03  0.65864270000E+03 0.  0.
    8880022    1    1    2    0    0  0.56762229922E+02 -0.16367278115E+03  0.71984806209E+03  0.75603149111E+03  0.15294330000E+03 0. -1.
<mgrwt>
<rscale>  0 0.51978825E+03</rscale>
<asrwt>0</asrwt>
<pdfrwt beam="1">  1        2 0.15354952E+00 0.68104400E+03</pdfrwt>
<pdfrwt beam="2">  1       -2 0.71361068E-01 0.68104400E+03</pdfrwt>
<totfact> 0.46013329E+01</totfact>
</mgrwt>
</event>
<event>
 4    1  0.7595604E-007  0.6639615E+03  0.7818608E-02  0.1020421E+00
          2   -1    0    0  501    0  0.00000000000E+00  0.00000000000E+00  0.98208215241E+03  0.98208215241E+03  0.25500000000E-02 0. -1.
         -2   -1    0    0    0  501 -0.00000000000E+00 -0.00000000000E+00 -0.17959977210E+03  0.17959977212E+03  0.25500000000E-02 0.  1.
    8880023    1    1    2    0    0 -0.82969582494E+02 -0.12275011850E+02  0.66343848127E+03  0.93861357982E+03  0.65864270000E+03 0.  0.
    8880022    1    1    2    0    0  0.82969582494E+02  0.12275011850E+02  0.13904389903E+03  0.22306834470E+03  0.15294330000E+03 0.  1.
<mgrwt>
<rscale>  0 0.47534975E+03</rscale>
<asrwt>0</asrwt>
<pdfrwt beam="1">  1        2 0.15108956E+00 0.66396147E+03</pdfrwt>
<pdfrwt beam="2">  1       -2 0.27630734E-01 0.66396147E+03</pdfrwt>
<totfact> 0.31263324E+02</totfact>
</mgrwt>
</event>
<event>
 4    1  0.7595604E-007  0.8578819E+03  0.7818608E-02  0.9597342E-01
          2   -1    0    0  501    0  0.00000000000E+00  0.00000000000E+00  0.40737387667E+03  0.40737387667E+03  0.25500000000E-02 0. -1.
         -2   -1    0    0    0  501 -0.00000000000E+00 -0.00000000000E+00 -0.21838911488E+04  0.21838911488E+04  0.25500000000E-02 0.  1.
    8880023    1    1    2    0    0  0.10027665505E+03 -0.54045875741E+03 -0.18270850588E+04  0.20184650342E+04  0.65864270000E+03 0.  1.
    8880022    1    1    2    0    0 -0.10027665505E+03  0.54045875741E+03  0.50567786596E+02  0.57279999132E+03  0.15294330000E+03 0.  0.
<mgrwt>
<rscale>  0 0.77472329E+03</rscale>
<asrwt>0</asrwt>
<pdfrwt beam="1">  1        2 0.62672905E-01 0.85788186E+03</pdfrwt>
<pdfrwt beam="2">  1       -2 0.33598325E+00 0.85788186E+03</pdfrwt>
<totfact> 0.15325341E+00</totfact>
</mgrwt>
</event>
<event>
 4    1  0.7595604E-007  0.6610725E+03  0.7818608E-02  0.1023084E+00
         -2   -1    0    0    0  501 -0.00000000000E+00  0.00000000000E+00  0.18356094308E+03  0.18356094310E+03  0.25500000000E-02 0.  1.
          2   -1    0    0  501    0  0.00000000000E+00 -0.00000000000E+00 -0.13435775203E+04  0.13435775203E+04  0.25500000000E-02 0. -1.
    8880023    1    1    2    0    0  0.29916852337E+02 -0.48079900101E+02 -0.45259588807E+03  0.80116161853E+03  0.65864270000E+03 0.  1.
    8880022    1    1    2    0    0 -0.29916852337E+02  0.48079900101E+02 -0.70742068918E+03  0.72597684491E+03  0.15294330000E+03 0.  0.
<mgrwt>
<rscale>  0 0.46590103E+03</rscale>
<asrwt>0</asrwt>
<pdfrwt beam="1">  1        2 0.20670423E+00 0.66107254E+03</pdfrwt>
<pdfrwt beam="2">  1       -2 0.28240146E-01 0.66107254E+03</pdfrwt>
<totfact> 0.18248126E+02</totfact>
</mgrwt>
</event>
<event>
 4    1  0.7595604E-007  0.1126040E+04  0.7818608E-02  0.9232603E-01
         -2   -1    0    0    0  501 -0.00000000000E+00  0.00000000000E+00  0.68977493618E+03  0.68977493619E+03  0.25500000000E-02 0.  1.
          2   -1    0    0  501    0  0.00000000000E+00 -0.00000000000E+00 -0.16182647614E+04  0.16182647614E+04  0.25500000000E-02 0. -1.
    8880023    1    1    2    0    0 -0.32947540982E+03  0.85182322248E+03 -0.23294899084E+03  0.11498835970E+04  0.65864270000E+03 0.  0.
    8880022    1    1    2    0    0  0.32947540982E+03 -0.85182322248E+03 -0.69554083436E+03  0.11581561006E+04  0.15294330000E+03 0.  0.
<mgrwt>
<rscale>  0 0.10723161E+04</rscale>
<asrwt>0</asrwt>
<pdfrwt beam="1">  1        2 0.24896381E+00 0.11260404E+04</pdfrwt>
<pdfrwt beam="2">  1       -2 0.10611922E+00 0.11260404E+04</pdfrwt>
<totfact> 0.76757812E+00</totfact>
</mgrwt>
</event>
<event>
 4    1  0.7595604E-007  0.7430902E+03  0.7818608E-02  0.9851035E-01
         -2   -1    0    0    0  501 -0.00000000000E+00  0.00000000000E+00  0.58180526654E+03  0.58180526654E+03  0.25500000000E-02 0.  1.
          2   -1    0    0  501    0  0.00000000000E+00 -0.00000000000E+00 -0.10300342091E+04  0.10300342091E+04  0.25500000000E-02 0. -1.
    8880023    1    1    2    0    0  0.32704403259E+03  0.10684145614E+03  0.27833904988E+03  0.79350849331E+03  0.65864270000E+03 0.  1.
    8880022    1    1    2    0    0 -0.32704403259E+03 -0.10684145614E+03 -0.72656799249E+03  0.81833098238E+03  0.15294330000E+03 0.  0.
<mgrwt>
<rscale>  0 0.62694165E+03</rscale>
<asrwt>0</asrwt>
<pdfrwt beam="1">  1        2 0.15846680E+00 0.74309024E+03</pdfrwt>
<pdfrwt beam="2">  1       -2 0.89508503E-01 0.74309024E+03</pdfrwt>
<totfact> 0.26238974E+01</totfact>
</mgrwt>
</event>
<event>
 4    1  0.7595604E-007  0.9329152E+03  0.7818608E-02  0.9475134E-01
         -2   -1    0    0    0  501 -0.00000000000E+00  0.00000000000E+00  0.16564057206E+04  0.16564057206E+04  0.25500000000E-02 0.  1.
          2   -1    0    0  501    0  0.00000000000E+00 -0.00000000000E+00 -0.33288822604E+04  0.33288822604E+04  0.25500000000E-02 0. -1.
    8880023    1    1    2    0    0  0.36243380278E+03 -0.55241489718E+03  0.14861384798E+04  0.17546903622E+04  0.65864270000E+03 0.  1.
    8880022    1    1    2    0    0 -0.36243380278E+03  0.55241489718E+03 -0.31586150195E+04  0.32305976188E+04  0.15294330000E+03 0.  0.
<mgrwt>
<rscale>  0 0.86142202E+03</rscale>
<asrwt>0</asrwt>
<pdfrwt beam="1">  1        2 0.51213573E+00 0.93291515E+03</pdfrwt>
<pdfrwt beam="2">  1       -2 0.25483165E+00 0.93291515E+03</pdfrwt>
<totfact> 0.67006550E-02</totfact>
</mgrwt>
</event>
<event>
 4    1  0.7595604E-007  0.7913773E+03  0.7818608E-02  0.9729760E-01
         -2   -1    0    0    0  501 -0.00000000000E+00  0.00000000000E+00  0.25340128379E+03  0.25340128380E+03  0.25500000000E-02 0.  1.
          2   -1    0    0  501    0  0.00000000000E+00 -0.00000000000E+00 -0.20076743786E+04  0.20076743786E+04  0.25500000000E-02 0. -1.
    8880023    1    1    2    0    0  0.93422062922E+02 -0.42864928563E+03 -0.53225244888E+03  0.95371419593E+03  0.65864270000E+03 0.  0.
    8880022    1    1    2    0    0 -0.93422062922E+02  0.42864928563E+03 -0.12220206459E+04  0.13073614665E+04  0.15294330000E+03 0.  0.
<mgrwt>
<rscale>  0 0.69272222E+03</rscale>
<asrwt>0</asrwt>
<pdfrwt beam="1">  1        2 0.30887297E+00 0.79137734E+03</pdfrwt>
<pdfrwt beam="2">  1       -2 0.38984814E-01 0.79137734E+03</pdfrwt>
<totfact> 0.42209713E+01</totfact>
</mgrwt>
</event>
<event>
 4    1  0.7595604E-007  0.9761073E+03  0.7818608E-02  0.9413506E-01
          2   -1    0    0  501    0  0.00000000000E+00  0.00000000000E+00  0.88543543142E+03  0.88543543142E+03  0.25500000000E-02 0. -1.
         -2   -1    0    0    0  501 -0.00000000000E+00 -0.00000000000E+00 -0.18612340281E+04  0.18612340281E+04  0.25500000000E-02 0.  1.
    8880023    1    1    2    0    0 -0.69588332485E+03  0.18633758230E+03 -0.15370002632E+04  0.18207567964E+04  0.65864270000E+03 0.  1.
    8880022    1    1    2    0    0  0.69588332485E+03 -0.18633758230E+03  0.56120166645E+03  0.92591266317E+03  0.15294330000E+03 0.  0.
<mgrwt>
<rscale>  0 0.90972437E+03</rscale>
<asrwt>0</asrwt>
<pdfrwt beam="1">  1        2 0.13622084E+00 0.97610732E+03</pdfrwt>
<pdfrwt beam="2">  1       -2 0.28634370E+00 0.97610732E+03</pdfrwt>
<totfact> 0.11617550E+00</totfact>
</mgrwt>
</event>
<event>
 4    1  0.7595604E-007  0.1080350E+04  0.7818608E-02  0.9283256E-01
         -2   -1    0    0    0  501 -0.00000000000E+00  0.00000000000E+00  0.90954242709E+03  0.90954242710E+03  0.25500000000E-02 0.  1.
          2   -1    0    0  501    0  0.00000000000E+00 -0.00000000000E+00 -0.11092355638E+04  0.11092355638E+04  0.25500000000E-02 0. -1.
    8880023    1    1    2    0    0 -0.77296104139E+03 -0.36861456571E+03  0.13073195548E+03  0.10882309130E+04  0.65864270000E+03 0. -1.
    8880022    1    1    2    0    0  0.77296104139E+03  0.36861456571E+03 -0.33042509215E+03  0.93054707786E+03  0.15294330000E+03 0.  0.
<mgrwt>
<rscale>  0 0.10233906E+04</rscale>
<asrwt>0</asrwt>
<pdfrwt beam="1">  1        2 0.17065163E+00 0.10803498E+04</pdfrwt>
<pdfrwt beam="2">  1       -2 0.13992960E+00 0.10803498E+04</pdfrwt>
<totfact> 0.76111679E+00</totfact>
</mgrwt>
</event>
<event>
 4    1  0.7595604E-007  0.6836557E+03  0.7818608E-02  0.1007327E+00
          2   -1    0    0  501    0  0.00000000000E+00  0.00000000000E+00  0.13729284653E+04  0.13729284653E+04  0.25500000000E-02 0. -1.
         -2   -1    0    0    0  501 -0.00000000000E+00 -0.00000000000E+00 -0.16266428615E+03  0.16266428617E+03  0.25500000000E-02 0.  1.
    8880023    1    1    2    0    0 -0.12138334125E+03 -0.13726270603E+03  0.10310906302E+04  0.12371471456E+04  0.65864270000E+03 0. -1.
    8880022    1    1    2    0    0  0.12138334125E+03  0.13726270603E+03  0.17917354900E+03  0.29844560589E+03  0.15294330000E+03 0.  0.
<mgrwt>
<rscale>  0 0.52550960E+03</rscale>
<asrwt>0</asrwt>
<pdfrwt beam="1">  1        2 0.21121977E+00 0.68365574E+03</pdfrwt>
<pdfrwt beam="2">  1       -2 0.25025274E-01 0.68365574E+03</pdfrwt>
<totfact> 0.21837273E+02</totfact>
</mgrwt>
</event>
<event>
 4    1  0.7595604E-007  0.8916089E+03  0.7818608E-02  0.9539638E-01
         -2   -1    0    0    0  501 -0.00000000000E+00  0.00000000000E+00  0.59947680989E+03  0.59947680989E+03  0.25500000000E-02 0.  1.
          2   -1    0    0  501    0  0.00000000000E+00 -0.00000000000E+00 -0.19677081002E+04  0.19677081002E+04  0.25500000000E-02 0. -1.
    8880023    1    1    2    0    0  0.41250820945E+03  0.43702772274E+03  0.17088726800E+03  0.90783749534E+03  0.65864270000E+03 0.  1.
    8880022    1    1    2    0    0 -0.41250820945E+03 -0.43702772274E+03 -0.15391185583E+04  0.16593474148E+04  0.15294330000E+03 0.  0.
<mgrwt>
<rscale>  0 0.81423470E+03</rscale>
<asrwt>0</asrwt>
<pdfrwt beam="1">  1        2 0.30272432E+00 0.89160892E+03</pdfrwt>
<pdfrwt beam="2">  1       -2 0.92227203E-01 0.89160892E+03</pdfrwt>
<totfact> 0.70523566E+00</totfact>
</mgrwt>
</event>
<event>
 4    1  0.7595604E-007  0.7381559E+03  0.7818608E-02  0.9865352E-01
          2   -1    0    0  501    0  0.00000000000E+00  0.00000000000E+00  0.90912336635E+03  0.90912336635E+03  0.25500000000E-02 0. -1.
         -2   -1    0    0    0  501 -0.00000000000E+00 -0.00000000000E+00 -0.40421069070E+03  0.40421069071E+03  0.25500000000E-02 0.  1.
    8880023    1    1    2    0    0 -0.11532872373E+03 -0.31267099950E+03  0.65547713448E+02  0.74106044116E+03  0.65864270000E+03 0.  1.
    8880022    1    1    2    0    0  0.11532872373E+03  0.31267099950E+03  0.43936496219E+03  0.57227361591E+03  0.15294330000E+03 0.  0.
<mgrwt>
<rscale>  0 0.61970269E+03</rscale>
<asrwt>0</asrwt>
<pdfrwt beam="1">  1        2 0.13986513E+00 0.73815586E+03</pdfrwt>
<pdfrwt beam="2">  1       -2 0.62186261E-01 0.73815586E+03</pdfrwt>
<totfact> 0.70420094E+01</totfact>
</mgrwt>
</event>
<event>
 4    1  0.7595604E-007  0.6722150E+03  0.7818608E-02  0.1014122E+00
         -2   -1    0    0    0  501 -0.00000000000E+00  0.00000000000E+00  0.99599453067E+02  0.99599453100E+02  0.25500000000E-02 0.  1.
          2   -1    0    0  501    0  0.00000000000E+00 -0.00000000000E+00 -0.24457716736E+04  0.24457716736E+04  0.25500000000E-02 0. -1.
    8880023    1    1    2    0    0  0.63127157229E+02  0.11864996761E+03 -0.11505007104E+04  0.13324882528E+04  0.65864270000E+03 0.  1.
    8880022    1    1    2    0    0 -0.63127157229E+02 -0.11864996761E+03 -0.11956715101E+04  0.12128828740E+04  0.15294330000E+03 0.  0.
<mgrwt>
<rscale>  0 0.49868653E+03</rscale>
<asrwt>0</asrwt>
<pdfrwt beam="1">  1        2 0.37627252E+00 0.67221504E+03</pdfrwt>
<pdfrwt beam="2">  1       -2 0.15322995E-01 0.67221504E+03</pdfrwt>
<totfact> 0.13222019E+02</totfact>
</mgrwt>
</event>
<event>
 4    1  0.7595604E-007  0.7854748E+03  0.7818608E-02  0.9743130E-01
          2   -1    0    0  501    0  0.00000000000E+00  0.00000000000E+00  0.12436767904E+04  0.12436767904E+04  0.25500000000E-02 0. -1.
         -2   -1    0    0    0  501 -0.00000000000E+00 -0.00000000000E+00 -0.69386150192E+03  0.69386150193E+03  0.25500000000E-02 0.  1.
    8880023    1    1    2    0    0  0.27611246861E+03 -0.32698978431E+03 -0.40230651017E+03  0.88250844118E+03  0.65864270000E+03 0.  1.
    8880022    1    1    2    0    0 -0.27611246861E+03  0.32698978431E+03  0.95212179863E+03  0.10550298511E+04  0.15294330000E+03 0.  0.
<mgrwt>
<rscale>  0 0.68505884E+03</rscale>
<asrwt>0</asrwt>
<pdfrwt beam="1">  1        2 0.19133489E+00 0.78547477E+03</pdfrwt>
<pdfrwt beam="2">  1       -2 0.10674793E+00 0.78547477E+03</pdfrwt>
<totfact> 0.12803615E+01</totfact>
</mgrwt>
</event>
<event>
 4    1  0.7595604E-007  0.9654613E+03  0.7818608E-02  0.9428209E-01
          2   -1    0    0  501    0  0.00000000000E+00  0.00000000000E+00  0.24509853126E+04  0.24509853127E+04  0.25500000000E-02 0. -1.
         -2   -1    0    0    0  501 -0.00000000000E+00 -0.00000000000E+00 -0.29675126017E+03  0.29675126018E+03  0.25500000000E-02 0.  1.
    8880023    1    1    2    0    0  0.49709910682E+03 -0.50119630018E+03  0.10324177851E+04  0.14135069658E+04  0.65864270000E+03 0.  0.
    8880022    1    1    2    0    0 -0.49709910682E+03  0.50119630018E+03  0.11218162674E+04  0.13342296070E+04  0.15294330000E+03 0.  1.
<mgrwt>
<rscale>  0 0.89790094E+03</rscale>
<asrwt>0</asrwt>
<pdfrwt beam="1">  1        2 0.37707466E+00 0.96546127E+03</pdfrwt>
<pdfrwt beam="2">  1       -2 0.45654040E-01 0.96546127E+03</pdfrwt>
<totfact> 0.17165331E+01</totfact>
</mgrwt>
</event>
<event>
 4    1  0.7595604E-007  0.9684955E+03  0.7818608E-02  0.9423988E-01
         -2   -1    0    0    0  501 -0.00000000000E+00  0.00000000000E+00  0.55008392387E+03  0.55008392387E+03  0.25500000000E-02 0.  1.
          2   -1    0    0  501    0  0.00000000000E+00 -0.00000000000E+00 -0.20072927992E+04  0.20072927992E+04  0.25500000000E-02 0. -1.
    8880023    1    1    2    0    0 -0.24914145049E+03 -0.66490734811E+03 -0.45251980780E+02  0.96955205737E+03  0.65864270000E+03 0. -1.
    8880022    1    1    2    0    0  0.24914145049E+03  0.66490734811E+03 -0.14119568945E+04  0.15878246657E+04  0.15294330000E+03 0.  0.
<mgrwt>
<rscale>  0 0.90127573E+03</rscale>
<asrwt>0</asrwt>
<pdfrwt beam="1">  1        2 0.30881427E+00 0.96849546E+03</pdfrwt>
<pdfrwt beam="2">  1       -2 0.84628297E-01 0.96849546E+03</pdfrwt>
<totfact> 0.81002997E+00</totfact>
</mgrwt>
</event>
<event>
 4    1  0.7595604E-007  0.7979305E+03  0.7818608E-02  0.9715289E-01
         -2   -1    0    0    0  501 -0.00000000000E+00  0.00000000000E+00  0.17631938322E+03  0.17631938324E+03  0.25500000000E-02 0.  1.
          2   -1    0    0  501    0  0.00000000000E+00 -0.00000000000E+00 -0.24807899295E+04  0.24807899295E+04  0.25500000000E-02 0. -1.
    8880023    1    1    2    0    0  0.32528954592E+03  0.31155983679E+03 -0.10746096130E+04  0.13384613731E+04  0.65864270000E+03 0.  1.
    8880022    1    1    2    0    0 -0.32528954592E+03 -0.31155983679E+03 -0.12298609333E+04  0.13186479397E+04  0.15294330000E+03 0.  0.
<mgrwt>
<rscale>  0 0.70113756E+03</rscale>
<asrwt>0</asrwt>
<pdfrwt beam="1">  1        2 0.38165996E+00 0.79793046E+03</pdfrwt>
<pdfrwt beam="2">  1       -2 0.27126061E-01 0.79793046E+03</pdfrwt>
<totfact> 0.45625117E+01</totfact>
</mgrwt>
</event>
<event>
 4    1  0.7595604E-007  0.9778121E+03  0.7818608E-02  0.9411180E-01
          2   -1    0    0  501    0  0.00000000000E+00  0.00000000000E+00  0.23292904716E+04  0.23292904716E+04  0.25500000000E-02 0. -1.
         -2   -1    0    0    0  501 -0.00000000000E+00 -0.00000000000E+00 -0.70838545461E+03  0.70838545462E+03  0.25500000000E-02 0.  1.
    8880023    1    1    2    0    0  0.57004391583E+03  0.44424796711E+03  0.19860007970E+04  0.22136656691E+04  0.65864270000E+03 0. -1.
    8880022    1    1    2    0    0 -0.57004391583E+03 -0.44424796711E+03 -0.36509578006E+03  0.82401025715E+03  0.15294330000E+03 0.  0.
<mgrwt>
<rscale>  0 0.91161319E+03</rscale>
<asrwt>0</asrwt>
<pdfrwt beam="1">  1        2 0.35835237E+00 0.97781211E+03</pdfrwt>
<pdfrwt beam="2">  1       -2 0.10898238E+00 0.97781211E+03</pdfrwt>
<totfact> 0.29550921E+00</totfact>
</mgrwt>
</event>
<event>
 4    1  0.7595604E-007  0.7231000E+03  0.7818608E-02  0.9912233E-01
          2   -1    0    0  501    0  0.00000000000E+00  0.00000000000E+00  0.78517020249E+03  0.78517020249E+03  0.25500000000E-02 0. -1.
         -2   -1    0    0    0  501 -0.00000000000E+00 -0.00000000000E+00 -0.46235884314E+03  0.46235884315E+03  0.25500000000E-02 0.  1.
    8880023    1    1    2    0    0  0.77037326272E+02 -0.28832043677E+03 -0.75291390373E+02  0.72700923215E+03  0.65864270000E+03 0.  0.
    8880022    1    1    2    0    0 -0.77037326272E+02  0.28832043677E+03  0.39810274972E+03  0.52051981350E+03  0.15294330000E+03 0.  0.
<mgrwt>
<rscale>  0 0.59672078E+03</rscale>
<asrwt>0</asrwt>
<pdfrwt beam="1">  1        2 0.12079542E+00 0.72310001E+03</pdfrwt>
<pdfrwt beam="2">  1       -2 0.71132130E-01 0.72310001E+03</pdfrwt>
<totfact> 0.64343757E+01</totfact>
</mgrwt>
</event>
<event>
 4    1  0.7595604E-007  0.8765042E+03  0.7818608E-02  0.9564854E-01
         -2   -1    0    0    0  501 -0.00000000000E+00  0.00000000000E+00  0.40007726763E+03  0.40007726764E+03  0.25500000000E-02 0.  1.
          2   -1    0    0  501    0  0.00000000000E+00 -0.00000000000E+00 -0.16519451261E+04  0.16519451261E+04  0.25500000000E-02 0. -1.
    8880023    1    1    2    0    0  0.53661647377E+03  0.21562050005E+03 -0.29738931760E+03  0.92558092701E+03  0.65864270000E+03 0.  0.
    8880022    1    1    2    0    0 -0.53661647377E+03 -0.21562050005E+03 -0.95447854082E+03  0.11264414667E+04  0.15294330000E+03 0.  0.
<mgrwt>
<rscale>  0 0.79666692E+03</rscale>
<asrwt>0</asrwt>
<pdfrwt beam="1">  1        2 0.25414540E+00 0.87650422E+03</pdfrwt>
<pdfrwt beam="2">  1       -2 0.61550350E-01 0.87650422E+03</pdfrwt>
<totfact> 0.25890829E+01</totfact>
</mgrwt>
</event>
<event>
 4    1  0.7595604E-007  0.8844029E+03  0.7818608E-02  0.9551548E-01
         -2   -1    0    0    0  501 -0.00000000000E+00  0.00000000000E+00  0.27024274670E+03  0.27024274671E+03  0.25500000000E-02 0.  1.
          2   -1    0    0  501    0  0.00000000000E+00 -0.00000000000E+00 -0.26436130495E+04  0.26436130495E+04  0.25500000000E-02 0. -1.
    8880023    1    1    2    0    0  0.32784405758E+03 -0.49079184641E+03 -0.68466550094E+03  0.11184522417E+04  0.65864270000E+03 0.  1.
    8880022    1    1    2    0    0 -0.32784405758E+03  0.49079184641E+03 -0.16887048019E+04  0.17954035545E+04  0.15294330000E+03 0.  0.
<mgrwt>
<rscale>  0 0.80587746E+03</rscale>
<asrwt>0</asrwt>
<pdfrwt beam="1">  1        2 0.40670968E+00 0.88440294E+03</pdfrwt>
<pdfrwt beam="2">  1       -2 0.41575809E-01 0.88440294E+03</pdfrwt>
<totfact> 0.16191898E+01</totfact>
</mgrwt>
</event>
<event>
 4    1  0.7595604E-007  0.8457552E+03  0.7818608E-02  0.9619422E-01
         -2   -1    0    0    0  501 -0.00000000000E+00  0.00000000000E+00  0.66107444874E+03  0.66107444874E+03  0.25500000000E-02 0.  1.
          2   -1    0    0  501    0  0.00000000000E+00 -0.00000000000E+00 -0.10331744818E+04  0.10331744818E+04  0.25500000000E-02 0. -1.
    8880023    1    1    2    0    0  0.31567575010E+03  0.42642757607E+03  0.23082731522E+03  0.87668872044E+03  0.65864270000E+03 0.  1.
    8880022    1    1    2    0    0 -0.31567575010E+03 -0.42642757607E+03 -0.60292734830E+03  0.81756021012E+03  0.15294330000E+03 0.  0.
<mgrwt>
<rscale>  0 0.76023912E+03</rscale>
<asrwt>0</asrwt>
<pdfrwt beam="1">  1        2 0.15894992E+00 0.84575520E+03</pdfrwt>
<pdfrwt beam="2">  1       -2 0.10170376E+00 0.84575520E+03</pdfrwt>
<totfact> 0.19171008E+01</totfact>
</mgrwt>
</event>
<event>
 4    1  0.7595604E-007  0.1286759E+04  0.7818608E-02  0.9077079E-01
          2   -1    0    0  501    0  0.00000000000E+00  0.00000000000E+00  0.40455381786E+04  0.40455381786E+04  0.25500000000E-02 0. -1.
         -2   -1    0    0    0  501 -0.00000000000E+00 -0.00000000000E+00 -0.55235261449E+03  0.55235261450E+03  0.25500000000E-02 0.  1.
    8880023    1    1    2    0    0  0.10086751940E+04  0.45223147831E+03  0.46095742426E+03  0.13668324368E+04  0.65864270000E+03 0.  0.
    8880022    1    1    2    0    0 -0.10086751940E+04 -0.45223147831E+03  0.30322281398E+04  0.32310583563E+04  0.15294330000E+03 0.  0.
<mgrwt>
<rscale>  0 0.12417482E+04</rscale>
<asrwt>0</asrwt>
<pdfrwt beam="1">  1        2 0.62239051E+00 0.12867592E+04</pdfrwt>
<pdfrwt beam="2">  1       -2 0.84977322E-01 0.12867592E+04</pdfrwt>
<totfact> 0.37991989E-01</totfact>
</mgrwt>
</event>
<event>
 4    1  0.7595604E-007  0.7757870E+03  0.7818608E-02  0.9765828E-01
         -2   -1    0    0    0  501 -0.00000000000E+00  0.00000000000E+00  0.73363833347E+03  0.73363833347E+03  0.25500000000E-02 0.  1.
          2   -1    0    0  501    0  0.00000000000E+00 -0.00000000000E+00 -0.90788346397E+03  0.90788346397E+03  0.25500000000E-02 0. -1.
    8880023    1    1    2    0    0 -0.19600648443E+03  0.36002312764E+03 -0.63764545386E+03  0.10042097019E+04  0.65864270000E+03 0.  0.
    8880022    1    1    2    0    0  0.19600648443E+03 -0.36002312764E+03  0.46340032336E+03  0.63731209551E+03  0.15294330000E+03 0.  0.
<mgrwt>
<rscale>  0 0.67229087E+03</rscale>
<asrwt>0</asrwt>
<pdfrwt beam="1">  1        2 0.13967438E+00 0.77578696E+03</pdfrwt>
<pdfrwt beam="2">  1       -2 0.11286744E+00 0.77578696E+03</pdfrwt>
<totfact> 0.18108832E+01</totfact>
</mgrwt>
</event>
<event>
 4    1  0.7595604E-007  0.7479217E+03  0.7818608E-02  0.9837445E-01
          2   -1    0    0  501    0  0.00000000000E+00  0.00000000000E+00  0.23547946849E+04  0.23547946849E+04  0.25500000000E-02 0. -1.
         -2   -1    0    0    0  501 -0.00000000000E+00 -0.00000000000E+00 -0.14380766574E+03  0.14380766576E+03  0.25500000000E-02 0.  1.
    8880023    1    1    2    0    0 -0.14960205103E+03 -0.32124124674E+03  0.11727540817E+04  0.13909489763E+04  0.65864270000E+03 0.  1.
    8880022    1    1    2    0    0  0.14960205103E+03  0.32124124674E+03  0.10382329375E+04  0.11076533744E+04  0.15294330000E+03 0.  0.
<mgrwt>
<rscale>  0 0.63391185E+03</rscale>
<asrwt>0</asrwt>
<pdfrwt beam="1">  1        2 0.36227610E+00 0.74792173E+03</pdfrwt>
<pdfrwt beam="2">  1       -2 0.22124256E-01 0.74792173E+03</pdfrwt>
<totfact> 0.77997115E+01</totfact>
</mgrwt>
</event>
<event>
 4    1  0.7595604E-007  0.1042895E+04  0.7818608E-02  0.9327471E-01
         -2   -1    0    0    0  501 -0.00000000000E+00  0.00000000000E+00  0.80010103065E+03  0.80010103065E+03  0.25500000000E-02 0.  1.
          2   -1    0    0  501    0  0.00000000000E+00 -0.00000000000E+00 -0.11693460428E+04  0.11693460428E+04  0.25500000000E-02 0. -1.
    8880023    1    1    2    0    0 -0.35019039393E+03 -0.72882600934E+03  0.53534989239E+02  0.10442685791E+04  0.65864270000E+03 0.  0.
    8880022    1    1    2    0    0  0.35019039393E+03  0.72882600934E+03 -0.42278000142E+03  0.92517849441E+03  0.15294330000E+03 0.  0.
<mgrwt>
<rscale>  0 0.98292680E+03</rscale>
<asrwt>0</asrwt>
<pdfrwt beam="1">  1        2 0.17989939E+00 0.10428954E+04</pdfrwt>
<pdfrwt beam="2">  1       -2 0.12309247E+00 0.10428954E+04</pdfrwt>
<totfact> 0.97353555E+00</totfact>
</mgrwt>
</event>
<event>
 4    1  0.7595604E-007  0.6929275E+03  0.7818608E-02  0.1002791E+00
          2   -1    0    0  501    0  0.00000000000E+00  0.00000000000E+00  0.13442935186E+04  0.13442935186E+04  0.25500000000E-02 0. -1.
         -2   -1    0    0    0  501 -0.00000000000E+00 -0.00000000000E+00 -0.17396447023E+03  0.17396447025E+03  0.25500000000E-02 0.  1.
    8880023    1    1    2    0    0  0.19561924249E+03 -0.89840812930E+02  0.74340098227E+03  0.10162644766E+04  0.65864270000E+03 0.  1.
    8880022    1    1    2    0    0 -0.19561924249E+03  0.89840812930E+02  0.42692806613E+03  0.50199351227E+03  0.15294330000E+03 0.  0.
<mgrwt>
<rscale>  0 0.54443147E+03</rscale>
<asrwt>0</asrwt>
<pdfrwt beam="1">  1        2 0.20681439E+00 0.69292746E+03</pdfrwt>
<pdfrwt beam="2">  1       -2 0.26763764E-01 0.69292746E+03</pdfrwt>
<totfact> 0.20060165E+02</totfact>
</mgrwt>
</event>
<event>
 4    1  0.7595604E-007  0.6747441E+03  0.7818608E-02  0.1012468E+00
         -2   -1    0    0    0  501 -0.00000000000E+00  0.00000000000E+00  0.33368642763E+03  0.33368642764E+03  0.25500000000E-02 0.  1.
          2   -1    0    0  501    0  0.00000000000E+00 -0.00000000000E+00 -0.65569110609E+03  0.65569110610E+03  0.25500000000E-02 0. -1.
    8880023    1    1    2    0    0  0.10924744732E+03 -0.97644006982E+02 -0.99256935159E+02  0.68200550019E+03  0.65864270000E+03 0.  1.
    8880022    1    1    2    0    0 -0.10924744732E+03  0.97644006982E+02 -0.22274774330E+03  0.30737203355E+03  0.15294330000E+03 0.  1.
<mgrwt>
<rscale>  0 0.50505414E+03</rscale>
<asrwt>0</asrwt>
<pdfrwt beam="1">  1        2 0.10087555E+00 0.67474407E+03</pdfrwt>
<pdfrwt beam="2">  1       -2 0.51336374E-01 0.67474407E+03</pdfrwt>
<totfact> 0.16175520E+02</totfact>
</mgrwt>
</event>
<event>
 4    1  0.7595604E-007  0.9957414E+03  0.7818608E-02  0.9387150E-01
          2   -1    0    0  501    0  0.00000000000E+00  0.00000000000E+00  0.30984261735E+04  0.30984261735E+04  0.25500000000E-02 0. -1.
         -2   -1    0    0    0  501 -0.00000000000E+00 -0.00000000000E+00 -0.42836249435E+03  0.42836249436E+03  0.25500000000E-02 0.  1.
    8880023    1    1    2    0    0  0.74557328708E+03 -0.42558968765E+02  0.30423110292E+03  0.10411808500E+04  0.65864270000E+03 0.  1.
    8880022    1    1    2    0    0 -0.74557328708E+03  0.42558968765E+02  0.23658325762E+04  0.24856078178E+04  0.15294330000E+03 0.  0.
<mgrwt>
<rscale>  0 0.93140733E+03</rscale>
<asrwt>0</asrwt>
<pdfrwt beam="1">  1        2 0.47668094E+00 0.99574143E+03</pdfrwt>
<pdfrwt beam="2">  1       -2 0.65901924E-01 0.99574143E+03</pdfrwt>
<totfact> 0.32781482E+00</totfact>
</mgrwt>
</event>
<event>
 4    1  0.7595604E-007  0.9687190E+03  0.7818608E-02  0.9423678E-01
          2   -1    0    0  501    0  0.00000000000E+00  0.00000000000E+00  0.18501429632E+04  0.18501429632E+04  0.25500000000E-02 0. -1.
         -2   -1    0    0    0  501 -0.00000000000E+00 -0.00000000000E+00 -0.82388898075E+03  0.82388898075E+03  0.25500000000E-02 0.  1.
    8880023    1    1    2    0    0 -0.65946454483E+03  0.26403188541E+03 -0.41972923140E+03  0.10557410461E+04  0.65864270000E+03 0.  1.
    8880022    1    1    2    0    0  0.65946454483E+03 -0.26403188541E+03  0.14459832139E+04  0.16182908979E+04  0.15294330000E+03 0.  0.
<mgrwt>
<rscale>  0 0.90152422E+03</rscale>
<asrwt>0</asrwt>
<pdfrwt beam="1">  1        2 0.28463738E+00 0.96871901E+03</pdfrwt>
<pdfrwt beam="2">  1       -2 0.12675215E+00 0.96871901E+03</pdfrwt>
<totfact> 0.37496578E+00</totfact>
</mgrwt>
</event>
<event>
 4    1  0.7595604E-007  0.7056277E+03  0.7818608E-02  0.9974610E-01
         -2   -1    0    0    0  501 -0.00000000000E+00  0.00000000000E+00  0.56358164956E+03  0.56358164956E+03  0.25500000000E-02 0.  1.
          2   -1    0    0  501    0  0.00000000000E+00 -0.00000000000E+00 -0.73819478663E+03  0.73819478663E+03  0.25500000000E-02 0. -1.
    8880023    1    1    2    0    0 -0.70740526703E+02 -0.24309660595E+03  0.28021172382E+03  0.75922921333E+03  0.65864270000E+03 0.  0.
    8880022    1    1    2    0    0  0.70740526703E+02  0.24309660595E+03 -0.45482486089E+03  0.54254722287E+03  0.15294330000E+03 0.  0.
<mgrwt>
<rscale>  0 0.56777679E+03</rscale>
<asrwt>0</asrwt>
<pdfrwt beam="1">  1        2 0.11356843E+00 0.70562766E+03</pdfrwt>
<pdfrwt beam="2">  1       -2 0.86704869E-01 0.70562766E+03</pdfrwt>
<totfact> 0.44824459E+01</totfact>
</mgrwt>
</event>
<event>
 4    1  0.7595604E-007  0.6887456E+03  0.7818608E-02  0.1004755E+00
          2   -1    0    0  501    0  0.00000000000E+00  0.00000000000E+00  0.37246049199E+03  0.37246049200E+03  0.25500000000E-02 0. -1.
         -2   -1    0    0    0  501 -0.00000000000E+00 -0.00000000000E+00 -0.84793494539E+03  0.84793494539E+03  0.25500000000E-02 0.  1.
    8880023    1    1    2    0    0  0.64968328825E+02  0.19062916457E+03 -0.62207461025E+03  0.92808802875E+03  0.65864270000E+03 0.  1.
    8880022    1    1    2    0    0 -0.64968328825E+02 -0.19062916457E+03  0.14660015685E+03  0.29230740863E+03  0.15294330000E+03 0.  0.
<mgrwt>
<rscale>  0 0.53613719E+03</rscale>
<asrwt>0</asrwt>
<pdfrwt beam="1">  1        2 0.57301615E-01 0.68874565E+03</pdfrwt>
<pdfrwt beam="2">  1       -2 0.13045153E+00 0.68874565E+03</pdfrwt>
<totfact> 0.37687327E+01</totfact>
</mgrwt>
</event>
<event>
 4    1  0.7595604E-007  0.7135862E+03  0.7818608E-02  0.9944918E-01
          2   -1    0    0  501    0  0.00000000000E+00  0.00000000000E+00  0.19125634033E+04  0.19125634033E+04  0.25500000000E-02 0. -1.
         -2   -1    0    0    0  501 -0.00000000000E+00 -0.00000000000E+00 -0.16328622401E+03  0.16328622403E+03  0.25500000000E-02 0.  1.
    8880023    1    1    2    0    0  0.20353730765E+03  0.18430290815E+03  0.78132121860E+03  0.10581436814E+04  0.65864270000E+03 0.  1.
    8880022    1    1    2    0    0 -0.20353730765E+03 -0.18430290815E+03  0.96795596072E+03  0.10177059460E+04  0.15294330000E+03 0.  0.
<mgrwt>
<rscale>  0 0.58132914E+03</rscale>
<asrwt>0</asrwt>
<pdfrwt beam="1">  1        2 0.29424054E+00 0.71358616E+03</pdfrwt>
<pdfrwt beam="2">  1       -2 0.25120957E-01 0.71358616E+03</pdfrwt>
<totfact> 0.10915284E+02</totfact>
</mgrwt>
</event>
<event>
 4    1  0.7595604E-007  0.7340013E+03  0.7818608E-02  0.9877779E-01
         -2   -1    0    0    0  501 -0.00000000000E+00  0.00000000000E+00  0.13674201129E+03  0.13674201132E+03  0.25500000000E-02 0.  1.
          2   -1    0    0  501    0  0.00000000000E+00 -0.00000000000E+00 -0.46202470648E+04  0.46202470648E+04  0.25500000000E-02 0. -1.
    8880023    1    1    2    0    0  0.30936898421E+03  0.96116933028E+02 -0.92662355013E+03  0.11821121111E+04  0.65864270000E+03 0.  1.
    8880022    1    1    2    0    0 -0.30936898421E+03 -0.96116933028E+02 -0.35568815034E+04  0.35748769651E+04  0.15294330000E+03 0.  0.
<mgrwt>
<rscale>  0 0.61350422E+03</rscale>
<asrwt>0</asrwt>
<pdfrwt beam="1">  1        2 0.71080712E+00 0.73400125E+03</pdfrwt>
<pdfrwt beam="2">  1       -2 0.21037236E-01 0.73400125E+03</pdfrwt>
<totfact> 0.20843829E+00</totfact>
</mgrwt>
</event>
<event>
 4    1  0.7595604E-007  0.6840882E+03  0.7818608E-02  0.1007100E+00
          2   -1    0    0  501    0  0.00000000000E+00  0.00000000000E+00  0.10938679989E+04  0.10938679989E+04  0.25500000000E-02 0. -1.
         -2   -1    0    0    0  501 -0.00000000000E+00 -0.00000000000E+00 -0.20654123047E+03  0.20654123049E+03  0.25500000000E-02 0.  1.
    8880023    1    1    2    0    0  0.17737027089E+03  0.52021136071E+02  0.78028572986E+03  0.10377005532E+04  0.65864270000E+03 0.  0.
    8880022    1    1    2    0    0 -0.17737027089E+03 -0.52021136071E+02  0.10704103855E+03  0.26270867619E+03  0.15294330000E+03 0. -1.
<mgrwt>
<rscale>  0 0.52643812E+03</rscale>
<asrwt>0</asrwt>
<pdfrwt beam="1">  1        2 0.16828738E+00 0.68408817E+03</pdfrwt>
<pdfrwt beam="2">  1       -2 0.31775574E-01 0.68408817E+03</pdfrwt>
<totfact> 0.20526860E+02</totfact>
</mgrwt>
</event>
<event>
 4    1  0.7595604E-007  0.7360178E+03  0.7818608E-02  0.9871703E-01
         -2   -1    0    0    0  501 -0.00000000000E+00  0.00000000000E+00  0.20402465678E+03  0.20402465679E+03  0.25500000000E-02 0.  1.
          2   -1    0    0  501    0  0.00000000000E+00 -0.00000000000E+00 -0.15073372799E+04  0.15073372799E+04  0.25500000000E-02 0. -1.
    8880023    1    1    2    0    0  0.28133057385E+03 -0.16960270630E+03 -0.75723206334E+03  0.10559936429E+04  0.65864270000E+03 0.  0.
    8880022    1    1    2    0    0 -0.28133057385E+03  0.16960270630E+03 -0.54608055977E+03  0.65536829382E+03  0.15294330000E+03 0.  0.
<mgrwt>
<rscale>  0 0.61652518E+03</rscale>
<asrwt>0</asrwt>
<pdfrwt beam="1">  1        2 0.23189804E+00 0.73601778E+03</pdfrwt>
<pdfrwt beam="2">  1       -2 0.31388410E-01 0.73601778E+03</pdfrwt>
<totfact> 0.12062057E+02</totfact>
</mgrwt>
</event>
<event>
 4    1  0.7595604E-007  0.7211131E+03  0.7818608E-02  0.9918838E-01
          2   -1    0    0  501    0  0.00000000000E+00  0.00000000000E+00  0.97408026751E+03  0.97408026751E+03  0.25500000000E-02 0. -1.
         -2   -1    0    0    0  501 -0.00000000000E+00 -0.00000000000E+00 -0.28527253523E+03  0.28527253524E+03  0.25500000000E-02 0.  1.
    8880023    1    1    2    0    0 -0.28368285322E+02  0.29221417765E+03  0.50876732740E+03  0.88252381550E+03  0.65864270000E+03 0. -1.
    8880022    1    1    2    0    0  0.28368285322E+02 -0.29221417765E+03  0.18004040488E+03  0.37682898725E+03  0.15294330000E+03 0.  1.
<mgrwt>
<rscale>  0 0.59356966E+03</rscale>
<asrwt>0</asrwt>
<pdfrwt beam="1">  1        2 0.14985850E+00 0.72111309E+03</pdfrwt>
<pdfrwt beam="2">  1       -2 0.43888082E-01 0.72111309E+03</pdfrwt>
<totfact> 0.13072924E+02</totfact>
</mgrwt>
</event>
<event>
 4    1  0.7595604E-007  0.1101805E+04  0.7818608E-02  0.9259050E-01
          2   -1    0    0  501    0  0.00000000000E+00  0.00000000000E+00  0.28834321255E+04  0.28834321255E+04  0.25500000000E-02 0. -1.
         -2   -1    0    0    0  501 -0.00000000000E+00 -0.00000000000E+00 -0.49382725139E+03  0.49382725140E+03  0.25500000000E-02 0.  1.
    8880023    1    1    2    0    0 -0.67644264667E+03  0.56796868139E+03  0.36102115489E+03  0.11594436415E+04  0.65864270000E+03 0.  0.
    8880022    1    1    2    0    0  0.67644264667E+03 -0.56796868139E+03  0.20285837192E+04  0.22178157354E+04  0.15294330000E+03 0.  0.
<mgrwt>
<rscale>  0 0.10464184E+04</rscale>
<asrwt>0</asrwt>
<pdfrwt beam="1">  1        2 0.44360494E+00 0.11018046E+04</pdfrwt>
<pdfrwt beam="2">  1       -2 0.75973424E-01 0.11018046E+04</pdfrwt>
<totfact> 0.32058746E+00</totfact>
</mgrwt>
</event>
<event>
 4    1  0.7693996E-007  0.6792683E+03  0.7818608E-02  0.1009741E+00
         -2   -1    0    0    0  501 -0.00000000000E+00  0.00000000000E+00  0.75935729890E+03  0.75935729890E+03  0.25500000000E-02 0.  1.
          2   -1    0    0  501    0  0.00000000000E+00 -0.00000000000E+00 -0.16918071630E+04  0.16918071630E+04  0.25500000000E-02 0. -1.
    8880023    1    1    2    0    0 -0.12432807566E+03 -0.11017137650E+03  0.59748810171E+03  0.90465321563E+03  0.65864270000E+03 0.  1.
    8880022    1    1    2    0    0  0.12432807566E+03  0.11017137650E+03 -0.15299379658E+04  0.15465112463E+04  0.15294330000E+03 0.  0.
<mgrwt>
<rscale>  0 0.51577856E+03</rscale>
<asrwt>0</asrwt>
<pdfrwt beam="1">  1        2 0.26027803E+00 0.67926829E+03</pdfrwt>
<pdfrwt beam="2">  1       -2 0.11682420E+00 0.67926829E+03</pdfrwt>
<totfact> 0.58522526E+00</totfact>
</mgrwt>
</event>
<event>
 4    1  0.7595604E-007  0.6704342E+03  0.7818608E-02  0.1015353E+00
          2   -1    0    0  501    0  0.00000000000E+00  0.00000000000E+00  0.20756432107E+04  0.20756432107E+04  0.25500000000E-02 0. -1.
         -2   -1    0    0    0  501 -0.00000000000E+00 -0.00000000000E+00 -0.14526831276E+03  0.14526831279E+03  0.25500000000E-02 0.  1.
    8880023    1    1    2    0    0  0.93651728949E+02 -0.83073493821E+02  0.67968401857E+03  0.95470017444E+03  0.65864270000E+03 0.  0.
    8880022    1    1    2    0    0 -0.93651728949E+02  0.83073493821E+02  0.12506908794E+04  0.12662113491E+04  0.15294330000E+03 0.  0.
<mgrwt>
<rscale>  0 0.49401318E+03</rscale>
<asrwt>0</asrwt>
<pdfrwt beam="1">  1        2 0.31932972E+00 0.67043423E+03</pdfrwt>
<pdfrwt beam="2">  1       -2 0.22348972E-01 0.67043423E+03</pdfrwt>
<totfact> 0.11019270E+02</totfact>
</mgrwt>
</event>
<event>
 4    1  0.7595604E-007  0.9857491E+03  0.7818608E-02  0.9400444E-01
          2   -1    0    0  501    0  0.00000000000E+00  0.00000000000E+00  0.14801683106E+04  0.14801683106E+04  0.25500000000E-02 0. -1.
         -2   -1    0    0    0  501 -0.00000000000E+00 -0.00000000000E+00 -0.15789040133E+04  0.15789040133E+04  0.25500000000E-02 0.  1.
    8880023    1    1    2    0    0  0.70515708784E+03  0.20160482721E+03 -0.13072020296E+04  0.16372166556E+04  0.65864270000E+03 0.  0.
    8880022    1    1    2    0    0 -0.70515708784E+03 -0.20160482721E+03  0.12084663269E+04  0.14218556682E+04  0.15294330000E+03 0.  0.
<mgrwt>
<rscale>  0 0.92039126E+03</rscale>
<asrwt>0</asrwt>
<pdfrwt beam="1">  1        2 0.22771820E+00 0.98574907E+03</pdfrwt>
<pdfrwt beam="2">  1       -2 0.24290831E+00 0.98574907E+03</pdfrwt>
<totfact> 0.92517961E-01</totfact>
</mgrwt>
</event>
<event>
 4    1  0.7595604E-007  0.7516402E+03  0.7818608E-02  0.9827252E-01
         -2   -1    0    0    0  501 -0.00000000000E+00  0.00000000000E+00  0.54129539938E+03  0.54129539939E+03  0.25500000000E-02 0.  1.
          2   -1    0    0  501    0  0.00000000000E+00 -0.00000000000E+00 -0.80374804310E+03  0.80374804310E+03  0.25500000000E-02 0. -1.
    8880023    1    1    2    0    0  0.22614172064E+02 -0.36144344924E+03  0.15945912668E+03  0.76836852299E+03  0.65864270000E+03 0.  1.
    8880022    1    1    2    0    0 -0.22614172064E+02  0.36144344924E+03 -0.42191177039E+03  0.57667491950E+03  0.15294330000E+03 0.  0.
<mgrwt>
<rscale>  0 0.63920352E+03</rscale>
<asrwt>0</asrwt>
<pdfrwt beam="1">  1        2 0.12365354E+00 0.75164019E+03</pdfrwt>
<pdfrwt beam="2">  1       -2 0.83276215E-01 0.75164019E+03</pdfrwt>
<totfact> 0.43805667E+01</totfact>
</mgrwt>
</event>
<event>
 4    1  0.7595604E-007  0.1132194E+04  0.7818608E-02  0.9226031E-01
         -2   -1    0    0    0  501 -0.00000000000E+00  0.00000000000E+00  0.10440952657E+04  0.10440952657E+04  0.25500000000E-02 0.  1.
          2   -1    0    0  501    0  0.00000000000E+00 -0.00000000000E+00 -0.12871596223E+04  0.12871596223E+04  0.25500000000E-02 0. -1.
    8880023    1    1    2    0    0  0.35978475460E+03  0.84770740361E+03  0.39656039612E+03  0.11996346385E+04  0.65864270000E+03 0.  0.
    8880022    1    1    2    0    0 -0.35978475460E+03 -0.84770740361E+03 -0.63962475273E+03  0.11316202495E+04  0.15294330000E+03 0.  0.
<mgrwt>
<rscale>  0 0.10788737E+04</rscale>
<asrwt>0</asrwt>
<pdfrwt beam="1">  1        2 0.19802456E+00 0.11321939E+04</pdfrwt>
<pdfrwt beam="2">  1       -2 0.16063004E+00 0.11321939E+04</pdfrwt>
<totfact> 0.40996457E+00</totfact>
</mgrwt>
</event>
<event>
 4    1  0.7595604E-007  0.1208334E+04  0.7818608E-02  0.9149063E-01
          2   -1    0    0  501    0  0.00000000000E+00  0.00000000000E+00  0.30586364703E+04  0.30586364703E+04  0.25500000000E-02 0. -1.
         -2   -1    0    0    0  501 -0.00000000000E+00 -0.00000000000E+00 -0.65009543761E+03  0.65009543761E+03  0.25500000000E-02 0.  1.
    8880023    1    1    2    0    0 -0.28519536831E+03  0.97207221946E+03  0.13605025706E+03  0.12159690278E+04  0.65864270000E+03 0.  0.
    8880022    1    1    2    0    0  0.28519536831E+03 -0.97207221946E+03  0.22724907757E+04  0.24927628801E+04  0.15294330000E+03 0.  0.
<mgrwt>
<rscale>  0 0.11595005E+04</rscale>
<asrwt>0</asrwt>
<pdfrwt beam="1">  1        2 0.47055947E+00 0.12083340E+04</pdfrwt>
<pdfrwt beam="2">  1       -2 0.10001468E+00 0.12083340E+04</pdfrwt>
<totfact> 0.13077474E+00</totfact>
</mgrwt>
</event>
<event>
 4    1  0.7595604E-007  0.6753817E+03  0.7818608E-02  0.1012067E+00
         -2   -1    0    0    0  501 -0.00000000000E+00  0.00000000000E+00  0.11496286316E+03  0.11496286318E+03  0.25500000000E-02 0.  1.
          2   -1    0    0  501    0  0.00000000000E+00 -0.00000000000E+00 -0.19330424333E+04  0.19330424333E+04  0.25500000000E-02 0. -1.
    8880023    1    1    2    0    0  0.10041297283E+03  0.11066855064E+03 -0.10319420438E+04  0.12333064831E+04  0.65864270000E+03 0.  0.
    8880022    1    1    2    0    0 -0.10041297283E+03 -0.11066855064E+03 -0.78613752630E+03  0.81469881336E+03  0.15294330000E+03 0.  0.
<mgrwt>
<rscale>  0 0.50661445E+03</rscale>
<asrwt>0</asrwt>
<pdfrwt beam="1">  1        2 0.29739112E+00 0.67538174E+03</pdfrwt>
<pdfrwt beam="2">  1       -2 0.17686596E-01 0.67538174E+03</pdfrwt>
<totfact> 0.19811061E+02</totfact>
</mgrwt>
</event>
<event>
 4    1  0.7595604E-007  0.7275903E+03  0.7818608E-02  0.9897693E-01
          2   -1    0    0  501    0  0.00000000000E+00  0.00000000000E+00  0.12795585988E+04  0.12795585989E+04  0.25500000000E-02 0. -1.
         -2   -1    0    0    0  501 -0.00000000000E+00 -0.00000000000E+00 -0.38900356889E+03  0.38900356889E+03  0.25500000000E-02 0.  1.
    8880023    1    1    2    0    0  0.22708288723E+03  0.20978737924E+03  0.15250298034E+02  0.72775006700E+03  0.65864270000E+03 0.  1.
    8880022    1    1    2    0    0 -0.22708288723E+03 -0.20978737924E+03  0.87530473193E+03  0.94081210075E+03  0.15294330000E+03 0.  0.
<mgrwt>
<rscale>  0 0.60373228E+03</rscale>
<asrwt>0</asrwt>
<pdfrwt beam="1">  1        2 0.19685517E+00 0.72759026E+03</pdfrwt>
<pdfrwt beam="2">  1       -2 0.59846703E-01 0.72759026E+03</pdfrwt>
<totfact> 0.45191504E+01</totfact>
</mgrwt>
</event>
<event>
 4    1  0.7595604E-007  0.6784999E+03  0.7818608E-02  0.1010185E+00
         -2   -1    0    0    0  501 -0.00000000000E+00  0.00000000000E+00  0.66837081521E+03  0.66837081521E+03  0.25500000000E-02 0.  1.
          2   -1    0    0  501    0  0.00000000000E+00 -0.00000000000E+00 -0.10412257223E+04  0.10412257223E+04  0.25500000000E-02 0. -1.
    8880023    1    1    2    0    0 -0.51597273008E+02  0.15456272078E+03  0.47794457563E+03  0.82993562213E+03  0.65864270000E+03 0.  1.
    8880022    1    1    2    0    0  0.51597273008E+02 -0.15456272078E+03 -0.85079948275E+03  0.87966091541E+03  0.15294330000E+03 0.  0.
<mgrwt>
<rscale>  0 0.51401085E+03</rscale>
<asrwt>0</asrwt>
<pdfrwt beam="1">  1        2 0.16018857E+00 0.67849990E+03</pdfrwt>
<pdfrwt beam="2">  1       -2 0.10282628E+00 0.67849990E+03</pdfrwt>
<totfact> 0.18788694E+01</totfact>
</mgrwt>
</event>
<event>
 4    1  0.7595604E-007  0.1011441E+04  0.7818608E-02  0.9366740E-01
         -2   -1    0    0    0  501 -0.00000000000E+00  0.00000000000E+00  0.12180440696E+04  0.12180440696E+04  0.25500000000E-02 0.  1.
          2   -1    0    0  501    0  0.00000000000E+00 -0.00000000000E+00 -0.14494204352E+04  0.14494204352E+04  0.25500000000E-02 0. -1.
    8880023    1    1    2    0    0 -0.62835404668E+03 -0.44087806719E+03 -0.11026398687E+04  0.14962710865E+04  0.65864270000E+03 0. -1.
    8880022    1    1    2    0    0  0.62835404668E+03  0.44087806719E+03  0.87126350306E+03  0.11711934182E+04  0.15294330000E+03 0.  0.
<mgrwt>
<rscale>  0 0.94864110E+03</rscale>
<asrwt>0</asrwt>
<pdfrwt beam="1">  1        2 0.22298776E+00 0.10114408E+04</pdfrwt>
<pdfrwt beam="2">  1       -2 0.18739140E+00 0.10114408E+04</pdfrwt>
<totfact> 0.21695832E+00</totfact>
</mgrwt>
</event>
<event>
 4    1  0.7595604E-007  0.7302678E+03  0.7818608E-02  0.9889261E-01
          2   -1    0    0  501    0  0.00000000000E+00  0.00000000000E+00  0.11468322849E+04  0.11468322849E+04  0.25500000000E-02 0. -1.
         -2   -1    0    0    0  501 -0.00000000000E+00 -0.00000000000E+00 -0.47212162451E+03  0.47212162452E+03  0.25500000000E-02 0.  1.
    8880023    1    1    2    0    0  0.15990590747E+03  0.27186580259E+03 -0.12950788801E+03  0.74166260063E+03  0.65864270000E+03 0.  1.
    8880022    1    1    2    0    0 -0.15990590747E+03 -0.27186580259E+03  0.80421854844E+03  0.87729130882E+03  0.15294330000E+03 0.  0.
<mgrwt>
<rscale>  0 0.60784591E+03</rscale>
<asrwt>0</asrwt>
<pdfrwt beam="1">  1        2 0.17643573E+00 0.73026784E+03</pdfrwt>
<pdfrwt beam="2">  1       -2 0.72634098E-01 0.73026784E+03</pdfrwt>
<totfact> 0.35645159E+01</totfact>
</mgrwt>
</event>
<event>
 4    1  0.7595604E-007  0.7082529E+03  0.7818608E-02  0.9964547E-01
         -2   -1    0    0    0  501 -0.00000000000E+00  0.00000000000E+00  0.22866553750E+03  0.22866553751E+03  0.25500000000E-02 0.  1.
          2   -1    0    0  501    0  0.00000000000E+00 -0.00000000000E+00 -0.20440266756E+04  0.20440266756E+04  0.25500000000E-02 0. -1.
    8880023    1    1    2    0    0 -0.10053242538E+03  0.24021911509E+03 -0.37576738513E+03  0.80176263682E+03  0.65864270000E+03 0.  1.
    8880022    1    1    2    0    0  0.10053242538E+03 -0.24021911509E+03 -0.14395937530E+04  0.14709295763E+04  0.15294330000E+03 0.  0.
<mgrwt>
<rscale>  0 0.57232512E+03</rscale>
<asrwt>0</asrwt>
<pdfrwt beam="1">  1        2 0.31446563E+00 0.70825292E+03</pdfrwt>
<pdfrwt beam="2">  1       -2 0.35179315E-01 0.70825292E+03</pdfrwt>
<totfact> 0.49631720E+01</totfact>
</mgrwt>
</event>
<event>
 4    1  0.7595604E-007  0.7414541E+03  0.7818608E-02  0.9855731E-01
          2   -1    0    0  501    0  0.00000000000E+00  0.00000000000E+00  0.46585972894E+03  0.46585972895E+03  0.25500000000E-02 0. -1.
         -2   -1    0    0    0  501 -0.00000000000E+00 -0.00000000000E+00 -0.89646788175E+03  0.89646788176E+03  0.25500000000E-02 0.  1.
    8880023    1    1    2    0    0 -0.21735305155E+03 -0.26211000603E+03 -0.59865789691E+03  0.95296667731E+03  0.65864270000E+03 0.  1.
    8880022    1    1    2    0    0  0.21735305155E+03  0.26211000603E+03  0.16804974410E+03  0.40936093339E+03  0.15294330000E+03 0.  0.
<mgrwt>
<rscale>  0 0.62455544E+03</rscale>
<asrwt>0</asrwt>
<pdfrwt beam="1">  1        2 0.71670728E-01 0.74145412E+03</pdfrwt>
<pdfrwt beam="2">  1       -2 0.13791813E+00 0.74145412E+03</pdfrwt>
<totfact> 0.25289487E+01</totfact>
</mgrwt>
</event>
<event>
 4    1  0.7595604E-007  0.8025547E+03  0.7818608E-02  0.9705299E-01
          2   -1    0    0  501    0  0.00000000000E+00  0.00000000000E+00  0.24806981757E+04  0.24806981757E+04  0.25500000000E-02 0. -1.
         -2   -1    0    0    0  501 -0.00000000000E+00 -0.00000000000E+00 -0.52242048043E+03  0.52242048044E+03  0.25500000000E-02 0.  1.
    8880023    1    1    2    0    0  0.45831536560E+03 -0.15194737642E+02 -0.17022946513E+03  0.82040973389E+03  0.65864270000E+03 0.  0.
    8880022    1    1    2    0    0 -0.45831536560E+03  0.15194737642E+02  0.21285071604E+04  0.21827089223E+04  0.15294330000E+03 0.  0.
<mgrwt>
<rscale>  0 0.70702152E+03</rscale>
<asrwt>0</asrwt>
<pdfrwt beam="1">  1        2 0.38164588E+00 0.80255471E+03</pdfrwt>
<pdfrwt beam="2">  1       -2 0.80372381E-01 0.80255471E+03</pdfrwt>
<totfact> 0.50805403E+00</totfact>
</mgrwt>
</event>
<event>
 4    1  0.7595604E-007  0.1182956E+04  0.7818608E-02  0.9173871E-01
          2   -1    0    0  501    0  0.00000000000E+00  0.00000000000E+00  0.30867947996E+04  0.30867947996E+04  0.25500000000E-02 0. -1.
         -2   -1    0    0    0  501 -0.00000000000E+00 -0.00000000000E+00 -0.50267892152E+03  0.50267892153E+03  0.25500000000E-02 0.  1.
    8880023    1    1    2    0    0  0.93251393411E+03 -0.30982502577E+03  0.50790032664E+03  0.12873797932E+04  0.65864270000E+03 0.  0.
    8880022    1    1    2    0    0 -0.93251393411E+03  0.30982502577E+03  0.20762155515E+04  0.23020939279E+04  0.15294330000E+03 0.  0.
<mgrwt>
<rscale>  0 0.11327237E+04</rscale>
<asrwt>0</asrwt>
<pdfrwt beam="1">  1        2 0.47489150E+00 0.11829556E+04</pdfrwt>
<pdfrwt beam="2">  1       -2 0.77335219E-01 0.11829556E+04</pdfrwt>
<totfact> 0.22829573E+00</totfact>
</mgrwt>
</event>
<event>
 4    1  0.7595604E-007  0.7940210E+03  0.7818608E-02  0.9723876E-01
          2   -1    0    0  501    0  0.00000000000E+00  0.00000000000E+00  0.23788757261E+04  0.23788757261E+04  0.25500000000E-02 0. -1.
         -2   -1    0    0    0  501 -0.00000000000E+00 -0.00000000000E+00 -0.19238367825E+03  0.19238367827E+03  0.25500000000E-02 0.  1.
    8880023    1    1    2    0    0  0.14083189879E+03  0.42050625084E+03  0.89104374557E+03  0.11934941531E+04  0.65864270000E+03 0.  0.
    8880022    1    1    2    0    0 -0.14083189879E+03 -0.42050625084E+03  0.12954483023E+04  0.13777652512E+04  0.15294330000E+03 0.  0.
<mgrwt>
<rscale>  0 0.69612840E+03</rscale>
<asrwt>0</asrwt>
<pdfrwt beam="1">  1        2 0.36598088E+00 0.79402099E+03</pdfrwt>
<pdfrwt beam="2">  1       -2 0.29597489E-01 0.79402099E+03</pdfrwt>
<totfact> 0.44373858E+01</totfact>
</mgrwt>
</event>
<event>
 4    1  0.7595604E-007  0.7139017E+03  0.7818608E-02  0.9943788E-01
         -2   -1    0    0    0  501 -0.00000000000E+00  0.00000000000E+00  0.27114106424E+03  0.27114106425E+03  0.25500000000E-02 0.  1.
          2   -1    0    0  501    0  0.00000000000E+00 -0.00000000000E+00 -0.98597322911E+03  0.98597322912E+03  0.25500000000E-02 0. -1.
    8880023    1    1    2    0    0  0.15905898658E+03 -0.22482362503E+03 -0.43665665718E+03  0.83685402916E+03  0.65864270000E+03 0.  1.
    8880022    1    1    2    0    0 -0.15905898658E+03  0.22482362503E+03 -0.27817550769E+03  0.42026026422E+03  0.15294330000E+03 0. -1.
<mgrwt>
<rscale>  0 0.58185270E+03</rscale>
<asrwt>0</asrwt>
<pdfrwt beam="1">  1        2 0.15168819E+00 0.71390169E+03</pdfrwt>
<pdfrwt beam="2">  1       -2 0.41714010E-01 0.71390169E+03</pdfrwt>
<totfact> 0.14206444E+02</totfact>
</mgrwt>
</event>
<event>
 4    1  0.7595604E-007  0.8710928E+03  0.7818608E-02  0.9574128E-01
          2   -1    0    0  501    0  0.00000000000E+00  0.00000000000E+00  0.18210981273E+04  0.18210981273E+04  0.25500000000E-02 0. -1.
         -2   -1    0    0    0  501 -0.00000000000E+00 -0.00000000000E+00 -0.11845605622E+04  0.11845605623E+04  0.25500000000E-02 0.  1.
    8880023    1    1    2    0    0  0.56479324674E+03  0.77466895761E+02 -0.96428999037E+03  0.12994837141E+04  0.65864270000E+03 0.  0.
    8880022    1    1    2    0    0 -0.56479324674E+03 -0.77466895761E+02  0.16008275554E+04  0.17061749754E+04  0.15294330000E+03 0. -1.
<mgrwt>
<rscale>  0 0.79032485E+03</rscale>
<asrwt>0</asrwt>
<pdfrwt beam="1">  1        2 0.28016894E+00 0.87109284E+03</pdfrwt>
<pdfrwt beam="2">  1       -2 0.18224009E+00 0.87109284E+03</pdfrwt>
<totfact> 0.14919676E+00</totfact>
</mgrwt>
</event>
<event>
 4    1  0.7595604E-007  0.1175630E+04  0.7818608E-02  0.9181184E-01
          2   -1    0    0  501    0  0.00000000000E+00  0.00000000000E+00  0.37163850206E+04  0.37163850206E+04  0.25500000000E-02 0. -1.
         -2   -1    0    0    0  501 -0.00000000000E+00 -0.00000000000E+00 -0.49429504953E+03  0.49429504954E+03  0.25500000000E-02 0.  1.
    8880023    1    1    2    0    0  0.97276156713E+03 -0.45053631899E+02  0.29685327682E+04  0.31928501215E+04  0.65864270000E+03 0. -1.
    8880022    1    1    2    0    0 -0.97276156713E+03  0.45053631899E+02  0.25355720289E+03  0.10178299487E+04  0.15294330000E+03 0.  0.
<mgrwt>
<rscale>  0 0.11249771E+04</rscale>
<asrwt>0</asrwt>
<pdfrwt beam="1">  1        2 0.57175155E+00 0.11756297E+04</pdfrwt>
<pdfrwt beam="2">  1       -2 0.76045391E-01 0.11756297E+04</pdfrwt>
<totfact> 0.89037311E-01</totfact>
</mgrwt>
</event>
<event>
 4    1  0.7595604E-007  0.8120176E+03  0.7818608E-02  0.9685390E-01
          2   -1    0    0  501    0  0.00000000000E+00  0.00000000000E+00  0.14252358399E+04  0.14252358399E+04  0.25500000000E-02 0. -1.
         -2   -1    0    0    0  501 -0.00000000000E+00 -0.00000000000E+00 -0.57084169097E+03  0.57084169098E+03  0.25500000000E-02 0.  1.
    8880023    1    1    2    0    0 -0.46691813340E+03 -0.86889887026E+02 -0.19412046639E+03  0.83489841148E+03  0.65864270000E+03 0.  0.
    8880022    1    1    2    0    0  0.46691813340E+03  0.86889887026E+02  0.10485146153E+04  0.11611791194E+04  0.15294330000E+03 0.  0.
<mgrwt>
<rscale>  0 0.71893394E+03</rscale>
<asrwt>0</asrwt>
<pdfrwt beam="1">  1        2 0.21926705E+00 0.81201761E+03</pdfrwt>
<pdfrwt beam="2">  1       -2 0.87821799E-01 0.81201761E+03</pdfrwt>
<totfact> 0.15892247E+01</totfact>
</mgrwt>
</event>
<event>
 4    1  0.7595604E-007  0.6932583E+03  0.7818608E-02  0.1002641E+00
          2   -1    0    0  501    0  0.00000000000E+00  0.00000000000E+00  0.15499368902E+04  0.15499368902E+04  0.25500000000E-02 0. -1.
         -2   -1    0    0    0  501 -0.00000000000E+00 -0.00000000000E+00 -0.17309636030E+03  0.17309636032E+03  0.25500000000E-02 0.  1.
    8880023    1    1    2    0    0  0.21278956212E+03  0.38955058866E+02  0.65355816464E+03  0.95275672403E+03  0.65864270000E+03 0.  0.
    8880022    1    1    2    0    0 -0.21278956212E+03 -0.38955058866E+02  0.72328236526E+03  0.77027652650E+03  0.15294330000E+03 0.  0.
<mgrwt>
<rscale>  0 0.54507291E+03</rscale>
<asrwt>0</asrwt>
<pdfrwt beam="1">  1        2 0.23845182E+00 0.69325832E+03</pdfrwt>
<pdfrwt beam="2">  1       -2 0.26630210E-01 0.69325832E+03</pdfrwt>
<totfact> 0.15527959E+02</totfact>
</mgrwt>
</event>
<event>
 4    1  0.7595604E-007  0.8116579E+03  0.7818608E-02  0.9686134E-01
          2   -1    0    0  501    0  0.00000000000E+00  0.00000000000E+00  0.15266374104E+04  0.15266374104E+04  0.25500000000E-02 0. -1.
         -2   -1    0    0    0  501 -0.00000000000E+00 -0.00000000000E+00 -0.41369894502E+03  0.41369894503E+03  0.25500000000E-02 0.  1.
    8880023    1    1    2    0    0 -0.44635638943E+03  0.16045036627E+03  0.10826479486E+03  0.81884663917E+03  0.65864270000E+03 0.  1.
    8880022    1    1    2    0    0  0.44635638943E+03 -0.16045036627E+03  0.10046736705E+04  0.11214897163E+04  0.15294330000E+03 0.  0.
<mgrwt>
<rscale>  0 0.71848409E+03</rscale>
<asrwt>0</asrwt>
<pdfrwt beam="1">  1        2 0.23486730E+00 0.81165790E+03</pdfrwt>
<pdfrwt beam="2">  1       -2 0.63645991E-01 0.81165790E+03</pdfrwt>
<totfact> 0.28478241E+01</totfact>
</mgrwt>
</event>
<event>
 4    1  0.7595604E-007  0.7874680E+03  0.7818608E-02  0.9738578E-01
          2   -1    0    0  501    0  0.00000000000E+00  0.00000000000E+00  0.42676474241E+03  0.42676474241E+03  0.25500000000E-02 0. -1.
         -2   -1    0    0    0  501 -0.00000000000E+00 -0.00000000000E+00 -0.14312575525E+04  0.14312575525E+04  0.25500000000E-02 0.  1.
    8880023    1    1    2    0    0  0.31389523836E+03  0.29625218451E+03 -0.11354089503E+04  0.13817594827E+04  0.65864270000E+03 0.  0.
    8880022    1    1    2    0    0 -0.31389523836E+03 -0.29625218451E+03  0.13091614019E+03  0.47626281218E+03  0.15294330000E+03 0.  0.
<mgrwt>
<rscale>  0 0.68765589E+03</rscale>
<asrwt>0</asrwt>
<pdfrwt beam="1">  1        2 0.65656115E-01 0.78746796E+03</pdfrwt>
<pdfrwt beam="2">  1       -2 0.22019347E+00 0.78746796E+03</pdfrwt>
<totfact> 0.74140739E+00</totfact>
</mgrwt>
</event>
<event>
 4    1  0.7595604E-007  0.7274600E+03  0.7818608E-02  0.9898107E-01
         -2   -1    0    0    0  501 -0.00000000000E+00  0.00000000000E+00  0.18591836265E+03  0.18591836267E+03  0.25500000000E-02 0.  1.
          2   -1    0    0  501    0  0.00000000000E+00 -0.00000000000E+00 -0.26599574440E+04  0.26599574440E+04  0.25500000000E-02 0. -1.
    8880023    1    1    2    0    0  0.15923900653E+03 -0.26463330594E+03 -0.60743431295E+03  0.94772068597E+03  0.65864270000E+03 0.  1.
    8880022    1    1    2    0    0 -0.15923900653E+03  0.26463330594E+03 -0.18666047684E+04  0.18981551207E+04  0.15294330000E+03 0.  0.
<mgrwt>
<rscale>  0 0.60353092E+03</rscale>
<asrwt>0</asrwt>
<pdfrwt beam="1">  1        2 0.40922420E+00 0.72746000E+03</pdfrwt>
<pdfrwt beam="2">  1       -2 0.28602827E-01 0.72746000E+03</pdfrwt>
<totfact> 0.33007839E+01</totfact>
</mgrwt>
</event>
<event>
 4    1  0.7595604E-007  0.8989147E+03  0.7818608E-02  0.9527776E-01
         -2   -1    0    0    0  501 -0.00000000000E+00  0.00000000000E+00  0.33290519262E+04  0.33290519262E+04  0.25500000000E-02 0.  1.
          2   -1    0    0  501    0  0.00000000000E+00 -0.00000000000E+00 -0.27063023999E+03  0.27063024001E+03  0.25500000000E-02 0. -1.
    8880023    1    1    2    0    0 -0.29821273469E+03  0.53414102292E+03  0.27587703088E+04  0.29015274065E+04  0.65864270000E+03 0.  1.
    8880022    1    1    2    0    0  0.29821273469E+03 -0.53414102292E+03  0.29965137733E+03  0.69815475967E+03  0.15294330000E+03 0.  0.
<mgrwt>
<rscale>  0 0.82266618E+03</rscale>
<asrwt>0</asrwt>
<pdfrwt beam="1">  1        2 0.41635423E-01 0.89891472E+03</pdfrwt>
<pdfrwt beam="2">  1       -2 0.51216182E+00 0.89891472E+03</pdfrwt>
<totfact> 0.17576225E-01</totfact>
</mgrwt>
</event>
<event>
 4    1  0.7595604E-007  0.8089687E+03  0.7818608E-02  0.9691729E-01
         -2   -1    0    0    0  501 -0.00000000000E+00  0.00000000000E+00  0.68041574855E+03  0.68041574855E+03  0.25500000000E-02 0.  1.
          2   -1    0    0  501    0  0.00000000000E+00 -0.00000000000E+00 -0.14725220958E+04  0.14725220958E+04  0.25500000000E-02 0. -1.
    8880023    1    1    2    0    0 -0.11788749694E+03 -0.45466767359E+03  0.37047439771E+03  0.88976493579E+03  0.65864270000E+03 0.  1.
    8880022    1    1    2    0    0  0.11788749694E+03  0.45466767359E+03 -0.11625807450E+04  0.12631729086E+04  0.15294330000E+03 0. -1.
<mgrwt>
<rscale>  0 0.71511378E+03</rscale>
<asrwt>0</asrwt>
<pdfrwt beam="1">  1        2 0.22654186E+00 0.80896870E+03</pdfrwt>
<pdfrwt beam="2">  1       -2 0.10467935E+00 0.80896870E+03</pdfrwt>
<totfact> 0.99023344E+00</totfact>
</mgrwt>
</event>
<event>
 4    1  0.7595604E-007  0.8887287E+03  0.7818608E-02  0.9544373E-01
         -2   -1    0    0    0  501 -0.00000000000E+00  0.00000000000E+00  0.69318900887E+03  0.69318900888E+03  0.25500000000E-02 0.  1.
          2   -1    0    0  501    0  0.00000000000E+00 -0.00000000000E+00 -0.13259756264E+04  0.13259756264E+04  0.25500000000E-02 0. -1.
    8880023    1    1    2    0    0  0.53955320799E+03 -0.25477607852E+03  0.26768769056E+03  0.92816777599E+03  0.65864270000E+03 0.  1.
    8880022    1    1    2    0    0 -0.53955320799E+03  0.25477607852E+03 -0.90047430805E+03  0.10909968593E+04  0.15294330000E+03 0.  0.
<mgrwt>
<rscale>  0 0.81089936E+03</rscale>
<asrwt>0</asrwt>
<pdfrwt beam="1">  1        2 0.20399625E+00 0.88872871E+03</pdfrwt>
<pdfrwt beam="2">  1       -2 0.10664446E+00 0.88872871E+03</pdfrwt>
<totfact> 0.11363878E+01</totfact>
</mgrwt>
</event>
<event>
 4    1  0.7595604E-007  0.9639383E+03  0.7818608E-02  0.9430337E-01
          2   -1    0    0  501    0  0.00000000000E+00  0.00000000000E+00  0.21627574659E+04  0.21627574659E+04  0.25500000000E-02 0. -1.
         -2   -1    0    0    0  501 -0.00000000000E+00 -0.00000000000E+00 -0.60288571410E+03  0.60288571410E+03  0.25500000000E-02 0.  1.
    8880023    1    1    2    0    0 -0.32257123320E+03 -0.62555147346E+03 -0.87301885601E+02  0.96788360453E+03  0.65864270000E+03 0.  0.
    8880022    1    1    2    0    0  0.32257123320E+03  0.62555147346E+03  0.16471736374E+04  0.17977595755E+04  0.15294330000E+03 0.  0.
<mgrwt>
<rscale>  0 0.89620545E+03</rscale>
<asrwt>0</asrwt>
<pdfrwt beam="1">  1        2 0.33273191E+00 0.96393830E+03</pdfrwt>
<pdfrwt beam="2">  1       -2 0.92751650E-01 0.96393830E+03</pdfrwt>
<totfact> 0.53834014E+00</totfact>
</mgrwt>
</event>
<event>
 4    1  0.7595604E-007  0.7525013E+03  0.7818608E-02  0.9824923E-01
          2   -1    0    0  501    0  0.00000000000E+00  0.00000000000E+00  0.69598605037E+03  0.69598605038E+03  0.25500000000E-02 0. -1.
         -2   -1    0    0    0  501 -0.00000000000E+00 -0.00000000000E+00 -0.51312504536E+03  0.51312504536E+03  0.25500000000E-02 0.  1.
    8880023    1    1    2    0    0  0.31059215518E+03 -0.18968511640E+03 -0.44029509425E+02  0.75378825555E+03  0.65864270000E+03 0.  1.
    8880022    1    1    2    0    0 -0.31059215518E+03  0.18968511640E+03  0.22689051444E+03  0.45532284019E+03  0.15294330000E+03 0.  0.
<mgrwt>
<rscale>  0 0.64042038E+03</rscale>
<asrwt>0</asrwt>
<pdfrwt beam="1">  1        2 0.10707478E+00 0.75250125E+03</pdfrwt>
<pdfrwt beam="2">  1       -2 0.78942315E-01 0.75250125E+03</pdfrwt>
<totfact> 0.59520114E+01</totfact>
</mgrwt>
</event>
<event>
 4    1  0.7595604E-007  0.1181983E+04  0.7818608E-02  0.9174838E-01
         -2   -1    0    0    0  501 -0.00000000000E+00  0.00000000000E+00  0.66786915790E+03  0.66786915791E+03  0.25500000000E-02 0.  1.
          2   -1    0    0  501    0  0.00000000000E+00 -0.00000000000E+00 -0.27061297090E+04  0.27061297090E+04  0.25500000000E-02 0. -1.
    8880023    1    1    2    0    0 -0.33131613090E+03 -0.92385214366E+03 -0.87881856613E+02  0.11852453708E+04  0.65864270000E+03 0.  0.
    8880022    1    1    2    0    0  0.33131613090E+03  0.92385214366E+03 -0.19503786945E+04  0.21887534961E+04  0.15294330000E+03 0.  0.
<mgrwt>
<rscale>  0 0.11316955E+04</rscale>
<asrwt>0</asrwt>
<pdfrwt beam="1">  1        2 0.41632764E+00 0.11819828E+04</pdfrwt>
<pdfrwt beam="2">  1       -2 0.10274910E+00 0.11819828E+04</pdfrwt>
<totfact> 0.20140929E+00</totfact>
</mgrwt>
</event>
<event>
 4    1  0.7595604E-007  0.8996960E+03  0.7818608E-02  0.9526520E-01
         -2   -1    0    0    0  501 -0.00000000000E+00  0.00000000000E+00  0.28583070940E+03  0.28583070941E+03  0.25500000000E-02 0.  1.
          2   -1    0    0  501    0  0.00000000000E+00 -0.00000000000E+00 -0.32369541061E+04  0.32369541061E+04  0.25500000000E-02 0. -1.
    8880023    1    1    2    0    0  0.60998474311E+03  0.59676758376E+02 -0.58351098448E+03  0.10723516110E+04  0.65864270000E+03 0.  1.
    8880022    1    1    2    0    0 -0.60998474311E+03 -0.59676758376E+02 -0.23676124122E+04  0.24504332045E+04  0.15294330000E+03 0.  0.
<mgrwt>
<rscale>  0 0.82356547E+03</rscale>
<asrwt>0</asrwt>
<pdfrwt beam="1">  1        2 0.49799292E+00 0.89969601E+03</pdfrwt>
<pdfrwt beam="2">  1       -2 0.43973957E-01 0.89969601E+03</pdfrwt>
<totfact> 0.62858634E+00</totfact>
</mgrwt>
</event>
<event>
 4    1  0.7595604E-007  0.7965024E+03  0.7818608E-02  0.9718410E-01
          2   -1    0    0  501    0  0.00000000000E+00  0.00000000000E+00  0.91400795679E+03  0.91400795680E+03  0.25500000000E-02 0. -1.
         -2   -1    0    0    0  501 -0.00000000000E+00 -0.00000000000E+00 -0.90814785028E+03  0.90814785029E+03  0.25500000000E-02 0.  1.
    8880023    1    1    2    0    0  0.29641434401E+03  0.33577421657E+03 -0.63977469005E+03  0.10216298978E+04  0.65864270000E+03 0.  0.
    8880022    1    1    2    0    0 -0.29641434401E+03 -0.33577421657E+03  0.64563479656E+03  0.80052590925E+03  0.15294330000E+03 0.  0.
<mgrwt>
<rscale>  0 0.69931151E+03</rscale>
<asrwt>0</asrwt>
<pdfrwt beam="1">  1        2 0.14061661E+00 0.79650235E+03</pdfrwt>
<pdfrwt beam="2">  1       -2 0.13971505E+00 0.79650235E+03</pdfrwt>
<totfact> 0.10477798E+01</totfact>
</mgrwt>
</event>
<event>
 4    1  0.7595604E-007  0.8143503E+03  0.7818608E-02  0.9680586E-01
          2   -1    0    0  501    0  0.00000000000E+00  0.00000000000E+00  0.16379377766E+04  0.16379377766E+04  0.25500000000E-02 0. -1.
         -2   -1    0    0    0  501 -0.00000000000E+00 -0.00000000000E+00 -0.74611924596E+03  0.74611924596E+03  0.25500000000E-02 0.  1.
    8880023    1    1    2    0    0 -0.39460522419E+03  0.27137232375E+03 -0.46453566466E+03  0.93752856547E+03  0.65864270000E+03 0.  0.
    8880022    1    1    2    0    0  0.39460522419E+03 -0.27137232375E+03  0.13563541953E+04  0.14465284571E+04  0.15294330000E+03 0.  0.
<mgrwt>
<rscale>  0 0.72184572E+03</rscale>
<asrwt>0</asrwt>
<pdfrwt beam="1">  1        2 0.25199043E+00 0.81435031E+03</pdfrwt>
<pdfrwt beam="2">  1       -2 0.11478758E+00 0.81435031E+03</pdfrwt>
<totfact> 0.64062053E+00</totfact>
</mgrwt>
</event>
<event>
 4    1  0.7595604E-007  0.1407346E+04  0.7818608E-02  0.8977995E-01
          2   -1    0    0  501    0  0.00000000000E+00  0.00000000000E+00  0.94100499558E+03  0.94100499558E+03  0.25500000000E-02 0. -1.
         -2   -1    0    0    0  501 -0.00000000000E+00 -0.00000000000E+00 -0.23815373876E+04  0.23815373876E+04  0.25500000000E-02 0.  1.
    8880023    1    1    2    0    0  0.12145099701E+04  0.26791517829E+03 -0.15142939989E+04  0.20672952212E+04  0.65864270000E+03 0.  0.
    8880022    1    1    2    0    0 -0.12145099701E+04 -0.26791517829E+03  0.73761606843E+02  0.12552471620E+04  0.15294330000E+03 0.  0.
<mgrwt>
<rscale>  0 0.13670841E+04</rscale>
<asrwt>0</asrwt>
<pdfrwt beam="1">  1        2 0.14477000E+00 0.14073462E+04</pdfrwt>
<pdfrwt beam="2">  1       -2 0.36639036E+00 0.14073462E+04</pdfrwt>
<totfact> 0.32364348E-01</totfact>
</mgrwt>
</event>
<event>
 4    1  0.7595604E-007  0.6819810E+03  0.7818608E-02  0.1008225E+00
         -2   -1    0    0    0  501 -0.00000000000E+00  0.00000000000E+00  0.84812927051E+02  0.84812927089E+02  0.25500000000E-02 0.  1.
          2   -1    0    0  501    0  0.00000000000E+00 -0.00000000000E+00 -0.45774029791E+04  0.45774029791E+04  0.25500000000E-02 0. -1.
    8880023    1    1    2    0    0 -0.17672336418E+03 -0.75291192957E+01 -0.13648810088E+04  0.15257779030E+04  0.65864270000E+03 0.  1.
    8880022    1    1    2    0    0  0.17672336418E+03  0.75291192957E+01 -0.31277090433E+04  0.31364380032E+04  0.15294330000E+03 0.  0.
<mgrwt>
<rscale>  0 0.52186389E+03</rscale>
<asrwt>0</asrwt>
<pdfrwt beam="1">  1        2 0.70421565E+00 0.68198097E+03</pdfrwt>
<pdfrwt beam="2">  1       -2 0.13048146E-01 0.68198097E+03</pdfrwt>
<totfact> 0.52745717E+00</totfact>
</mgrwt>
</event>
<event>
 4    1  0.7595604E-007  0.9229629E+03  0.7818608E-02  0.9490131E-01
          2   -1    0    0  501    0  0.00000000000E+00  0.00000000000E+00  0.38523145037E+04  0.38523145037E+04  0.25500000000E-02 0. -1.
         -2   -1    0    0    0  501 -0.00000000000E+00 -0.00000000000E+00 -0.22159267544E+03  0.22159267545E+03  0.25500000000E-02 0.  1.
    8880023    1    1    2    0    0  0.55703513975E+03  0.32827158323E+03  0.10010656721E+04  0.13616141397E+04  0.65864270000E+03 0.  0.
    8880022    1    1    2    0    0 -0.55703513975E+03 -0.32827158323E+03  0.26296561561E+04  0.27122930394E+04  0.15294330000E+03 0.  0.
<mgrwt>
<rscale>  0 0.85015362E+03</rscale>
<asrwt>0</asrwt>
<pdfrwt beam="1">  1        2 0.59266375E+00 0.92296294E+03</pdfrwt>
<pdfrwt beam="2">  1       -2 0.34091182E-01 0.92296294E+03</pdfrwt>
<totfact> 0.38323581E+00</totfact>
</mgrwt>
</event>
<event>
 4    1  0.7595604E-007  0.1006140E+04  0.7818608E-02  0.9373569E-01
         -2   -1    0    0    0  501 -0.00000000000E+00  0.00000000000E+00  0.75951339402E+03  0.75951339402E+03  0.25500000000E-02 0.  1.
          2   -1    0    0  501    0  0.00000000000E+00 -0.00000000000E+00 -0.12001358842E+04  0.12001358842E+04  0.25500000000E-02 0. -1.
    8880023    1    1    2    0    0  0.20081934374E+03  0.73360662496E+03  0.10436864053E+03  0.10115384859E+04  0.65864270000E+03 0.  0.
    8880022    1    1    2    0    0 -0.20081934374E+03 -0.73360662496E+03 -0.54499113069E+03  0.94811079234E+03  0.15294330000E+03 0.  0.
<mgrwt>
<rscale>  0 0.94283170E+03</rscale>
<asrwt>0</asrwt>
<pdfrwt beam="1">  1        2 0.18463629E+00 0.10061398E+04</pdfrwt>
<pdfrwt beam="2">  1       -2 0.11684821E+00 0.10061398E+04</pdfrwt>
<totfact> 0.10656612E+01</totfact>
</mgrwt>
</event>
<event>
 4    1  0.7595604E-007  0.6653250E+03  0.7818608E-02  0.1019262E+00
         -2   -1    0    0    0  501 -0.00000000000E+00  0.00000000000E+00  0.44422742347E+03  0.44422742348E+03  0.25500000000E-02 0.  1.
          2   -1    0    0  501    0  0.00000000000E+00 -0.00000000000E+00 -0.22718854010E+04  0.22718854010E+04  0.25500000000E-02 0. -1.
    8880023    1    1    2    0    0  0.54131236148E+02  0.76922196949E+02  0.18886481832E+03  0.69161213189E+03  0.65864270000E+03 0.  1.
    8880022    1    1    2    0    0 -0.54131236148E+02 -0.76922196949E+02 -0.20165227958E+04  0.20245006926E+04  0.15294330000E+03 0.  0.
<mgrwt>
<rscale>  0 0.47953784E+03</rscale>
<asrwt>0</asrwt>
<pdfrwt beam="1">  1        2 0.34952082E+00 0.66532505E+03</pdfrwt>
<pdfrwt beam="2">  1       -2 0.68342682E-01 0.66532505E+03</pdfrwt>
<totfact> 0.97423848E+00</totfact>
</mgrwt>
</event>
<event>
 4    1  0.7595604E-007  0.7373964E+03  0.7818608E-02  0.9867597E-01
          2   -1    0    0  501    0  0.00000000000E+00  0.00000000000E+00  0.14144099499E+04  0.14144099500E+04  0.25500000000E-02 0. -1.
         -2   -1    0    0    0  501 -0.00000000000E+00 -0.00000000000E+00 -0.21788444160E+03  0.21788444161E+03  0.25500000000E-02 0.  1.
    8880023    1    1    2    0    0  0.32520041547E+03 -0.64714483284E+02  0.88801429116E+03  0.11542629086E+04  0.65864270000E+03 0.  1.
    8880022    1    1    2    0    0 -0.32520041547E+03  0.64714483284E+02  0.30851121719E+03  0.47803148298E+03  0.15294330000E+03 0.  0.
<mgrwt>
<rscale>  0 0.61857699E+03</rscale>
<asrwt>0</asrwt>
<pdfrwt beam="1">  1        2 0.21760153E+00 0.73739642E+03</pdfrwt>
<pdfrwt beam="2">  1       -2 0.33520683E-01 0.73739642E+03</pdfrwt>
<totfact> 0.12015162E+02</totfact>
</mgrwt>
</event>
<event>
 4    1  0.7595604E-007  0.7617767E+03  0.7818608E-02  0.9800529E-01
          2   -1    0    0  501    0  0.00000000000E+00  0.00000000000E+00  0.97285805580E+03  0.97285805581E+03  0.25500000000E-02 0. -1.
         -2   -1    0    0    0  501 -0.00000000000E+00 -0.00000000000E+00 -0.13414716654E+04  0.13414716654E+04  0.25500000000E-02 0.  1.
    8880023    1    1    2    0    0  0.18356373690E+03 -0.33585390669E+03 -0.11798423075E+04  0.14043972262E+04  0.65864270000E+03 0.  1.
    8880022    1    1    2    0    0 -0.18356373690E+03  0.33585390669E+03  0.81122869790E+03  0.90993249500E+03  0.15294330000E+03 0.  0.
<mgrwt>
<rscale>  0 0.65334140E+03</rscale>
<asrwt>0</asrwt>
<pdfrwt beam="1">  1        2 0.14967047E+00 0.76177667E+03</pdfrwt>
<pdfrwt beam="2">  1       -2 0.20638026E+00 0.76177667E+03</pdfrwt>
<totfact> 0.32428013E+00</totfact>
</mgrwt>
</event>
<event>
 4    1  0.7595604E-007  0.6612099E+03  0.7818608E-02  0.1022950E+00
         -2   -1    0    0    0  501 -0.00000000000E+00  0.00000000000E+00  0.56351029337E+02  0.56351029395E+02  0.25500000000E-02 0.  1.
          2   -1    0    0  501    0  0.00000000000E+00 -0.00000000000E+00 -0.35516629122E+04  0.35516629122E+04  0.25500000000E-02 0. -1.
    8880023    1    1    2    0    0 -0.33112328869E+02  0.47873252255E+02 -0.20627113623E+04  0.21660970996E+04  0.65864270000E+03 0.  0.
    8880022    1    1    2    0    0  0.33112328869E+02 -0.47873252255E+02 -0.14326005206E+04  0.14419168420E+04  0.15294330000E+03 0. -1.
<mgrwt>
<rscale>  0 0.46637006E+03</rscale>
<asrwt>0</asrwt>
<pdfrwt beam="1">  1        2 0.54640950E+00 0.66120986E+03</pdfrwt>
<pdfrwt beam="2">  1       -2 0.86693919E-02 0.66120986E+03</pdfrwt>
<totfact> 0.70701449E+01</totfact>
</mgrwt>
</event>
<event>
 4    1  0.7595604E-007  0.9463552E+03  0.7818608E-02  0.9455378E-01
         -2   -1    0    0    0  501 -0.00000000000E+00  0.00000000000E+00  0.52393158244E+03  0.52393158245E+03  0.25500000000E-02 0.  1.
          2   -1    0    0  501    0  0.00000000000E+00 -0.00000000000E+00 -0.23992236692E+04  0.23992236692E+04  0.25500000000E-02 0. -1.
    8880023    1    1    2    0    0 -0.67923881629E+03 -0.20314158924E+02 -0.25644762065E+02  0.94670264323E+03  0.65864270000E+03 0.  1.
    8880022    1    1    2    0    0  0.67923881629E+03  0.20314158924E+02 -0.18496473247E+04  0.19764526085E+04  0.15294330000E+03 0.  0.
<mgrwt>
<rscale>  0 0.87655133E+03</rscale>
<asrwt>0</asrwt>
<pdfrwt beam="1">  1        2 0.36911133E+00 0.94635524E+03</pdfrwt>
<pdfrwt beam="2">  1       -2 0.80604860E-01 0.94635524E+03</pdfrwt>
<totfact> 0.54925637E+00</totfact>
</mgrwt>
</event>
<event>
 4    1  0.7595604E-007  0.7070562E+03  0.7818608E-02  0.9969099E-01
         -2   -1    0    0    0  501 -0.00000000000E+00  0.00000000000E+00  0.15031161824E+03  0.15031161827E+03  0.25500000000E-02 0.  1.
          2   -1    0    0  501    0  0.00000000000E+00 -0.00000000000E+00 -0.31337645767E+04  0.31337645767E+04  0.25500000000E-02 0. -1.
    8880023    1    1    2    0    0  0.61781945258E+02  0.24960208439E+03 -0.75025734610E+03  0.10309289505E+04  0.65864270000E+03 0.  1.
    8880022    1    1    2    0    0 -0.61781945258E+02 -0.24960208439E+03 -0.22331956124E+04  0.22531472445E+04  0.15294330000E+03 0.  0.
<mgrwt>
<rscale>  0 0.57026182E+03</rscale>
<asrwt>0</asrwt>
<pdfrwt beam="1">  1        2 0.48211758E+00 0.70705616E+03</pdfrwt>
<pdfrwt beam="2">  1       -2 0.23124867E-01 0.70705616E+03</pdfrwt>
<totfact> 0.25271149E+01</totfact>
</mgrwt>
</event>
<event>
 4    1  0.7595604E-007  0.9283444E+03  0.7818608E-02  0.9481981E-01
          2   -1    0    0  501    0  0.00000000000E+00  0.00000000000E+00  0.30516788336E+04  0.30516788336E+04  0.25500000000E-02 0. -1.
         -2   -1    0    0    0  501 -0.00000000000E+00 -0.00000000000E+00 -0.34356562756E+03  0.34356562757E+03  0.25500000000E-02 0.  1.
    8880023    1    1    2    0    0  0.64743251614E+03 -0.94043449011E+02  0.43553999904E+03  0.10254356783E+04  0.65864270000E+03 0.  1.
    8880022    1    1    2    0    0 -0.64743251614E+03  0.94043449011E+02  0.22725732070E+04  0.23698087828E+04  0.15294330000E+03 0.  0.
<mgrwt>
<rscale>  0 0.85625394E+03</rscale>
<asrwt>0</asrwt>
<pdfrwt beam="1">  1        2 0.46948906E+00 0.92834435E+03</pdfrwt>
<pdfrwt beam="2">  1       -2 0.52856249E-01 0.92834435E+03</pdfrwt>
<totfact> 0.56456725E+00</totfact>
</mgrwt>
</event>
<event>
 4    1  0.7595604E-007  0.8507992E+03  0.7818608E-02  0.9610144E-01
          2   -1    0    0  501    0  0.00000000000E+00  0.00000000000E+00  0.50613411423E+03  0.50613411424E+03  0.25500000000E-02 0. -1.
         -2   -1    0    0    0  501 -0.00000000000E+00 -0.00000000000E+00 -0.13619531475E+04  0.13619531475E+04  0.25500000000E-02 0.  1.
    8880023    1    1    2    0    0 -0.15526865681E+03  0.51569441068E+03 -0.97672918511E+03  0.12953220404E+04  0.65864270000E+03 0.  0.
    8880022    1    1    2    0    0  0.15526865681E+03 -0.51569441068E+03  0.12091015182E+03  0.57276522138E+03  0.15294330000E+03 0.  0.
<mgrwt>
<rscale>  0 0.76628396E+03</rscale>
<asrwt>0</asrwt>
<pdfrwt beam="1">  1        2 0.77866787E-01 0.85079921E+03</pdfrwt>
<pdfrwt beam="2">  1       -2 0.20953125E+00 0.85079921E+03</pdfrwt>
<totfact> 0.70697310E+00</totfact>
</mgrwt>
</event>
<event>
 4    1  0.7595604E-007  0.6905120E+03  0.7818608E-02  0.1003910E+00
          2   -1    0    0  501    0  0.00000000000E+00  0.00000000000E+00  0.10729623698E+04  0.10729623698E+04  0.25500000000E-02 0. -1.
         -2   -1    0    0    0  501 -0.00000000000E+00 -0.00000000000E+00 -0.32540290828E+03  0.32540290829E+03  0.25500000000E-02 0.  1.
    8880023    1    1    2    0    0 -0.19198193988E+03  0.78355615242E+02  0.95298140356E+02  0.69705710634E+03  0.65864270000E+03 0.  1.
    8880022    1    1    2    0    0  0.19198193988E+03 -0.78355615242E+02  0.65226132115E+03  0.70130817175E+03  0.15294330000E+03 0.  0.
<mgrwt>
<rscale>  0 0.53968445E+03</rscale>
<asrwt>0</asrwt>
<pdfrwt beam="1">  1        2 0.16507113E+00 0.69051204E+03</pdfrwt>
<pdfrwt beam="2">  1       -2 0.50061986E-01 0.69051204E+03</pdfrwt>
<totfact> 0.87154660E+01</totfact>
</mgrwt>
</event>
<event>
 4    1  0.7595604E-007  0.8671153E+03  0.7818608E-02  0.9581030E-01
          2   -1    0    0  501    0  0.00000000000E+00  0.00000000000E+00  0.15184430087E+04  0.15184430087E+04  0.25500000000E-02 0. -1.
         -2   -1    0    0    0  501 -0.00000000000E+00 -0.00000000000E+00 -0.69095841728E+03  0.69095841729E+03  0.25500000000E-02 0.  1.
    8880023    1    1    2    0    0  0.55304203023E+03  0.11055899311E+03 -0.31790973693E+03  0.92355594593E+03  0.65864270000E+03 0.  0.
    8880022    1    1    2    0    0 -0.55304203023E+03 -0.11055899311E+03  0.11453943284E+04  0.12858454801E+04  0.15294330000E+03 0.  0.
<mgrwt>
<rscale>  0 0.78564578E+03</rscale>
<asrwt>0</asrwt>
<pdfrwt beam="1">  1        2 0.23360661E+00 0.86711532E+03</pdfrwt>
<pdfrwt beam="2">  1       -2 0.10630130E+00 0.86711532E+03</pdfrwt>
<totfact> 0.89307090E+00</totfact>
</mgrwt>
</event>
<event>
 4    1  0.7595604E-007  0.7805257E+03  0.7818608E-02  0.9754604E-01
          2   -1    0    0  501    0  0.00000000000E+00  0.00000000000E+00  0.17085638712E+04  0.17085638712E+04  0.25500000000E-02 0. -1.
         -2   -1    0    0    0  501 -0.00000000000E+00 -0.00000000000E+00 -0.54611134705E+03  0.54611134705E+03  0.25500000000E-02 0.  1.
    8880023    1    1    2    0    0 -0.27356564810E+03  0.31713078790E+03 -0.21274708339E+03  0.80900038827E+03  0.65864270000E+03 0.  1.
    8880022    1    1    2    0    0  0.27356564810E+03 -0.31713078790E+03  0.13751996075E+04  0.14456748300E+04  0.15294330000E+03 0.  0.
<mgrwt>
<rscale>  0 0.67856728E+03</rscale>
<asrwt>0</asrwt>
<pdfrwt beam="1">  1        2 0.26285598E+00 0.78052566E+03</pdfrwt>
<pdfrwt beam="2">  1       -2 0.84017131E-01 0.78052566E+03</pdfrwt>
<totfact> 0.12293198E+01</totfact>
</mgrwt>
</event>
<event>
 4    1  0.7595604E-007  0.7523639E+03  0.7818608E-02  0.9825293E-01
          2   -1    0    0  501    0  0.00000000000E+00  0.00000000000E+00  0.22477033400E+04  0.22477033400E+04  0.25500000000E-02 0. -1.
         -2   -1    0    0    0  501 -0.00000000000E+00 -0.00000000000E+00 -0.17207734023E+03  0.17207734025E+03  0.25500000000E-02 0.  1.
    8880023    1    1    2    0    0 -0.36240367719E+03 -0.30080065028E+02  0.86459632638E+03  0.11461144137E+04  0.65864270000E+03 0.  0.
    8880022    1    1    2    0    0  0.36240367719E+03  0.30080065028E+02  0.12110296734E+04  0.12736662665E+04  0.15294330000E+03 0.  0.
<mgrwt>
<rscale>  0 0.64022648E+03</rscale>
<asrwt>0</asrwt>
<pdfrwt beam="1">  1        2 0.34580054E+00 0.75236390E+03</pdfrwt>
<pdfrwt beam="2">  1       -2 0.26473435E-01 0.75236390E+03</pdfrwt>
<totfact> 0.64767382E+01</totfact>
</mgrwt>
</event>
<event>
 4    1  0.7595604E-007  0.7597788E+03  0.7818608E-02  0.9805681E-01
          2   -1    0    0  501    0  0.00000000000E+00  0.00000000000E+00  0.14960063825E+04  0.14960063825E+04  0.25500000000E-02 0. -1.
         -2   -1    0    0    0  501 -0.00000000000E+00 -0.00000000000E+00 -0.24836944539E+03  0.24836944540E+03  0.25500000000E-02 0.  1.
    8880023    1    1    2    0    0  0.37650898070E+03  0.41165464757E+02  0.55733417070E+03  0.94227660065E+03  0.65864270000E+03 0.  1.
    8880022    1    1    2    0    0 -0.37650898070E+03 -0.41165464757E+02  0.69030276646E+03  0.80209922730E+03  0.15294330000E+03 0. -1.
<mgrwt>
<rscale>  0 0.65058585E+03</rscale>
<asrwt>0</asrwt>
<pdfrwt beam="1">  1        2 0.23015483E+00 0.75977879E+03</pdfrwt>
<pdfrwt beam="2">  1       -2 0.38210684E-01 0.75977879E+03</pdfrwt>
<totfact> 0.84025146E+01</totfact>
</mgrwt>
</event>
<event>
 4    1  0.7595604E-007  0.1292261E+04  0.7818608E-02  0.9072272E-01
          2   -1    0    0  501    0  0.00000000000E+00  0.00000000000E+00  0.26704271433E+04  0.26704271433E+04  0.25500000000E-02 0. -1.
         -2   -1    0    0    0  501 -0.00000000000E+00 -0.00000000000E+00 -0.94414642121E+03  0.94414642121E+03  0.25500000000E-02 0.  1.
    8880023    1    1    2    0    0  0.65505622552E+03  0.89834880371E+03 -0.27397581285E+03  0.13209853080E+04  0.65864270000E+03 0.  0.
    8880022    1    1    2    0    0 -0.65505622552E+03 -0.89834880371E+03  0.20002565349E+04  0.22935882565E+04  0.15294330000E+03 0.  0.
<mgrwt>
<rscale>  0 0.12474939E+04</rscale>
<asrwt>0</asrwt>
<pdfrwt beam="1">  1        2 0.41083494E+00 0.12922614E+04</pdfrwt>
<pdfrwt beam="2">  1       -2 0.14525330E+00 0.12922614E+04</pdfrwt>
<totfact> 0.87381814E-01</totfact>
</mgrwt>
</event>
<event>
 4    1  0.7595604E-007  0.6740687E+03  0.7818608E-02  0.1012900E+00
         -2   -1    0    0    0  501 -0.00000000000E+00  0.00000000000E+00  0.18139121694E+03  0.18139121696E+03  0.25500000000E-02 0.  1.
          2   -1    0    0  501    0  0.00000000000E+00 -0.00000000000E+00 -0.12310830363E+04  0.12310830363E+04  0.25500000000E-02 0. -1.
    8880023    1    1    2    0    0  0.10419840765E+03 -0.98494381850E+02 -0.54792119400E+03  0.86866926532E+03  0.65864270000E+03 0.  1.
    8880022    1    1    2    0    0 -0.10419840765E+03  0.98494381850E+02 -0.50177062534E+03  0.54380498792E+03  0.15294330000E+03 0.  0.
<mgrwt>
<rscale>  0 0.50338251E+03</rscale>
<asrwt>0</asrwt>
<pdfrwt beam="1">  1        2 0.18939738E+00 0.67406873E+03</pdfrwt>
<pdfrwt beam="2">  1       -2 0.27906342E-01 0.67406873E+03</pdfrwt>
<totfact> 0.21631076E+02</totfact>
</mgrwt>
</event>
<event>
 4    1  0.7595604E-007  0.7616732E+03  0.7818608E-02  0.9800795E-01
          2   -1    0    0  501    0  0.00000000000E+00  0.00000000000E+00  0.17505153764E+04  0.17505153764E+04  0.25500000000E-02 0. -1.
         -2   -1    0    0    0  501 -0.00000000000E+00 -0.00000000000E+00 -0.28352712060E+03  0.28352712061E+03  0.25500000000E-02 0.  1.
    8880023    1    1    2    0    0  0.36672387627E+03 -0.10885543443E+03  0.34000126705E+03  0.83411448548E+03  0.65864270000E+03 0.  1.
    8880022    1    1    2    0    0 -0.36672387627E+03  0.10885543443E+03  0.11269869888E+04  0.11999280115E+04  0.15294330000E+03 0.  0.
<mgrwt>
<rscale>  0 0.65319908E+03</rscale>
<asrwt>0</asrwt>
<pdfrwt beam="1">  1        2 0.26931006E+00 0.76167323E+03</pdfrwt>
<pdfrwt beam="2">  1       -2 0.43619556E-01 0.76167323E+03</pdfrwt>
<totfact> 0.46938547E+01</totfact>
</mgrwt>
</event>
<event>
 4    1  0.8515742E-007  0.6738666E+03  0.7818608E-02  0.1013030E+00
         -2   -1    0    0    0  501 -0.00000000000E+00  0.00000000000E+00  0.10502574160E+04  0.10502574160E+04  0.25500000000E-02 0.  1.
          2   -1    0    0  501    0  0.00000000000E+00 -0.00000000000E+00 -0.11309977860E+04  0.11309977860E+04  0.25500000000E-02 0. -1.
    8880023    1    1    2    0    0  0.12135909108E+03  0.74551483782E+02  0.93036814220E+03  0.11487737110E+04  0.65864270000E+03 0.  1.
    8880022    1    1    2    0    0 -0.12135909108E+03 -0.74551483782E+02 -0.10111085123E+04  0.10324814910E+04  0.15294330000E+03 0.  0.
<mgrwt>
<rscale>  0 0.50287818E+03</rscale>
<asrwt>0</asrwt>
<pdfrwt beam="1">  1        2 0.17399966E+00 0.67386657E+03</pdfrwt>
<pdfrwt beam="2">  1       -2 0.16157806E+00 0.67386657E+03</pdfrwt>
<totfact> 0.52806603E+00</totfact>
</mgrwt>
</event>
<event>
 4    1  0.7595604E-007  0.7030984E+03  0.7818608E-02  0.9984583E-01
         -2   -1    0    0    0  501 -0.00000000000E+00  0.00000000000E+00  0.18612579579E+03  0.18612579581E+03  0.25500000000E-02 0.  1.
          2   -1    0    0  501    0  0.00000000000E+00 -0.00000000000E+00 -0.13571093241E+04  0.13571093241E+04  0.25500000000E-02 0. -1.
    8880023    1    1    2    0    0 -0.18147181856E+02  0.24537296353E+03 -0.71332065715E+03  0.10015856317E+04  0.65864270000E+03 0.  0.
    8880022    1    1    2    0    0  0.18147181856E+02 -0.24537296353E+03 -0.45766287120E+03  0.54164948826E+03  0.15294330000E+03 0.  1.
<mgrwt>
<rscale>  0 0.56331462E+03</rscale>
<asrwt>0</asrwt>
<pdfrwt beam="1">  1        2 0.20878604E+00 0.70309844E+03</pdfrwt>
<pdfrwt beam="2">  1       -2 0.28634739E-01 0.70309844E+03</pdfrwt>
<totfact> 0.17417173E+02</totfact>
</mgrwt>
</event>
<event>
 4    1  0.7595604E-007  0.9909566E+03  0.7818608E-02  0.9393486E-01
         -2   -1    0    0    0  501 -0.00000000000E+00  0.00000000000E+00  0.43017593305E+03  0.43017593306E+03  0.25500000000E-02 0.  1.
          2   -1    0    0  501    0  0.00000000000E+00 -0.00000000000E+00 -0.27263442766E+04  0.27263442766E+04  0.25500000000E-02 0. -1.
    8880023    1    1    2    0    0 -0.39281286791E+03 -0.62760091654E+03 -0.21759786746E+04  0.23909994267E+04  0.65864270000E+03 0.  0.
    8880022    1    1    2    0    0  0.39281286791E+03  0.62760091654E+03 -0.12018966891E+03  0.76552078297E+03  0.15294330000E+03 0.  0.
<mgrwt>
<rscale>  0 0.92613711E+03</rscale>
<asrwt>0</asrwt>
<pdfrwt beam="1">  1        2 0.41943757E+00 0.99095664E+03</pdfrwt>
<pdfrwt beam="2">  1       -2 0.66180915E-01 0.99095664E+03</pdfrwt>
<totfact> 0.54708603E+00</totfact>
</mgrwt>
</event>
<event>
 4    1  0.7595604E-007  0.9246815E+03  0.7818608E-02  0.9487518E-01
          2   -1    0    0  501    0  0.00000000000E+00  0.00000000000E+00  0.12104816805E+04  0.12104816805E+04  0.25500000000E-02 0. -1.
         -2   -1    0    0    0  501 -0.00000000000E+00 -0.00000000000E+00 -0.15011530721E+04  0.15011530721E+04  0.25500000000E-02 0.  1.
    8880023    1    1    2    0    0  0.41328829953E+03  0.50041823692E+03 -0.12429096325E+04  0.15491482147E+04  0.65864270000E+03 0.  0.
    8880022    1    1    2    0    0 -0.41328829953E+03 -0.50041823692E+03  0.95223824085E+03  0.11624865379E+04  0.15294330000E+03 0.  0.
<mgrwt>
<rscale>  0 0.85210362E+03</rscale>
<asrwt>0</asrwt>
<pdfrwt beam="1">  1        2 0.18622795E+00 0.92468148E+03</pdfrwt>
<pdfrwt beam="2">  1       -2 0.23094663E+00 0.92468148E+03</pdfrwt>
<totfact> 0.15824437E+00</totfact>
</mgrwt>
</event>
<event>
 4    1  0.7595604E-007  0.7536884E+03  0.7818608E-02  0.9821730E-01
         -2   -1    0    0    0  501 -0.00000000000E+00  0.00000000000E+00  0.66372779370E+03  0.66372779371E+03  0.25500000000E-02 0.  1.
          2   -1    0    0  501    0  0.00000000000E+00 -0.00000000000E+00 -0.90555181224E+03  0.90555181224E+03  0.25500000000E-02 0. -1.
    8880023    1    1    2    0    0 -0.22962989287E+03  0.28549264031E+03  0.37024662677E+03  0.83971942116E+03  0.65864270000E+03 0.  1.
    8880022    1    1    2    0    0  0.22962989287E+03 -0.28549264031E+03 -0.61207064531E+03  0.72956018479E+03  0.15294330000E+03 0.  0.
<mgrwt>
<rscale>  0 0.64209292E+03</rscale>
<asrwt>0</asrwt>
<pdfrwt beam="1">  1        2 0.13931566E+00 0.75368836E+03</pdfrwt>
<pdfrwt beam="2">  1       -2 0.10211197E+00 0.75368836E+03</pdfrwt>
<totfact> 0.23187604E+01</totfact>
</mgrwt>
</event>
<event>
 4    1  0.7595604E-007  0.8718257E+03  0.7818608E-02  0.9572864E-01
          2   -1    0    0  501    0  0.00000000000E+00  0.00000000000E+00  0.88005524817E+03  0.88005524817E+03  0.25500000000E-02 0. -1.
         -2   -1    0    0    0  501 -0.00000000000E+00 -0.00000000000E+00 -0.15706541689E+04  0.15706541689E+04  0.25500000000E-02 0.  1.
    8880023    1    1    2    0    0  0.47661708821E+03 -0.31481108889E+03 -0.13233143815E+04  0.15846895687E+04  0.65864270000E+03 0.  1.
    8880022    1    1    2    0    0 -0.47661708821E+03  0.31481108889E+03  0.63271546080E+03  0.86601984839E+03  0.15294330000E+03 0. -1.
<mgrwt>
<rscale>  0 0.79118535E+03</rscale>
<asrwt>0</asrwt>
<pdfrwt beam="1">  1        2 0.13539312E+00 0.87182571E+03</pdfrwt>
<pdfrwt beam="2">  1       -2 0.24163910E+00 0.87182571E+03</pdfrwt>
<totfact> 0.22164351E+00</totfact>
</mgrwt>
</event>
<event>
 4    1  0.7595604E-007  0.6690555E+03  0.7818608E-02  0.1016349E+00
         -2   -1    0    0    0  501 -0.00000000000E+00  0.00000000000E+00  0.38357137807E+03  0.38357137808E+03  0.25500000000E-02 0.  1.
          2   -1    0    0  501    0  0.00000000000E+00 -0.00000000000E+00 -0.57265951496E+03  0.57265951496E+03  0.25500000000E-02 0. -1.
    8880023    1    1    2    0    0  0.83326155526E+02 -0.82956866141E+02  0.23100747172E+02  0.66945421099E+03  0.65864270000E+03 0.  1.
    8880022    1    1    2    0    0 -0.83326155526E+02  0.82956866141E+02 -0.21218888406E+03  0.28677668205E+03  0.15294330000E+03 0.  0.
<mgrwt>
<rscale>  0 0.49027406E+03</rscale>
<asrwt>0</asrwt>
<pdfrwt beam="1">  1        2 0.88101464E-01 0.66905553E+03</pdfrwt>
<pdfrwt beam="2">  1       -2 0.59010981E-01 0.66905553E+03</pdfrwt>
<totfact> 0.14282471E+02</totfact>
</mgrwt>
</event>
<event>
 4    1  0.7595604E-007  0.6632242E+03  0.7818608E-02  0.1021072E+00
         -2   -1    0    0    0  501 -0.00000000000E+00  0.00000000000E+00  0.19483629091E+03  0.19483629093E+03  0.25500000000E-02 0.  1.
          2   -1    0    0  501    0  0.00000000000E+00 -0.00000000000E+00 -0.20956903528E+04  0.20956903528E+04  0.25500000000E-02 0. -1.
    8880023    1    1    2    0    0  0.70660330469E+02 -0.32608210084E+02 -0.38884078047E+03  0.76880656636E+03  0.65864270000E+03 0.  1.
    8880022    1    1    2    0    0 -0.70660330469E+02  0.32608210084E+02 -0.15120132815E+04  0.15217200774E+04  0.15294330000E+03 0.  0.
<mgrwt>
<rscale>  0 0.47301722E+03</rscale>
<asrwt>0</asrwt>
<pdfrwt beam="1">  1        2 0.32241389E+00 0.66322423E+03</pdfrwt>
<pdfrwt beam="2">  1       -2 0.29974815E-01 0.66322423E+03</pdfrwt>
<totfact> 0.63200306E+01</totfact>
</mgrwt>
</event>
<event>
 4    1  0.7595604E-007  0.9026308E+03  0.7818608E-02  0.9521821E-01
          2   -1    0    0  501    0  0.00000000000E+00  0.00000000000E+00  0.21883080447E+04  0.21883080447E+04  0.25500000000E-02 0. -1.
         -2   -1    0    0    0  501 -0.00000000000E+00 -0.00000000000E+00 -0.11016275724E+04  0.11016275725E+04  0.25500000000E-02 0.  1.
    8880023    1    1    2    0    0  0.29241851258E+03  0.54352878292E+03 -0.85713629627E+03  0.12447589972E+04  0.65864270000E+03 0.  1.
    8880022    1    1    2    0    0 -0.29241851258E+03 -0.54352878292E+03  0.19438167685E+04  0.20451766200E+04  0.15294330000E+03 0.  0.
<mgrwt>
<rscale>  0 0.82693955E+03</rscale>
<asrwt>0</asrwt>
<pdfrwt beam="1">  1        2 0.33666277E+00 0.90263078E+03</pdfrwt>
<pdfrwt beam="2">  1       -2 0.16948117E+00 0.90263078E+03</pdfrwt>
<totfact> 0.11447752E+00</totfact>
</mgrwt>
</event>
<event>
 4    1  0.7595604E-007  0.7981623E+03  0.7818608E-02  0.9714784E-01
         -2   -1    0    0    0  501 -0.00000000000E+00  0.00000000000E+00  0.51108387260E+03  0.51108387260E+03  0.25500000000E-02 0.  1.
          2   -1    0    0  501    0  0.00000000000E+00 -0.00000000000E+00 -0.87933240280E+03  0.87933240280E+03  0.25500000000E-02 0. -1.
    8880023    1    1    2    0    0 -0.11109120655E+03 -0.43693423317E+03 -0.16218331932E+02  0.79832701372E+03  0.65864270000E+03 0.  1.
    8880022    1    1    2    0    0  0.11109120655E+03  0.43693423317E+03 -0.35203019827E+03  0.59208926168E+03  0.15294330000E+03 0.  0.
<mgrwt>
<rscale>  0 0.70143353E+03</rscale>
<asrwt>0</asrwt>
<pdfrwt beam="1">  1        2 0.13528191E+00 0.79816226E+03</pdfrwt>
<pdfrwt beam="2">  1       -2 0.78628288E-01 0.79816226E+03</pdfrwt>
<totfact> 0.43983270E+01</totfact>
</mgrwt>
</event>
<event>
 4    1  0.7595604E-007  0.7017304E+03  0.7818608E-02  0.9990097E-01
         -2   -1    0    0    0  501 -0.00000000000E+00  0.00000000000E+00  0.22152946144E+04  0.22152946144E+04  0.25500000000E-02 0.  1.
          2   -1    0    0  501    0  0.00000000000E+00 -0.00000000000E+00 -0.14324195197E+03  0.14324195199E+03  0.25500000000E-02 0. -1.
    8880023    1    1    2    0    0 -0.14054065674E+02 -0.24169785159E+03  0.18976511133E+04  0.20232412911E+04  0.65864270000E+03 0.  0.
    8880022    1    1    2    0    0  0.14054065674E+02  0.24169785159E+03  0.17440154912E+03  0.33529527521E+03  0.15294330000E+03 0.  0.
<mgrwt>
<rscale>  0 0.56086599E+03</rscale>
<asrwt>0</asrwt>
<pdfrwt beam="1">  1        2 0.22037225E-01 0.70173041E+03</pdfrwt>
<pdfrwt beam="2">  1       -2 0.34081454E+00 0.70173041E+03</pdfrwt>
<totfact> 0.47584520E+00</totfact>
</mgrwt>
</event>
<event>
 4    1  0.7595604E-007  0.1325478E+04  0.7818608E-02  0.9043865E-01
          2   -1    0    0  501    0  0.00000000000E+00  0.00000000000E+00  0.17165252891E+04  0.17165252891E+04  0.25500000000E-02 0. -1.
         -2   -1    0    0    0  501 -0.00000000000E+00 -0.00000000000E+00 -0.94640546032E+03  0.94640546033E+03  0.25500000000E-02 0.  1.
    8880023    1    1    2    0    0  0.63376246982E+03  0.95990983007E+03  0.11515768137E+03  0.13304710624E+04  0.65864270000E+03 0.  0.
    8880022    1    1    2    0    0 -0.63376246982E+03 -0.95990983007E+03  0.65496214740E+03  0.13324596870E+04  0.15294330000E+03 0.  0.
<mgrwt>
<rscale>  0 0.12821213E+04</rscale>
<asrwt>0</asrwt>
<pdfrwt beam="1">  1        2 0.26408081E+00 0.13254780E+04</pdfrwt>
<pdfrwt beam="2">  1       -2 0.14560084E+00 0.13254780E+04</pdfrwt>
<totfact> 0.29901609E+00</totfact>
</mgrwt>
</event>
<event>
 4    1  0.7595604E-007  0.1175620E+04  0.7818608E-02  0.9181194E-01
         -2   -1    0    0    0  501 -0.00000000000E+00  0.00000000000E+00  0.81590498437E+03  0.81590498438E+03  0.25500000000E-02 0.  1.
          2   -1    0    0  501    0  0.00000000000E+00 -0.00000000000E+00 -0.17091808453E+04  0.17091808453E+04  0.25500000000E-02 0. -1.
    8880023    1    1    2    0    0  0.11020850880E+03  0.96753586459E+03  0.27867089156E+02  0.11759499758E+04  0.65864270000E+03 0.  0.
    8880022    1    1    2    0    0 -0.11020850880E+03 -0.96753586459E+03 -0.92114295007E+03  0.13491358539E+04  0.15294330000E+03 0.  0.
<mgrwt>
<rscale>  0 0.11249666E+04</rscale>
<asrwt>0</asrwt>
<pdfrwt beam="1">  1        2 0.26295090E+00 0.11756197E+04</pdfrwt>
<pdfrwt beam="2">  1       -2 0.12552384E+00 0.11756197E+04</pdfrwt>
<totfact> 0.44921188E+00</totfact>
</mgrwt>
</event>
<event>
 4    1  0.7595604E-007  0.7452058E+03  0.7818608E-02  0.9845034E-01
         -2   -1    0    0    0  501 -0.00000000000E+00  0.00000000000E+00  0.38177371210E+03  0.38177371211E+03  0.25500000000E-02 0.  1.
          2   -1    0    0  501    0  0.00000000000E+00 -0.00000000000E+00 -0.11088796991E+04  0.11088796991E+04  0.25500000000E-02 0. -1.
    8880023    1    1    2    0    0 -0.18232874005E+03  0.29711555785E+03 -0.92904394825E+02  0.75097460477E+03  0.65864270000E+03 0.  1.
    8880022    1    1    2    0    0  0.18232874005E+03 -0.29711555785E+03 -0.63420159215E+03  0.73967880642E+03  0.15294330000E+03 0.  0.
<mgrwt>
<rscale>  0 0.63000733E+03</rscale>
<asrwt>0</asrwt>
<pdfrwt beam="1">  1        2 0.17059688E+00 0.74520576E+03</pdfrwt>
<pdfrwt beam="2">  1       -2 0.58734418E-01 0.74520576E+03</pdfrwt>
<totfact> 0.59255071E+01</totfact>
</mgrwt>
</event>
<event>
 4    1  0.7595604E-007  0.1300604E+04  0.7818608E-02  0.9065038E-01
         -2   -1    0    0    0  501 -0.00000000000E+00  0.00000000000E+00  0.22061646908E+04  0.22061646908E+04  0.25500000000E-02 0.  1.
          2   -1    0    0  501    0  0.00000000000E+00 -0.00000000000E+00 -0.19537684090E+04  0.19537684090E+04  0.25500000000E-02 0. -1.
    8880023    1    1    2    0    0  0.66852196298E+03 -0.90046652022E+03 -0.15550952607E+04  0.20272871146E+04  0.65864270000E+03 0. -1.
    8880022    1    1    2    0    0 -0.66852196298E+03  0.90046652022E+03  0.18074915425E+04  0.21326459852E+04  0.15294330000E+03 0.  0.
<mgrwt>
<rscale>  0 0.12562007E+04</rscale>
<asrwt>0</asrwt>
<pdfrwt beam="1">  1        2 0.30057976E+00 0.13006044E+04</pdfrwt>
<pdfrwt beam="2">  1       -2 0.33940995E+00 0.13006044E+04</pdfrwt>
<totfact> 0.12407290E-01</totfact>
</mgrwt>
</event>
<event>
 4    1  0.7595604E-007  0.8270541E+03  0.7818608E-02  0.9655092E-01
          2   -1    0    0  501    0  0.00000000000E+00  0.00000000000E+00  0.75649082907E+03  0.75649082907E+03  0.25500000000E-02 0. -1.
         -2   -1    0    0    0  501 -0.00000000000E+00 -0.00000000000E+00 -0.67913506647E+03  0.67913506648E+03  0.25500000000E-02 0.  1.
    8880023    1    1    2    0    0  0.60026767187E+02  0.49659345715E+03 -0.18940093972E+03  0.84846402204E+03  0.65864270000E+03 0.  0.
    8880022    1    1    2    0    0 -0.60026767187E+02 -0.49659345715E+03  0.26675670231E+03  0.58716187351E+03  0.15294330000E+03 0.  1.
<mgrwt>
<rscale>  0 0.73754740E+03</rscale>
<asrwt>0</asrwt>
<pdfrwt beam="1">  1        2 0.11638320E+00 0.82705410E+03</pdfrwt>
<pdfrwt beam="2">  1       -2 0.10448232E+00 0.82705410E+03</pdfrwt>
<totfact> 0.27785149E+01</totfact>
</mgrwt>
</event>
<event>
 4    1  0.7595604E-007  0.9461519E+03  0.7818608E-02  0.9455672E-01
         -2   -1    0    0    0  501 -0.00000000000E+00  0.00000000000E+00  0.25656730757E+03  0.25656730759E+03  0.25500000000E-02 0.  1.
          2   -1    0    0  501    0  0.00000000000E+00 -0.00000000000E+00 -0.29961103678E+04  0.29961103678E+04  0.25500000000E-02 0. -1.
    8880023    1    1    2    0    0 -0.37507912312E+03  0.56631157038E+03 -0.98873392426E+03  0.13685021456E+04  0.65864270000E+03 0.  0.
    8880022    1    1    2    0    0  0.37507912312E+03 -0.56631157038E+03 -0.17508091360E+04  0.18841755298E+04  0.15294330000E+03 0.  0.
<mgrwt>
<rscale>  0 0.87632310E+03</rscale>
<asrwt>0</asrwt>
<pdfrwt beam="1">  1        2 0.46094003E+00 0.94615186E+03</pdfrwt>
<pdfrwt beam="2">  1       -2 0.39471896E-01 0.94615186E+03</pdfrwt>
<totfact> 0.10951640E+01</totfact>
</mgrwt>
</event>
<event>
 4    1  0.7595604E-007  0.9722281E+03  0.7818608E-02  0.9418829E-01
         -2   -1    0    0    0  501 -0.00000000000E+00  0.00000000000E+00  0.12921470367E+04  0.12921470367E+04  0.25500000000E-02 0.  1.
          2   -1    0    0  501    0  0.00000000000E+00 -0.00000000000E+00 -0.74768673841E+03  0.74768673842E+03  0.25500000000E-02 0. -1.
    8880023    1    1    2    0    0  0.71408423061E+03 -0.38741305093E+02 -0.20401151359E+03  0.99340227555E+03  0.65864270000E+03 0.  0.
    8880022    1    1    2    0    0 -0.71408423061E+03  0.38741305093E+02  0.74847181191E+03  0.10464314996E+04  0.15294330000E+03 0.  0.
<mgrwt>
<rscale>  0 0.90542177E+03</rscale>
<asrwt>0</asrwt>
<pdfrwt beam="1">  1        2 0.11502873E+00 0.97222805E+03</pdfrwt>
<pdfrwt beam="2">  1       -2 0.19879185E+00 0.97222805E+03</pdfrwt>
<totfact> 0.50787528E+00</totfact>
</mgrwt>
</event>
<event>
 4    1  0.7595604E-007  0.7076624E+03  0.7818608E-02  0.9966786E-01
         -2   -1    0    0    0  501 -0.00000000000E+00  0.00000000000E+00  0.65990004487E+03  0.65990004488E+03  0.25500000000E-02 0.  1.
          2   -1    0    0  501    0  0.00000000000E+00 -0.00000000000E+00 -0.92512653328E+03  0.92512653328E+03  0.25500000000E-02 0. -1.
    8880023    1    1    2    0    0 -0.62827325603E+02 -0.25105508675E+03  0.42967300782E+03  0.82789191887E+03  0.65864270000E+03 0.  1.
    8880022    1    1    2    0    0  0.62827325603E+02  0.25105508675E+03 -0.69489949623E+03  0.75713465929E+03  0.15294330000E+03 0.  0.
<mgrwt>
<rscale>  0 0.57130917E+03</rscale>
<asrwt>0</asrwt>
<pdfrwt beam="1">  1        2 0.14232716E+00 0.70766244E+03</pdfrwt>
<pdfrwt beam="2">  1       -2 0.10152308E+00 0.70766244E+03</pdfrwt>
<totfact> 0.22920542E+01</totfact>
</mgrwt>
</event>
<event>
 4    1  0.7595604E-007  0.8981543E+03  0.7818608E-02  0.9529001E-01
         -2   -1    0    0    0  501 -0.00000000000E+00  0.00000000000E+00  0.52993807056E+03  0.52993807057E+03  0.25500000000E-02 0.  1.
          2   -1    0    0  501    0  0.00000000000E+00 -0.00000000000E+00 -0.11112569229E+04  0.11112569229E+04  0.25500000000E-02 0. -1.
    8880023    1    1    2    0    0 -0.60937982626E+03  0.39079997974E+02 -0.26343582733E+03  0.93599127147E+03  0.65864270000E+03 0.  1.
    8880022    1    1    2    0    0  0.60937982626E+03 -0.39079997974E+02 -0.31788302498E+03  0.70520372196E+03  0.15294330000E+03 0.  0.
<mgrwt>
<rscale>  0 0.82179052E+03</rscale>
<asrwt>0</asrwt>
<pdfrwt beam="1">  1        2 0.17096260E+00 0.89815434E+03</pdfrwt>
<pdfrwt beam="2">  1       -2 0.81528935E-01 0.89815434E+03</pdfrwt>
<totfact> 0.28502598E+01</totfact>
</mgrwt>
</event>
<event>
 4    1  0.7595604E-007  0.6761334E+03  0.7818608E-02  0.1011601E+00
          2   -1    0    0  501    0  0.00000000000E+00  0.00000000000E+00  0.13672262308E+04  0.13672262308E+04  0.25500000000E-02 0. -1.
         -2   -1    0    0    0  501 -0.00000000000E+00 -0.00000000000E+00 -0.17816409010E+03  0.17816409012E+03  0.25500000000E-02 0.  1.
    8880023    1    1    2    0    0  0.33089821626E+02  0.14916840309E+03  0.55263926150E+03  0.87325054159E+03  0.65864270000E+03 0. -1.
    8880022    1    1    2    0    0 -0.33089821626E+02 -0.14916840309E+03  0.63642287915E+03  0.67213977928E+03  0.15294330000E+03 0. -1.
<mgrwt>
<rscale>  0 0.50843193E+03</rscale>
<asrwt>0</asrwt>
<pdfrwt beam="1">  1        2 0.21034250E+00 0.67613339E+03</pdfrwt>
<pdfrwt beam="2">  1       -2 0.27409859E-01 0.67613339E+03</pdfrwt>
<totfact> 0.18663253E+02</totfact>
</mgrwt>
</event>
<event>
 4    1  0.7595604E-007  0.8396415E+03  0.7818608E-02  0.9630857E-01
         -2   -1    0    0    0  501 -0.00000000000E+00  0.00000000000E+00  0.12787297723E+04  0.12787297723E+04  0.25500000000E-02 0.  1.
          2   -1    0    0  501    0  0.00000000000E+00 -0.00000000000E+00 -0.49494826292E+03  0.49494826293E+03  0.25500000000E-02 0. -1.
    8880023    1    1    2    0    0  0.12310215198E+03 -0.50599754075E+03  0.88680245242E+03  0.12212356230E+04  0.65864270000E+03 0.  0.
    8880022    1    1    2    0    0 -0.12310215198E+03  0.50599754075E+03 -0.10302094305E+03  0.55244241220E+03  0.15294330000E+03 0.  0.
<mgrwt>
<rscale>  0 0.75287123E+03</rscale>
<asrwt>0</asrwt>
<pdfrwt beam="1">  1        2 0.76145886E-01 0.83964151E+03</pdfrwt>
<pdfrwt beam="2">  1       -2 0.19672766E+00 0.83964151E+03</pdfrwt>
<totfact> 0.87926389E+00</totfact>
</mgrwt>
</event>
<event>
 4    1  0.7595604E-007  0.6637752E+03  0.7818608E-02  0.1020584E+00
          2   -1    0    0  501    0  0.00000000000E+00  0.00000000000E+00  0.56630454586E+03  0.56630454587E+03  0.25500000000E-02 0. -1.
         -2   -1    0    0    0  501 -0.00000000000E+00 -0.00000000000E+00 -0.31158975079E+03  0.31158975080E+03  0.25500000000E-02 0.  1.
    8880023    1    1    2    0    0  0.53694179916E+02  0.62483839967E+02  0.22962424944E+03  0.70237084037E+03  0.65864270000E+03 0. -1.
    8880022    1    1    2    0    0 -0.53694179916E+02 -0.62483839967E+02  0.25090545634E+02  0.17552345629E+03  0.15294330000E+03 0.  1.
<mgrwt>
<rscale>  0 0.47476509E+03</rscale>
<asrwt>0</asrwt>
<pdfrwt beam="1">  1        2 0.87123776E-01 0.66377519E+03</pdfrwt>
<pdfrwt beam="2">  1       -2 0.47936885E-01 0.66377519E+03</pdfrwt>
<totfact> 0.22202521E+02</totfact>
</mgrwt>
</event>
<event>
 4    1  0.7595604E-007  0.1134624E+04  0.7818608E-02  0.9223452E-01
         -2   -1    0    0    0  501 -0.00000000000E+00  0.00000000000E+00  0.18708749604E+04  0.18708749604E+04  0.25500000000E-02 0.  1.
          2   -1    0    0  501    0  0.00000000000E+00 -0.00000000000E+00 -0.64091178683E+03  0.64091178683E+03  0.25500000000E-02 0. -1.
    8880023    1    1    2    0    0 -0.86328876380E+03 -0.32907899699E+03  0.10742100349E+04  0.15624653216E+04  0.65864270000E+03 0.  0.
    8880022    1    1    2    0    0  0.86328876380E+03  0.32907899699E+03  0.15575313872E+03  0.94932142565E+03  0.15294330000E+03 0.  0.
<mgrwt>
<rscale>  0 0.10814609E+04</rscale>
<asrwt>0</asrwt>
<pdfrwt beam="1">  1        2 0.98601815E-01 0.11346236E+04</pdfrwt>
<pdfrwt beam="2">  1       -2 0.28782691E+00 0.11346236E+04</pdfrwt>
<totfact> 0.17066265E+00</totfact>
</mgrwt>
</event>
<event>
 4    1  0.7595604E-007  0.6945991E+03  0.7818608E-02  0.1002039E+00
         -2   -1    0    0    0  501 -0.00000000000E+00  0.00000000000E+00  0.33284168875E+03  0.33284168876E+03  0.25500000000E-02 0.  1.
          2   -1    0    0  501    0  0.00000000000E+00 -0.00000000000E+00 -0.18852706268E+04  0.18852706268E+04  0.25500000000E-02 0. -1.
    8880023    1    1    2    0    0  0.29673061321E+02 -0.21858014971E+03 -0.54952931485E+02  0.69676954824E+03  0.65864270000E+03 0.  1.
    8880022    1    1    2    0    0 -0.29673061321E+02  0.21858014971E+03 -0.14974760066E+04  0.15213427673E+04  0.15294330000E+03 0.  0.
<mgrwt>
<rscale>  0 0.54765178E+03</rscale>
<asrwt>0</asrwt>
<pdfrwt beam="1">  1        2 0.29004163E+00 0.69459915E+03</pdfrwt>
<pdfrwt beam="2">  1       -2 0.51206415E-01 0.69459915E+03</pdfrwt>
<totfact> 0.28947078E+01</totfact>
</mgrwt>
</event>
<event>
 4    1  0.7884146E-007  0.7146532E+03  0.7818608E-02  0.9941111E-01
         -2   -1    0    0    0  501 -0.00000000000E+00  0.00000000000E+00  0.94932922351E+03  0.94932922352E+03  0.25500000000E-02 0.  1.
          2   -1    0    0  501    0  0.00000000000E+00 -0.00000000000E+00 -0.96149756938E+03  0.96149756938E+03  0.25500000000E-02 0. -1.
    8880023    1    1    2    0    0 -0.41412759549E+02 -0.27423354542E+03  0.77988085308E+03  0.10578012126E+04  0.65864270000E+03 0.  0.
    8880022    1    1    2    0    0  0.41412759549E+02  0.27423354542E+03 -0.79204919895E+03  0.85302558031E+03  0.15294330000E+03 0.  0.
<mgrwt>
<rscale>  0 0.58309583E+03</rscale>
<asrwt>0</asrwt>
<pdfrwt beam="1">  1        2 0.14792270E+00 0.71465324E+03</pdfrwt>
<pdfrwt beam="2">  1       -2 0.14605065E+00 0.71465324E+03</pdfrwt>
<totfact> 0.87686213E+00</totfact>
</mgrwt>
</event>
<event>
 4    1  0.7595604E-007  0.7398418E+03  0.7818608E-02  0.9860408E-01
          2   -1    0    0  501    0  0.00000000000E+00  0.00000000000E+00  0.19748731639E+04  0.19748731639E+04  0.25500000000E-02 0. -1.
         -2   -1    0    0    0  501 -0.00000000000E+00 -0.00000000000E+00 -0.25835496935E+03  0.25835496936E+03  0.25500000000E-02 0.  1.
    8880023    1    1    2    0    0 -0.26746300844E+03  0.20498590284E+03  0.35179828867E+03  0.81922397635E+03  0.65864270000E+03 0.  1.
    8880022    1    1    2    0    0  0.26746300844E+03 -0.20498590284E+03  0.13647199059E+04  0.14140041570E+04  0.15294330000E+03 0.  0.
<mgrwt>
<rscale>  0 0.62219046E+03</rscale>
<asrwt>0</asrwt>
<pdfrwt beam="1">  1        2 0.30382663E+00 0.73984180E+03</pdfrwt>
<pdfrwt beam="2">  1       -2 0.39746919E-01 0.73984180E+03</pdfrwt>
<totfact> 0.42623966E+01</totfact>
</mgrwt>
</event>
<event>
 4    1  0.7595604E-007  0.8992439E+03  0.7818608E-02  0.9527246E-01
         -2   -1    0    0    0  501 -0.00000000000E+00  0.00000000000E+00  0.22513378032E+04  0.22513378032E+04  0.25500000000E-02 0.  1.
          2   -1    0    0  501    0  0.00000000000E+00 -0.00000000000E+00 -0.26830112063E+03  0.26830112064E+03  0.25500000000E-02 0. -1.
    8880023    1    1    2    0    0 -0.62707593035E+02 -0.60901330145E+03  0.13776308437E+04  0.16451463130E+04  0.65864270000E+03 0.  0.
    8880022    1    1    2    0    0  0.62707593035E+02  0.60901330145E+03  0.60540583882E+03  0.87449261075E+03  0.15294330000E+03 0.  0.
<mgrwt>
<rscale>  0 0.82304517E+03</rscale>
<asrwt>0</asrwt>
<pdfrwt beam="1">  1        2 0.41277094E-01 0.89924393E+03</pdfrwt>
<pdfrwt beam="2">  1       -2 0.34635968E+00 0.89924393E+03</pdfrwt>
<totfact> 0.20995241E+00</totfact>
</mgrwt>
</event>
<event>
 4    1  0.7595604E-007  0.8167098E+03  0.7818608E-02  0.9675766E-01
          2   -1    0    0  501    0  0.00000000000E+00  0.00000000000E+00  0.22462149249E+04  0.22462149249E+04  0.25500000000E-02 0. -1.
         -2   -1    0    0    0  501 -0.00000000000E+00 -0.00000000000E+00 -0.59370629191E+03  0.59370629192E+03  0.25500000000E-02 0.  1.
    8880023    1    1    2    0    0  0.40768149197E+03  0.25884464052E+03 -0.26343506179E+03  0.85814508381E+03  0.65864270000E+03 0.  0.
    8880022    1    1    2    0    0 -0.40768149197E+03 -0.25884464052E+03  0.19159436947E+04  0.19817761330E+04  0.15294330000E+03 0.  0.
<mgrwt>
<rscale>  0 0.72478160E+03</rscale>
<asrwt>0</asrwt>
<pdfrwt beam="1">  1        2 0.34557153E+00 0.81670983E+03</pdfrwt>
<pdfrwt beam="2">  1       -2 0.91339428E-01 0.81670983E+03</pdfrwt>
<totfact> 0.51211999E+00</totfact>
</mgrwt>
</event>
<event>
 4    1  0.7595604E-007  0.7729672E+03  0.7818608E-02  0.9772624E-01
         -2   -1    0    0    0  501 -0.00000000000E+00  0.00000000000E+00  0.24665507820E+03  0.24665507821E+03  0.25500000000E-02 0.  1.
          2   -1    0    0  501    0  0.00000000000E+00 -0.00000000000E+00 -0.43824840567E+04  0.43824840567E+04  0.25500000000E-02 0. -1.
    8880023    1    1    2    0    0 -0.37931531185E+03 -0.14066976559E+03 -0.40371126307E+03  0.87204419553E+03  0.65864270000E+03 0. -1.
    8880022    1    1    2    0    0  0.37931531185E+03  0.14066976559E+03 -0.37321177154E+04  0.37570949393E+04  0.15294330000E+03 0. -1.
<mgrwt>
<rscale>  0 0.66852606E+03</rscale>
<asrwt>0</asrwt>
<pdfrwt beam="1">  1        2 0.67422826E+00 0.77296720E+03</pdfrwt>
<pdfrwt beam="2">  1       -2 0.37946938E-01 0.77296720E+03</pdfrwt>
<totfact> 0.11750025E+00</totfact>
</mgrwt>
</event>
<event>
 4    1  0.7595604E-007  0.7680991E+03  0.7818608E-02  0.9784574E-01
         -2   -1    0    0    0  501 -0.00000000000E+00  0.00000000000E+00  0.30961990724E+03  0.30961990725E+03  0.25500000000E-02 0.  1.
          2   -1    0    0  501    0  0.00000000000E+00 -0.00000000000E+00 -0.24865552693E+04  0.24865552693E+04  0.25500000000E-02 0. -1.
    8880023    1    1    2    0    0 -0.36519800137E+03  0.15098467900E+03 -0.22730448818E+03  0.80102652272E+03  0.65864270000E+03 0.  0.
    8880022    1    1    2    0    0  0.36519800137E+03 -0.15098467900E+03 -0.19496308739E+04  0.19951486538E+04  0.15294330000E+03 0. -1.
<mgrwt>
<rscale>  0 0.66197014E+03</rscale>
<asrwt>0</asrwt>
<pdfrwt beam="1">  1        2 0.38254695E+00 0.76809906E+03</pdfrwt>
<pdfrwt beam="2">  1       -2 0.47633834E-01 0.76809906E+03</pdfrwt>
<totfact> 0.15448598E+01</totfact>
</mgrwt>
</event>
<event>
 4    1  0.7595604E-007  0.7488898E+03  0.7818608E-02  0.9834770E-01
         -2   -1    0    0    0  501 -0.00000000000E+00  0.00000000000E+00  0.92041469627E+03  0.92041469627E+03  0.25500000000E-02 0.  1.
          2   -1    0    0  501    0  0.00000000000E+00 -0.00000000000E+00 -0.69722348115E+03  0.69722348115E+03  0.25500000000E-02 0. -1.
    8880023    1    1    2    0    0  0.25501387663E+03  0.24898509210E+03  0.68476141508E+03  0.10147581265E+04  0.65864270000E+03 0.  1.
    8880022    1    1    2    0    0 -0.25501387663E+03 -0.24898509210E+03 -0.46157019996E+03  0.60288005098E+03  0.15294330000E+03 0.  0.
<mgrwt>
<rscale>  0 0.63529530E+03</rscale>
<asrwt>0</asrwt>
<pdfrwt beam="1">  1        2 0.10726515E+00 0.74888975E+03</pdfrwt>
<pdfrwt beam="2">  1       -2 0.14160226E+00 0.74888975E+03</pdfrwt>
<totfact> 0.14570537E+01</totfact>
</mgrwt>
</event>
<event>
 4    1  0.7595604E-007  0.8715778E+03  0.7818608E-02  0.9573292E-01
          2   -1    0    0  501    0  0.00000000000E+00  0.00000000000E+00  0.34712781011E+04  0.34712781011E+04  0.25500000000E-02 0. -1.
         -2   -1    0    0    0  501 -0.00000000000E+00 -0.00000000000E+00 -0.28401072457E+03  0.28401072458E+03  0.25500000000E-02 0.  1.
    8880023    1    1    2    0    0  0.45882103727E+03 -0.33958933816E+03  0.50209567927E+03  0.10058568190E+04  0.65864270000E+03 0.  1.
    8880022    1    1    2    0    0 -0.45882103727E+03  0.33958933816E+03  0.26851716972E+04  0.27494320067E+04  0.15294330000E+03 0.  0.
<mgrwt>
<rscale>  0 0.79089432E+03</rscale>
<asrwt>0</asrwt>
<pdfrwt beam="1">  1        2 0.53404281E+00 0.87157780E+03</pdfrwt>
<pdfrwt beam="2">  1       -2 0.43693956E-01 0.87157780E+03</pdfrwt>
<totfact> 0.44751229E+00</totfact>
</mgrwt>
</event>
<event>
 4    1  0.7595604E-007  0.6672807E+03  0.7818608E-02  0.1017692E+00
         -2   -1    0    0    0  501 -0.00000000000E+00  0.00000000000E+00  0.50352732199E+03  0.50352732199E+03  0.25500000000E-02 0.  1.
          2   -1    0    0  501    0  0.00000000000E+00 -0.00000000000E+00 -0.54553156030E+03  0.54553156031E+03  0.25500000000E-02 0. -1.
    8880023    1    1    2    0    0 -0.81898068805E+02 -0.68891071509E+02  0.24148387060E+03  0.70963225648E+03  0.65864270000E+03 0.  1.
    8880022    1    1    2    0    0  0.81898068805E+02  0.68891071509E+02 -0.28348810892E+03  0.33942662583E+03  0.15294330000E+03 0.  0.
<mgrwt>
<rscale>  0 0.48528721E+03</rscale>
<asrwt>0</asrwt>
<pdfrwt beam="1">  1        2 0.83927933E-01 0.66728066E+03</pdfrwt>
<pdfrwt beam="2">  1       -2 0.77465741E-01 0.66728066E+03</pdfrwt>
<totfact> 0.83966134E+01</totfact>
</mgrwt>
</event>
<event>
 4    1  0.7595604E-007  0.9190535E+03  0.7818608E-02  0.9496112E-01
         -2   -1    0    0    0  501 -0.00000000000E+00  0.00000000000E+00  0.11141133221E+04  0.11141133221E+04  0.25500000000E-02 0.  1.
          2   -1    0    0  501    0  0.00000000000E+00 -0.00000000000E+00 -0.13553605454E+04  0.13553605454E+04  0.25500000000E-02 0. -1.
    8880023    1    1    2    0    0 -0.19066476996E+03 -0.61196085213E+03  0.81245734376E+03  0.12266810020E+04  0.65864270000E+03 0.  1.
    8880022    1    1    2    0    0  0.19066476996E+03  0.61196085213E+03 -0.10537045670E+04  0.12427928656E+04  0.15294330000E+03 0.  0.
<mgrwt>
<rscale>  0 0.84571089E+03</rscale>
<asrwt>0</asrwt>
<pdfrwt beam="1">  1        2 0.20851701E+00 0.91905351E+03</pdfrwt>
<pdfrwt beam="2">  1       -2 0.17140205E+00 0.91905351E+03</pdfrwt>
<totfact> 0.32030389E+00</totfact>
</mgrwt>
</event>
<event>
 4    1  0.7595604E-007  0.7069461E+03  0.7818608E-02  0.9969521E-01
          2   -1    0    0  501    0  0.00000000000E+00  0.00000000000E+00  0.16534928073E+04  0.16534928073E+04  0.25500000000E-02 0. -1.
         -2   -1    0    0    0  501 -0.00000000000E+00 -0.00000000000E+00 -0.38363479529E+03  0.38363479530E+03  0.25500000000E-02 0.  1.
    8880023    1    1    2    0    0  0.14740337381E+02  0.25640835971E+03 -0.25817577397E+02  0.70741732947E+03  0.65864270000E+03 0.  1.
    8880022    1    1    2    0    0 -0.14740337381E+02 -0.25640835971E+03  0.12956755894E+04  0.13297102731E+04  0.15294330000E+03 0.  0.
<mgrwt>
<rscale>  0 0.57007115E+03</rscale>
<asrwt>0</asrwt>
<pdfrwt beam="1">  1        2 0.25438350E+00 0.70694606E+03</pdfrwt>
<pdfrwt beam="2">  1       -2 0.59020740E-01 0.70694606E+03</pdfrwt>
<totfact> 0.28796097E+01</totfact>
</mgrwt>
</event>
<event>
 4    1  0.7595604E-007  0.7724874E+03  0.7818608E-02  0.9773790E-01
          2   -1    0    0  501    0  0.00000000000E+00  0.00000000000E+00  0.94619896499E+03  0.94619896499E+03  0.25500000000E-02 0. -1.
         -2   -1    0    0    0  501 -0.00000000000E+00 -0.00000000000E+00 -0.51542148716E+03  0.51542148717E+03  0.25500000000E-02 0.  1.
    8880023    1    1    2    0    0 -0.40352749161E+03 -0.95952438240E+01 -0.98394645797E+02  0.77872859057E+03  0.65864270000E+03 0.  1.
    8880022    1    1    2    0    0  0.40352749161E+03  0.95952438240E+01  0.52917212362E+03  0.68289186159E+03  0.15294330000E+03 0. -1.
<mgrwt>
<rscale>  0 0.66788307E+03</rscale>
<asrwt>0</asrwt>
<pdfrwt beam="1">  1        2 0.14556907E+00 0.77248735E+03</pdfrwt>
<pdfrwt beam="2">  1       -2 0.79295614E-01 0.77248735E+03</pdfrwt>
<totfact> 0.39015735E+01</totfact>
</mgrwt>
</event>
<event>
 4    1  0.7595604E-007  0.9395462E+03  0.7818608E-02  0.9465317E-01
         -2   -1    0    0    0  501 -0.00000000000E+00  0.00000000000E+00  0.10334347916E+04  0.10334347916E+04  0.25500000000E-02 0.  1.
          2   -1    0    0  501    0  0.00000000000E+00 -0.00000000000E+00 -0.94383312948E+03  0.94383312949E+03  0.25500000000E-02 0. -1.
    8880023    1    1    2    0    0  0.55460864756E+03  0.37596033792E+03  0.60564359600E+03  0.11178333057E+04  0.65864270000E+03 0.  1.
    8880022    1    1    2    0    0 -0.55460864756E+03 -0.37596033792E+03 -0.51604193388E+03  0.85943461542E+03  0.15294330000E+03 0.  0.
<mgrwt>
<rscale>  0 0.86889870E+03</rscale>
<asrwt>0</asrwt>
<pdfrwt beam="1">  1        2 0.14520510E+00 0.93954624E+03</pdfrwt>
<pdfrwt beam="2">  1       -2 0.15898997E+00 0.93954624E+03</pdfrwt>
<totfact> 0.70029156E+00</totfact>
</mgrwt>
</event>
<event>
 4    1  0.7595604E-007  0.6611708E+03  0.7818608E-02  0.1022988E+00
          2   -1    0    0  501    0  0.00000000000E+00  0.00000000000E+00  0.13222353847E+04  0.13222353847E+04  0.25500000000E-02 0. -1.
         -2   -1    0    0    0  501 -0.00000000000E+00 -0.00000000000E+00 -0.78433956287E+03  0.78433956287E+03  0.25500000000E-02 0.  1.
    8880023    1    1    2    0    0 -0.31979249961E+02  0.48103956838E+02 -0.63833819012E+03  0.91903346747E+03  0.65864270000E+03 0.  1.
    8880022    1    1    2    0    0  0.31979249961E+02 -0.48103956838E+02  0.11762340120E+04  0.11875414801E+04  0.15294330000E+03 0.  0.
<mgrwt>
<rscale>  0 0.46623698E+03</rscale>
<asrwt>0</asrwt>
<pdfrwt beam="1">  1        2 0.20342083E+00 0.66117083E+03</pdfrwt>
<pdfrwt beam="2">  1       -2 0.12066762E+00 0.66117083E+03</pdfrwt>
<totfact> 0.86959852E+00</totfact>
</mgrwt>
</event>
<event>
 4    1  0.7595604E-007  0.1205892E+04  0.7818608E-02  0.9151417E-01
          2   -1    0    0  501    0  0.00000000000E+00  0.00000000000E+00  0.14853677391E+04  0.14853677391E+04  0.25500000000E-02 0. -1.
         -2   -1    0    0    0  501 -0.00000000000E+00 -0.00000000000E+00 -0.11541782047E+04  0.11541782047E+04  0.25500000000E-02 0.  1.
    8880023    1    1    2    0    0  0.38281290994E+03  0.93478257135E+03 -0.51666306082E+03  0.13119127655E+04  0.65864270000E+03 0.  1.
    8880022    1    1    2    0    0 -0.38281290994E+03 -0.93478257135E+03  0.84785259528E+03  0.13276331783E+04  0.15294330000E+03 0.  0.
<mgrwt>
<rscale>  0 0.11569272E+04</rscale>
<asrwt>0</asrwt>
<pdfrwt beam="1">  1        2 0.22851812E+00 0.12058915E+04</pdfrwt>
<pdfrwt beam="2">  1       -2 0.17756588E+00 0.12058915E+04</pdfrwt>
<totfact> 0.23657404E+00</totfact>
</mgrwt>
</event>
<event>
 4    1  0.7595604E-007  0.7951082E+03  0.7818608E-02  0.9721475E-01
          2   -1    0    0  501    0  0.00000000000E+00  0.00000000000E+00  0.11197489663E+04  0.11197489663E+04  0.25500000000E-02 0. -1.
         -2   -1    0    0    0  501 -0.00000000000E+00 -0.00000000000E+00 -0.41788051844E+03  0.41788051845E+03  0.25500000000E-02 0.  1.
    8880023    1    1    2    0    0 -0.34501997361E+03 -0.28168785939E+03  0.14481813414E+03  0.80818892009E+03  0.65864270000E+03 0. -1.
    8880022    1    1    2    0    0  0.34501997361E+03  0.28168785939E+03  0.55705031367E+03  0.72944056461E+03  0.15294330000E+03 0.  0.
<mgrwt>
<rscale>  0 0.69752471E+03</rscale>
<asrwt>0</asrwt>
<pdfrwt beam="1">  1        2 0.17226907E+00 0.79510819E+03</pdfrwt>
<pdfrwt beam="2">  1       -2 0.64289310E-01 0.79510819E+03</pdfrwt>
<totfact> 0.47959506E+01</totfact>
</mgrwt>
</event>
<event>
 4    1  0.7595604E-007  0.7342096E+03  0.7818608E-02  0.9877147E-01
         -2   -1    0    0    0  501 -0.00000000000E+00  0.00000000000E+00  0.40470038643E+03  0.40470038644E+03  0.25500000000E-02 0.  1.
          2   -1    0    0  501    0  0.00000000000E+00 -0.00000000000E+00 -0.14757874978E+04  0.14757874978E+04  0.25500000000E-02 0. -1.
    8880023    1    1    2    0    0  0.30852391426E+03  0.10033179203E+03  0.17414386773E+02  0.73441605462E+03  0.65864270000E+03 0.  1.
    8880022    1    1    2    0    0 -0.30852391426E+03 -0.10033179203E+03 -0.10885014982E+04  0.11460718296E+04  0.15294330000E+03 0.  0.
<mgrwt>
<rscale>  0 0.61381740E+03</rscale>
<asrwt>0</asrwt>
<pdfrwt beam="1">  1        2 0.22704423E+00 0.73420956E+03</pdfrwt>
<pdfrwt beam="2">  1       -2 0.62261599E-01 0.73420956E+03</pdfrwt>
<totfact> 0.32134284E+01</totfact>
</mgrwt>
</event>
<event>
 4    1  0.7595604E-007  0.8181244E+03  0.7818608E-02  0.9672896E-01
         -2   -1    0    0    0  501 -0.00000000000E+00  0.00000000000E+00  0.49121897901E+03  0.49121897901E+03  0.25500000000E-02 0.  1.
          2   -1    0    0  501    0  0.00000000000E+00 -0.00000000000E+00 -0.13661213403E+04  0.13661213403E+04  0.25500000000E-02 0. -1.
    8880023    1    1    2    0    0  0.19526610101E+03  0.44428432131E+03  0.30566840556E+02  0.81869527076E+03  0.65864270000E+03 0.  1.
    8880022    1    1    2    0    0 -0.19526610101E+03 -0.44428432131E+03 -0.90546920185E+03  0.10386450486E+04  0.15294330000E+03 0.  0.
<mgrwt>
<rscale>  0 0.72653733E+03</rscale>
<asrwt>0</asrwt>
<pdfrwt beam="1">  1        2 0.21017251E+00 0.81812445E+03</pdfrwt>
<pdfrwt beam="2">  1       -2 0.75572151E-01 0.81812445E+03</pdfrwt>
<totfact> 0.24091731E+01</totfact>
</mgrwt>
</event>
<event>
 4    1  0.7595604E-007  0.1187463E+04  0.7818608E-02  0.9169406E-01
          2   -1    0    0  501    0  0.00000000000E+00  0.00000000000E+00  0.21553206523E+04  0.21553206523E+04  0.25500000000E-02 0. -1.
         -2   -1    0    0    0  501 -0.00000000000E+00 -0.00000000000E+00 -0.10392262316E+04  0.10392262316E+04  0.25500000000E-02 0.  1.
    8880023    1    1    2    0    0  0.38650926018E+03 -0.90932350249E+03 -0.50462688277E+03  0.12902391784E+04  0.65864270000E+03 0.  1.
    8880022    1    1    2    0    0 -0.38650926018E+03  0.90932350249E+03  0.16207213035E+04  0.19043077054E+04  0.15294330000E+03 0.  0.
<mgrwt>
<rscale>  0 0.11374862E+04</rscale>
<asrwt>0</asrwt>
<pdfrwt beam="1">  1        2 0.33158779E+00 0.11874632E+04</pdfrwt>
<pdfrwt beam="2">  1       -2 0.15988096E+00 0.11874632E+04</pdfrwt>
<totfact> 0.13466968E+00</totfact>
</mgrwt>
</event>
<event>
 4    1  0.7595604E-007  0.7596776E+03  0.7818608E-02  0.9805943E-01
         -2   -1    0    0    0  501 -0.00000000000E+00  0.00000000000E+00  0.45824993763E+03  0.45824993764E+03  0.25500000000E-02 0.  1.
          2   -1    0    0  501    0  0.00000000000E+00 -0.00000000000E+00 -0.19458111686E+04  0.19458111686E+04  0.25500000000E-02 0. -1.
    8880023    1    1    2    0    0 -0.31286946369E+03  0.21310207135E+03  0.98734336523E+02  0.76606688324E+03  0.65864270000E+03 0.  1.
    8880022    1    1    2    0    0  0.31286946369E+03 -0.21310207135E+03 -0.15862955675E+04  0.16379942230E+04  0.15294330000E+03 0.  0.
<mgrwt>
<rscale>  0 0.65044584E+03</rscale>
<asrwt>0</asrwt>
<pdfrwt beam="1">  1        2 0.29935556E+00 0.75967756E+03</pdfrwt>
<pdfrwt beam="2">  1       -2 0.70499991E-01 0.75967756E+03</pdfrwt>
<totfact> 0.13529417E+01</totfact>
</mgrwt>
</event>
<event>
 4    1  0.7595604E-007  0.8457495E+03  0.7818608E-02  0.9619433E-01
          2   -1    0    0  501    0  0.00000000000E+00  0.00000000000E+00  0.26233971059E+04  0.26233971059E+04  0.25500000000E-02 0. -1.
         -2   -1    0    0    0  501 -0.00000000000E+00 -0.00000000000E+00 -0.43170182657E+03  0.43170182658E+03  0.25500000000E-02 0.  1.
    8880023    1    1    2    0    0 -0.20631271597E+03  0.48879142271E+03  0.54249560448E+02  0.84748758855E+03  0.65864270000E+03 0.  1.
    8880022    1    1    2    0    0  0.20631271597E+03 -0.48879142271E+03  0.21374457189E+04  0.22076113439E+04  0.15294330000E+03 0.  0.
<mgrwt>
<rscale>  0 0.76023226E+03</rscale>
<asrwt>0</asrwt>
<pdfrwt beam="1">  1        2 0.40359955E+00 0.84574949E+03</pdfrwt>
<pdfrwt beam="2">  1       -2 0.66415667E-01 0.84574949E+03</pdfrwt>
<totfact> 0.63681548E+00</totfact>
</mgrwt>
</event>
<event>
 4    1  0.7595604E-007  0.7196828E+03  0.7818608E-02  0.9923661E-01
          2   -1    0    0  501    0  0.00000000000E+00  0.00000000000E+00  0.95296688477E+03  0.95296688478E+03  0.25500000000E-02 0. -1.
         -2   -1    0    0    0  501 -0.00000000000E+00 -0.00000000000E+00 -0.52856125106E+03  0.52856125107E+03  0.25500000000E-02 0.  1.
    8880023    1    1    2    0    0  0.28394528011E+03 -0.59230494746E+02 -0.22499662210E+03  0.75403372592E+03  0.65864270000E+03 0.  1.
    8880022    1    1    2    0    0 -0.28394528011E+03  0.59230494746E+02  0.64940225581E+03  0.72749440992E+03  0.15294330000E+03 0.  0.
<mgrwt>
<rscale>  0 0.59128172E+03</rscale>
<asrwt>0</asrwt>
<pdfrwt beam="1">  1        2 0.14661029E+00 0.71968283E+03</pdfrwt>
<pdfrwt beam="2">  1       -2 0.81317116E-01 0.71968283E+03</pdfrwt>
<totfact> 0.36667959E+01</totfact>
</mgrwt>
</event>
<event>
 4    1  0.7595604E-007  0.7690154E+03  0.7818608E-02  0.9782303E-01
          2   -1    0    0  501    0  0.00000000000E+00  0.00000000000E+00  0.35940287239E+04  0.35940287239E+04  0.25500000000E-02 0. -1.
         -2   -1    0    0    0  501 -0.00000000000E+00 -0.00000000000E+00 -0.10488054183E+03  0.10488054186E+03  0.25500000000E-02 0.  1.
    8880023    1    1    2    0    0  0.39444039935E+03  0.44623261246E+02  0.18075454834E+04  0.19643333080E+04  0.65864270000E+03 0.  0.
    8880022    1    1    2    0    0 -0.39444039935E+03 -0.44623261246E+02  0.16816026987E+04  0.17345759578E+04  0.15294330000E+03 0.  0.
<mgrwt>
<rscale>  0 0.66320980E+03</rscale>
<asrwt>0</asrwt>
<pdfrwt beam="1">  1        2 0.55292744E+00 0.76901539E+03</pdfrwt>
<pdfrwt beam="2">  1       -2 0.16135469E-01 0.76901539E+03</pdfrwt>
<totfact> 0.23237767E+01</totfact>
</mgrwt>
</event>
<event>
 4    1  0.7595604E-007  0.8307334E+03  0.7818608E-02  0.9647907E-01
         -2   -1    0    0    0  501 -0.00000000000E+00  0.00000000000E+00  0.24709530809E+03  0.24709530811E+03  0.25500000000E-02 0.  1.
          2   -1    0    0  501    0  0.00000000000E+00 -0.00000000000E+00 -0.19927944742E+04  0.19927944742E+04  0.25500000000E-02 0. -1.
    8880023    1    1    2    0    0 -0.24266508342E+03  0.44432123581E+03 -0.78349396817E+03  0.11419197466E+04  0.65864270000E+03 0.  0.
    8880022    1    1    2    0    0  0.24266508342E+03 -0.44432123581E+03 -0.96220519792E+03  0.10979700357E+04  0.15294330000E+03 0.  0.
<mgrwt>
<rscale>  0 0.74204915E+03</rscale>
<asrwt>0</asrwt>
<pdfrwt beam="1">  1        2 0.30658375E+00 0.83073336E+03</pdfrwt>
<pdfrwt beam="2">  1       -2 0.38014664E-01 0.83073336E+03</pdfrwt>
<totfact> 0.44961097E+01</totfact>
</mgrwt>
</event>
<event>
 4    1  0.7595604E-007  0.9858186E+03  0.7818608E-02  0.9400351E-01
         -2   -1    0    0    0  501 -0.00000000000E+00  0.00000000000E+00  0.55422185861E+03  0.55422185862E+03  0.25500000000E-02 0.  1.
          2   -1    0    0  501    0  0.00000000000E+00 -0.00000000000E+00 -0.14725827303E+04  0.14725827303E+04  0.25500000000E-02 0. -1.
    8880023    1    1    2    0    0 -0.11058285632E+03 -0.72512042015E+03 -0.23667515459E+03  0.10138311136E+04  0.65864270000E+03 0.  1.
    8880022    1    1    2    0    0  0.11058285632E+03  0.72512042015E+03 -0.68168571713E+03  0.10129734754E+04  0.15294330000E+03 0.  1.
<mgrwt>
<rscale>  0 0.92046810E+03</rscale>
<asrwt>0</asrwt>
<pdfrwt beam="1">  1        2 0.22655119E+00 0.98581864E+03</pdfrwt>
<pdfrwt beam="2">  1       -2 0.85264902E-01 0.98581864E+03</pdfrwt>
<totfact> 0.15705363E+01</totfact>
</mgrwt>
</event>
<event>
 4    1  0.7595604E-007  0.6753805E+03  0.7818608E-02  0.1012068E+00
          2   -1    0    0  501    0  0.00000000000E+00  0.00000000000E+00  0.50437449685E+03  0.50437449685E+03  0.25500000000E-02 0. -1.
         -2   -1    0    0    0  501 -0.00000000000E+00 -0.00000000000E+00 -0.76656700583E+03  0.76656700584E+03  0.25500000000E-02 0.  1.
    8880023    1    1    2    0    0  0.18435775152E+02  0.14828588200E+03 -0.57841366290E+03  0.88921378324E+03  0.65864270000E+03 0.  0.
    8880022    1    1    2    0    0 -0.18435775152E+02 -0.14828588200E+03  0.31622115391E+03  0.38172771946E+03  0.15294330000E+03 0. -1.
<mgrwt>
<rscale>  0 0.50661137E+03</rscale>
<asrwt>0</asrwt>
<pdfrwt beam="1">  1        2 0.77596077E-01 0.67538048E+03</pdfrwt>
<pdfrwt beam="2">  1       -2 0.11793338E+00 0.67538048E+03</pdfrwt>
<totfact> 0.34403757E+01</totfact>
</mgrwt>
</event>
<event>
 4    1  0.7595604E-007  0.1108260E+04  0.7818608E-02  0.9251915E-01
         -2   -1    0    0    0  501 -0.00000000000E+00  0.00000000000E+00  0.43755709681E+03  0.43755709681E+03  0.25500000000E-02 0.  1.
          2   -1    0    0  501    0  0.00000000000E+00 -0.00000000000E+00 -0.47665838503E+04  0.47665838503E+04  0.25500000000E-02 0. -1.
    8880023    1    1    2    0    0  0.70132772612E+03 -0.55006344602E+03 -0.40926896505E+03  0.11814151117E+04  0.65864270000E+03 0.  1.
    8880022    1    1    2    0    0 -0.70132772612E+03  0.55006344602E+03 -0.39197577885E+04  0.40227258355E+04  0.15294330000E+03 0.  0.
<mgrwt>
<rscale>  0 0.10533280E+04</rscale>
<asrwt>0</asrwt>
<pdfrwt beam="1">  1        2 0.73332056E+00 0.11082602E+04</pdfrwt>
<pdfrwt beam="2">  1       -2 0.67316480E-01 0.11082602E+04</pdfrwt>
<totfact> 0.13983928E-01</totfact>
</mgrwt>
</event>
<event>
 4    1  0.7595604E-007  0.7148715E+03  0.7818608E-02  0.9940337E-01
          2   -1    0    0  501    0  0.00000000000E+00  0.00000000000E+00  0.89422788486E+03  0.89422788487E+03  0.25500000000E-02 0. -1.
         -2   -1    0    0    0  501 -0.00000000000E+00 -0.00000000000E+00 -0.68375163650E+03  0.68375163650E+03  0.25500000000E-02 0.  1.
    8880023    1    1    2    0    0  0.27757104097E+03 -0.13616509409E+02 -0.45039333982E+03  0.84492334500E+03  0.65864270000E+03 0.  1.
    8880022    1    1    2    0    0 -0.27757104097E+03  0.13616509409E+02  0.66086958818E+03  0.73305617637E+03  0.15294330000E+03 0.  0.
<mgrwt>
<rscale>  0 0.58345588E+03</rscale>
<asrwt>0</asrwt>
<pdfrwt beam="1">  1        2 0.13757352E+00 0.71487153E+03</pdfrwt>
<pdfrwt beam="2">  1       -2 0.10519256E+00 0.71487153E+03</pdfrwt>
<totfact> 0.22063559E+01</totfact>
</mgrwt>
</event>
<event>
 4    1  0.7595604E-007  0.7156677E+03  0.7818608E-02  0.9937527E-01
         -2   -1    0    0    0  501 -0.00000000000E+00  0.00000000000E+00  0.14096647420E+03  0.14096647422E+03  0.25500000000E-02 0.  1.
          2   -1    0    0  501    0  0.00000000000E+00 -0.00000000000E+00 -0.45110454374E+04  0.45110454374E+04  0.25500000000E-02 0. -1.
    8880023    1    1    2    0    0 -0.15549754558E+03 -0.23278866221E+03 -0.82311955660E+03  0.10907364753E+04  0.65864270000E+03 0.  0.
    8880022    1    1    2    0    0  0.15549754558E+03  0.23278866221E+03 -0.35469594066E+04  0.35612754363E+04  0.15294330000E+03 0. -1.
<mgrwt>
<rscale>  0 0.58476532E+03</rscale>
<asrwt>0</asrwt>
<pdfrwt beam="1">  1        2 0.69400688E+00 0.71566770E+03</pdfrwt>
<pdfrwt beam="2">  1       -2 0.21687153E-01 0.71566770E+03</pdfrwt>
<totfact> 0.25397492E+00</totfact>
</mgrwt>
</event>
<event>
 4    1  0.7595604E-007  0.7928253E+03  0.7818608E-02  0.9726529E-01
         -2   -1    0    0    0  501 -0.00000000000E+00  0.00000000000E+00  0.11172583704E+04  0.11172583704E+04  0.25500000000E-02 0.  1.
          2   -1    0    0  501    0  0.00000000000E+00 -0.00000000000E+00 -0.67634897308E+03  0.67634897308E+03  0.25500000000E-02 0. -1.
    8880023    1    1    2    0    0  0.29535262096E+03  0.32791543696E+03  0.85742507853E+03  0.11677969327E+04  0.65864270000E+03 0.  0.
    8880022    1    1    2    0    0 -0.29535262096E+03 -0.32791543696E+03 -0.41651568121E+03  0.62581041076E+03  0.15294330000E+03 0.  0.
<mgrwt>
<rscale>  0 0.69458972E+03</rscale>
<asrwt>0</asrwt>
<pdfrwt beam="1">  1        2 0.10405369E+00 0.79282527E+03</pdfrwt>
<pdfrwt beam="2">  1       -2 0.17188590E+00 0.79282527E+03</pdfrwt>
<totfact> 0.89514842E+00</totfact>
</mgrwt>
</event>
<event>
 4    1  0.7595604E-007  0.7061312E+03  0.7818608E-02  0.9972658E-01
          2   -1    0    0  501    0  0.00000000000E+00  0.00000000000E+00  0.45334577973E+03  0.45334577974E+03  0.25500000000E-02 0. -1.
         -2   -1    0    0    0  501 -0.00000000000E+00 -0.00000000000E+00 -0.12274045570E+04  0.12274045571E+04  0.25500000000E-02 0.  1.
    8880023    1    1    2    0    0  0.20869819312E+03 -0.14579490463E+03 -0.10565977914E+04  0.12708344460E+04  0.65864270000E+03 0.  1.
    8880022    1    1    2    0    0 -0.20869819312E+03  0.14579490463E+03  0.28253901410E+03  0.40991589080E+03  0.15294330000E+03 0.  0.
<mgrwt>
<rscale>  0 0.56865560E+03</rscale>
<asrwt>0</asrwt>
<pdfrwt beam="1">  1        2 0.69745505E-01 0.70613122E+03</pdfrwt>
<pdfrwt beam="2">  1       -2 0.18883147E+00 0.70613122E+03</pdfrwt>
<totfact> 0.11123952E+01</totfact>
</mgrwt>
</event>
<event>
 4    1  0.7595604E-007  0.1352484E+04  0.7818608E-02  0.9021512E-01
          2   -1    0    0  501    0  0.00000000000E+00  0.00000000000E+00  0.15560424239E+04  0.15560424240E+04  0.25500000000E-02 0. -1.
         -2   -1    0    0    0  501 -0.00000000000E+00 -0.00000000000E+00 -0.15457853351E+04  0.15457853351E+04  0.25500000000E-02 0.  1.
    8880023    1    1    2    0    0 -0.11800821256E+04 -0.52989727943E+02 -0.88104444545E+03  0.16141410271E+04  0.65864270000E+03 0.  0.
    8880022    1    1    2    0    0  0.11800821256E+04  0.52989727943E+02  0.89130153427E+03  0.14876867319E+04  0.15294330000E+03 0.  0.
<mgrwt>
<rscale>  0 0.13102040E+04</rscale>
<asrwt>0</asrwt>
<pdfrwt beam="1">  1        2 0.23939114E+00 0.13524836E+04</pdfrwt>
<pdfrwt beam="2">  1       -2 0.23781313E+00 0.13524836E+04</pdfrwt>
<totfact> 0.86086768E-01</totfact>
</mgrwt>
</event>
<event>
 4    1  0.7595604E-007  0.6909213E+03  0.7818608E-02  0.1003718E+00
         -2   -1    0    0    0  501 -0.00000000000E+00  0.00000000000E+00  0.36209710155E+03  0.36209710156E+03  0.25500000000E-02 0.  1.
          2   -1    0    0  501    0  0.00000000000E+00 -0.00000000000E+00 -0.68496474481E+03  0.68496474482E+03  0.25500000000E-02 0. -1.
    8880023    1    1    2    0    0 -0.15482326592E+02  0.20814022639E+03 -0.37045204430E+03  0.78396873641E+03  0.65864270000E+03 0. -1.
    8880022    1    1    2    0    0  0.15482326592E+02 -0.20814022639E+03  0.47584401037E+02  0.26309310997E+03  0.15294330000E+03 0.  0.
<mgrwt>
<rscale>  0 0.54049698E+03</rscale>
<asrwt>0</asrwt>
<pdfrwt beam="1">  1        2 0.10537919E+00 0.69092131E+03</pdfrwt>
<pdfrwt beam="2">  1       -2 0.55707246E-01 0.69092131E+03</pdfrwt>
<totfact> 0.12935141E+02</totfact>
</mgrwt>
</event>
<event>
 4    1  0.7595604E-007  0.6854156E+03  0.7818608E-02  0.1006412E+00
          2   -1    0    0  501    0  0.00000000000E+00  0.00000000000E+00  0.23420715292E+04  0.23420715292E+04  0.25500000000E-02 0. -1.
         -2   -1    0    0    0  501 -0.00000000000E+00 -0.00000000000E+00 -0.27206050702E+03  0.27206050703E+03  0.25500000000E-02 0.  1.
    8880023    1    1    2    0    0 -0.72338467130E+02 -0.17536085593E+03  0.18024253173E+03  0.70871846323E+03  0.65864270000E+03 0.  1.
    8880022    1    1    2    0    0  0.72338467130E+02  0.17536085593E+03  0.18897684904E+04  0.19054135730E+04  0.15294330000E+03 0.  0.
<mgrwt>
<rscale>  0 0.52925720E+03</rscale>
<asrwt>0</asrwt>
<pdfrwt beam="1">  1        2 0.36031869E+00 0.68541556E+03</pdfrwt>
<pdfrwt beam="2">  1       -2 0.41855463E-01 0.68541556E+03</pdfrwt>
<totfact> 0.24396877E+01</totfact>
</mgrwt>
</event>
<event>
 4    1  0.7595604E-007  0.8068252E+03  0.7818608E-02  0.9696228E-01
         -2   -1    0    0    0  501 -0.00000000000E+00  0.00000000000E+00  0.15521414904E+04  0.15521414904E+04  0.25500000000E-02 0.  1.
          2   -1    0    0  501    0  0.00000000000E+00 -0.00000000000E+00 -0.58575089880E+03  0.58575089881E+03  0.25500000000E-02 0. -1.
    8880023    1    1    2    0    0 -0.28767827060E+02 -0.46511199116E+03  0.13103643985E+04  0.15388378132E+04  0.65864270000E+03 0.  1.
    8880022    1    1    2    0    0  0.28767827060E+02  0.46511199116E+03 -0.34397380690E+03  0.59905457602E+03  0.15294330000E+03 0.  0.
<mgrwt>
<rscale>  0 0.71241805E+03</rscale>
<asrwt>0</asrwt>
<pdfrwt beam="1">  1        2 0.90115523E-01 0.80682523E+03</pdfrwt>
<pdfrwt beam="2">  1       -2 0.23879100E+00 0.80682523E+03</pdfrwt>
<totfact> 0.39240014E+00</totfact>
</mgrwt>
</event>
<event>
 4    1  0.7595604E-007  0.7245774E+03  0.7818608E-02  0.9907391E-01
          2   -1    0    0  501    0  0.00000000000E+00  0.00000000000E+00  0.57383613278E+03  0.57383613279E+03  0.25500000000E-02 0. -1.
         -2   -1    0    0    0  501 -0.00000000000E+00 -0.00000000000E+00 -0.54334281850E+03  0.54334281851E+03  0.25500000000E-02 0.  1.
    8880023    1    1    2    0    0 -0.18118585998E+03 -0.24160682689E+03  0.18079835905E+03  0.74679343031E+03  0.65864270000E+03 0.  0.
    8880022    1    1    2    0    0  0.18118585998E+03  0.24160682689E+03 -0.15030504477E+03  0.37038552098E+03  0.15294330000E+03 0.  0.
<mgrwt>
<rscale>  0 0.59904401E+03</rscale>
<asrwt>0</asrwt>
<pdfrwt beam="1">  1        2 0.88282482E-01 0.72457738E+03</pdfrwt>
<pdfrwt beam="2">  1       -2 0.83591202E-01 0.72457738E+03</pdfrwt>
<totfact> 0.66389752E+01</totfact>
</mgrwt>
</event>
<event>
 4    1  0.7595604E-007  0.7530271E+03  0.7818608E-02  0.9823506E-01
          2   -1    0    0  501    0  0.00000000000E+00  0.00000000000E+00  0.14825013035E+04  0.14825013035E+04  0.25500000000E-02 0. -1.
         -2   -1    0    0    0  501 -0.00000000000E+00 -0.00000000000E+00 -0.31157044369E+03  0.31157044370E+03  0.25500000000E-02 0.  1.
    8880023    1    1    2    0    0 -0.29741423345E+03  0.21162304020E+03  0.25289058419E+03  0.79435721891E+03  0.65864270000E+03 0.  1.
    8880022    1    1    2    0    0  0.29741423345E+03 -0.21162304020E+03  0.91804027561E+03  0.99971452828E+03  0.15294330000E+03 0.  0.
<mgrwt>
<rscale>  0 0.64116191E+03</rscale>
<asrwt>0</asrwt>
<pdfrwt beam="1">  1        2 0.22807712E+00 0.75302705E+03</pdfrwt>
<pdfrwt beam="2">  1       -2 0.47933915E-01 0.75302705E+03</pdfrwt>
<totfact> 0.54664323E+01</totfact>
</mgrwt>
</event>
<event>
 4    1  0.7595604E-007  0.7475979E+03  0.7818608E-02  0.9838343E-01
         -2   -1    0    0    0  501 -0.00000000000E+00  0.00000000000E+00  0.36567418976E+03  0.36567418977E+03  0.25500000000E-02 0.  1.
          2   -1    0    0  501    0  0.00000000000E+00 -0.00000000000E+00 -0.10229534716E+04  0.10229534716E+04  0.25500000000E-02 0. -1.
    8880023    1    1    2    0    0  0.28576658671E+03  0.20839841585E+03 -0.66883714448E+03  0.10031180259E+04  0.65864270000E+03 0.  1.
    8880022    1    1    2    0    0 -0.28576658671E+03 -0.20839841585E+03  0.11557862679E+02  0.38550963543E+03  0.15294330000E+03 0.  0.
<mgrwt>
<rscale>  0 0.63344812E+03</rscale>
<asrwt>0</asrwt>
<pdfrwt beam="1">  1        2 0.15737746E+00 0.74759792E+03</pdfrwt>
<pdfrwt beam="2">  1       -2 0.56257568E-01 0.74759792E+03</pdfrwt>
<totfact> 0.73298770E+01</totfact>
</mgrwt>
</event>
<event>
 4    1  0.7595604E-007  0.1224482E+04  0.7818608E-02  0.9133684E-01
         -2   -1    0    0    0  501 -0.00000000000E+00  0.00000000000E+00  0.81216575236E+03  0.81216575236E+03  0.25500000000E-02 0.  1.
          2   -1    0    0  501    0  0.00000000000E+00 -0.00000000000E+00 -0.26156456338E+04  0.26156456338E+04  0.25500000000E-02 0. -1.
    8880023    1    1    2    0    0 -0.99171511201E+03  0.28643776239E+03 -0.20199178712E+04  0.23620804109E+04  0.65864270000E+03 0. -1.
    8880022    1    1    2    0    0  0.99171511201E+03 -0.28643776239E+03  0.21643798975E+03  0.10657309752E+04  0.15294330000E+03 0.  0.
<mgrwt>
<rscale>  0 0.11764937E+04</rscale>
<asrwt>0</asrwt>
<pdfrwt beam="1">  1        2 0.40240702E+00 0.12244818E+04</pdfrwt>
<pdfrwt beam="2">  1       -2 0.12494858E+00 0.12244818E+04</pdfrwt>
<totfact> 0.13994384E+00</totfact>
</mgrwt>
</event>
<event>
 4    1  0.7595604E-007  0.1118481E+04  0.7818608E-02  0.9240754E-01
          2   -1    0    0  501    0  0.00000000000E+00  0.00000000000E+00  0.93259367944E+03  0.93259367944E+03  0.25500000000E-02 0. -1.
         -2   -1    0    0    0  501 -0.00000000000E+00 -0.00000000000E+00 -0.12076504724E+04  0.12076504724E+04  0.25500000000E-02 0.  1.
    8880023    1    1    2    0    0 -0.32200568723E+03  0.84469024124E+03 -0.45223769619E+03  0.12064486754E+04  0.65864270000E+03 0.  1.
    8880022    1    1    2    0    0  0.32200568723E+03 -0.84469024124E+03  0.17718090327E+03  0.93379547641E+03  0.15294330000E+03 0.  0.
<mgrwt>
<rscale>  0 0.10642505E+04</rscale>
<asrwt>0</asrwt>
<pdfrwt beam="1">  1        2 0.14347595E+00 0.11184809E+04</pdfrwt>
<pdfrwt beam="2">  1       -2 0.18579238E+00 0.11184809E+04</pdfrwt>
<totfact> 0.45236601E+00</totfact>
</mgrwt>
</event>
<event>
 4    1  0.7595604E-007  0.7774477E+03  0.7818608E-02  0.9761867E-01
          2   -1    0    0  501    0  0.00000000000E+00  0.00000000000E+00  0.87372840667E+03  0.87372840667E+03  0.25500000000E-02 0. -1.
         -2   -1    0    0    0  501 -0.00000000000E+00 -0.00000000000E+00 -0.65188713765E+03  0.65188713765E+03  0.25500000000E-02 0.  1.
    8880023    1    1    2    0    0 -0.95327908416E+02  0.40190453527E+03 -0.30832367752E+03  0.83635420844E+03  0.65864270000E+03 0.  0.
    8880022    1    1    2    0    0  0.95327908416E+02 -0.40190453527E+03  0.53016494654E+03  0.68926133589E+03  0.15294330000E+03 0.  0.
<mgrwt>
<rscale>  0 0.67449752E+03</rscale>
<asrwt>0</asrwt>
<pdfrwt beam="1">  1        2 0.13441975E+00 0.77744767E+03</pdfrwt>
<pdfrwt beam="2">  1       -2 0.10029033E+00 0.77744767E+03</pdfrwt>
<totfact> 0.25378536E+01</totfact>
</mgrwt>
</event>
<event>
 4    1  0.7595604E-007  0.6767048E+03  0.7818608E-02  0.1011253E+00
         -2   -1    0    0    0  501 -0.00000000000E+00  0.00000000000E+00  0.25362577095E+03  0.25362577096E+03  0.25500000000E-02 0.  1.
          2   -1    0    0  501    0  0.00000000000E+00 -0.00000000000E+00 -0.15121364148E+04  0.15121364148E+04  0.25500000000E-02 0. -1.
    8880023    1    1    2    0    0  0.88363134284E+01 -0.15505185196E+03 -0.23048000464E+03  0.71487788890E+03  0.65864270000E+03 0.  1.
    8880022    1    1    2    0    0 -0.88363134284E+01  0.15505185196E+03 -0.10280306392E+04  0.10508842969E+04  0.15294330000E+03 0.  0.
<mgrwt>
<rscale>  0 0.50979842E+03</rscale>
<asrwt>0</asrwt>
<pdfrwt beam="1">  1        2 0.23263637E+00 0.67670478E+03</pdfrwt>
<pdfrwt beam="2">  1       -2 0.39019350E-01 0.67670478E+03</pdfrwt>
<totfact> 0.79690543E+01</totfact>
</mgrwt>
</event>
<event>
 4    1  0.7595604E-007  0.6595917E+03  0.7818608E-02  0.1024579E+00
         -2   -1    0    0    0  501 -0.00000000000E+00  0.00000000000E+00  0.23421613849E+03  0.23421613851E+03  0.25500000000E-02 0.  1.
          2   -1    0    0  501    0  0.00000000000E+00 -0.00000000000E+00 -0.98005641629E+03  0.98005641630E+03  0.25500000000E-02 0. -1.
    8880023    1    1    2    0    0  0.24025179100E+02  0.25957834366E+02 -0.26913713537E+03  0.71238755063E+03  0.65864270000E+03 0.  1.
    8880022    1    1    2    0    0 -0.24025179100E+02 -0.25957834366E+02 -0.47670314243E+03  0.50188500417E+03  0.15294330000E+03 0.  0.
<mgrwt>
<rscale>  0 0.46069910E+03</rscale>
<asrwt>0</asrwt>
<pdfrwt beam="1">  1        2 0.15077791E+00 0.65959171E+03</pdfrwt>
<pdfrwt beam="2">  1       -2 0.36033253E-01 0.65959171E+03</pdfrwt>
<totfact> 0.19099352E+02</totfact>
</mgrwt>
</event>
<event>
 4    1  0.7595604E-007  0.6594880E+03  0.7818608E-02  0.1024687E+00
          2   -1    0    0  501    0  0.00000000000E+00  0.00000000000E+00  0.13289186999E+04  0.13289186999E+04  0.25500000000E-02 0. -1.
         -2   -1    0    0    0  501 -0.00000000000E+00 -0.00000000000E+00 -0.35529464841E+03  0.35529464842E+03  0.25500000000E-02 0.  1.
    8880023    1    1    2    0    0  0.25910589163E+02  0.21043830222E+02 -0.37968390619E+02  0.66058005296E+03  0.65864270000E+03 0.  1.
    8880022    1    1    2    0    0 -0.25910589163E+02 -0.21043830222E+02  0.10115924421E+04  0.10236332953E+04  0.15294330000E+03 0.  0.
<mgrwt>
<rscale>  0 0.46032430E+03</rscale>
<asrwt>0</asrwt>
<pdfrwt beam="1">  1        2 0.20444903E+00 0.65948799E+03</pdfrwt>
<pdfrwt beam="2">  1       -2 0.54660714E-01 0.65948799E+03</pdfrwt>
<totfact> 0.51534760E+01</totfact>
</mgrwt>
</event>
<event>
 4    1  0.7595604E-007  0.6959326E+03  0.7818608E-02  0.1001451E+00
         -2   -1    0    0    0  501 -0.00000000000E+00  0.00000000000E+00  0.28351262417E+03  0.28351262418E+03  0.25500000000E-02 0.  1.
          2   -1    0    0  501    0  0.00000000000E+00 -0.00000000000E+00 -0.25668566291E+04  0.25668566291E+04  0.25500000000E-02 0. -1.
    8880023    1    1    2    0    0 -0.14149140584E+03 -0.17462002908E+03 -0.16575263615E+03  0.71539926974E+03  0.65864270000E+03 0.  1.
    8880022    1    1    2    0    0  0.14149140584E+03  0.17462002908E+03 -0.21175913688E+04  0.21349699836E+04  0.15294330000E+03 0.  0.
<mgrwt>
<rscale>  0 0.55018482E+03</rscale>
<asrwt>0</asrwt>
<pdfrwt beam="1">  1        2 0.39490100E+00 0.69593260E+03</pdfrwt>
<pdfrwt beam="2">  1       -2 0.43617329E-01 0.69593260E+03</pdfrwt>
<totfact> 0.16778645E+01</totfact>
</mgrwt>
</event>
<event>
 4    1  0.7595604E-007  0.8048850E+03  0.7818608E-02  0.9700332E-01
          2   -1    0    0  501    0  0.00000000000E+00  0.00000000000E+00  0.71283409143E+03  0.71283409143E+03  0.25500000000E-02 0. -1.
         -2   -1    0    0    0  501 -0.00000000000E+00 -0.00000000000E+00 -0.19773482042E+04  0.19773482042E+04  0.25500000000E-02 0.  1.
    8880023    1    1    2    0    0 -0.33785110840E+03 -0.31604784339E+03 -0.17966259262E+04  0.19686809126E+04  0.65864270000E+03 0.  0.
    8880022    1    1    2    0    0  0.33785110840E+03  0.31604784339E+03  0.53211181340E+03  0.72150138304E+03  0.15294330000E+03 0.  0.
<mgrwt>
<rscale>  0 0.70997052E+03</rscale>
<asrwt>0</asrwt>
<pdfrwt beam="1">  1        2 0.10966678E+00 0.80488497E+03</pdfrwt>
<pdfrwt beam="2">  1       -2 0.30420741E+00 0.80488497E+03</pdfrwt>
<totfact> 0.12407520E+00</totfact>
</mgrwt>
</event>
<event>
 4    1  0.7595604E-007  0.7165897E+03  0.7818608E-02  0.9934299E-01
         -2   -1    0    0    0  501 -0.00000000000E+00  0.00000000000E+00  0.34243084686E+03  0.34243084687E+03  0.25500000000E-02 0.  1.
          2   -1    0    0  501    0  0.00000000000E+00 -0.00000000000E+00 -0.13962839022E+04  0.13962839022E+04  0.25500000000E-02 0. -1.
    8880023    1    1    2    0    0 -0.27503669219E+03 -0.63603080698E+02 -0.89303069214E+02  0.72213279829E+03  0.65864270000E+03 0.  0.
    8880022    1    1    2    0    0  0.27503669219E+03  0.63603080698E+02 -0.96454998611E+03  0.10165819508E+04  0.15294330000E+03 0.  0.
<mgrwt>
<rscale>  0 0.58627430E+03</rscale>
<asrwt>0</asrwt>
<pdfrwt beam="1">  1        2 0.21481290E+00 0.71658966E+03</pdfrwt>
<pdfrwt beam="2">  1       -2 0.52681670E-01 0.71658966E+03</pdfrwt>
<totfact> 0.50604351E+01</totfact>
</mgrwt>
</event>
<event>
 4    1  0.7595604E-007  0.8784594E+03  0.7818608E-02  0.9561535E-01
          2   -1    0    0  501    0  0.00000000000E+00  0.00000000000E+00  0.20506528091E+04  0.20506528091E+04  0.25500000000E-02 0. -1.
         -2   -1    0    0    0  501 -0.00000000000E+00 -0.00000000000E+00 -0.57382561479E+03  0.57382561479E+03  0.25500000000E-02 0.  1.
    8880023    1    1    2    0    0 -0.31019637970E+03  0.49158820803E+03 -0.14908863786E+03  0.89102098093E+03  0.65864270000E+03 0.  1.
    8880022    1    1    2    0    0  0.31019637970E+03 -0.49158820803E+03  0.16259158321E+04  0.17334574429E+04  0.15294330000E+03 0.  0.
<mgrwt>
<rscale>  0 0.79895189E+03</rscale>
<asrwt>0</asrwt>
<pdfrwt beam="1">  1        2 0.31548505E+00 0.87845943E+03</pdfrwt>
<pdfrwt beam="2">  1       -2 0.88280864E-01 0.87845943E+03</pdfrwt>
<totfact> 0.70390206E+00</totfact>
</mgrwt>
</event>
<event>
 4    1  0.7595604E-007  0.6961160E+03  0.7818608E-02  0.1001371E+00
          2   -1    0    0  501    0  0.00000000000E+00  0.00000000000E+00  0.28324144656E+04  0.28324144656E+04  0.25500000000E-02 0. -1.
         -2   -1    0    0    0  501 -0.00000000000E+00 -0.00000000000E+00 -0.31248664487E+03  0.31248664488E+03  0.25500000000E-02 0.  1.
    8880023    1    1    2    0    0  0.20455395061E+03  0.94471848281E+02  0.92487175355E+02  0.70223310424E+03  0.65864270000E+03 0.  1.
    8880022    1    1    2    0    0 -0.20455395061E+03 -0.94471848281E+02  0.24274406453E+04  0.24426680062E+04  0.15294330000E+03 0.  0.
<mgrwt>
<rscale>  0 0.55053079E+03</rscale>
<asrwt>0</asrwt>
<pdfrwt beam="1">  1        2 0.43575608E+00 0.69611598E+03</pdfrwt>
<pdfrwt beam="2">  1       -2 0.48074868E-01 0.69611598E+03</pdfrwt>
<totfact> 0.96823855E+00</totfact>
</mgrwt>
</event>
<event>
 4    1  0.7595604E-007  0.1181258E+04  0.7818608E-02  0.9175560E-01
         -2   -1    0    0    0  501 -0.00000000000E+00  0.00000000000E+00  0.19844592138E+04  0.19844592138E+04  0.25500000000E-02 0.  1.
          2   -1    0    0  501    0  0.00000000000E+00 -0.00000000000E+00 -0.10426573260E+04  0.10426573260E+04  0.25500000000E-02 0. -1.
    8880023    1    1    2    0    0 -0.94872780071E+03 -0.24794364519E+03  0.14835856061E+04  0.18964168708E+04  0.65864270000E+03 0.  1.
    8880022    1    1    2    0    0  0.94872780071E+03  0.24794364519E+03 -0.54178371833E+03  0.11306996690E+04  0.15294330000E+03 0.  0.
<mgrwt>
<rscale>  0 0.11309294E+04</rscale>
<asrwt>0</asrwt>
<pdfrwt beam="1">  1        2 0.16040882E+00 0.11812581E+04</pdfrwt>
<pdfrwt beam="2">  1       -2 0.30530142E+00 0.11812581E+04</pdfrwt>
<totfact> 0.68416724E-01</totfact>
</mgrwt>
</event>
<event>
 4    1  0.7595604E-007  0.7170349E+03  0.7818608E-02  0.9932750E-01
         -2   -1    0    0    0  501 -0.00000000000E+00  0.00000000000E+00  0.31630713708E+03  0.31630713709E+03  0.25500000000E-02 0.  1.
          2   -1    0    0  501    0  0.00000000000E+00 -0.00000000000E+00 -0.85487073102E+03  0.85487073103E+03  0.25500000000E-02 0. -1.
    8880023    1    1    2    0    0  0.19852903846E+03 -0.20227454682E+03 -0.39414148257E+03  0.81822153843E+03  0.65864270000E+03 0.  0.
    8880022    1    1    2    0    0 -0.19852903846E+03  0.20227454682E+03 -0.14442211137E+03  0.35295632969E+03  0.15294330000E+03 0.  1.
<mgrwt>
<rscale>  0 0.58700018E+03</rscale>
<asrwt>0</asrwt>
<pdfrwt beam="1">  1        2 0.13151857E+00 0.71703485E+03</pdfrwt>
<pdfrwt beam="2">  1       -2 0.48662637E-01 0.71703485E+03</pdfrwt>
<totfact> 0.12769227E+02</totfact>
</mgrwt>
</event>
<event>
 4    1  0.7595604E-007  0.7138457E+03  0.7818608E-02  0.9943988E-01
         -2   -1    0    0    0  501 -0.00000000000E+00  0.00000000000E+00  0.18832223478E+03  0.18832223480E+03  0.25500000000E-02 0.  1.
          2   -1    0    0  501    0  0.00000000000E+00 -0.00000000000E+00 -0.14365943640E+04  0.14365943640E+04  0.25500000000E-02 0. -1.
    8880023    1    1    2    0    0 -0.91189419687E+02 -0.25971135272E+03 -0.74940742268E+03  0.10349817334E+04  0.65864270000E+03 0.  0.
    8880022    1    1    2    0    0  0.91189419687E+02  0.25971135272E+03 -0.49886470651E+03  0.58993486539E+03  0.15294330000E+03 0.  0.
<mgrwt>
<rscale>  0 0.58175989E+03</rscale>
<asrwt>0</asrwt>
<pdfrwt beam="1">  1        2 0.22101451E+00 0.71384571E+03</pdfrwt>
<pdfrwt beam="2">  1       -2 0.28972653E-01 0.71384571E+03</pdfrwt>
<totfact> 0.15357949E+02</totfact>
</mgrwt>
</event>
<event>
 4    1  0.7595604E-007  0.1068092E+04  0.7818608E-02  0.9297442E-01
          2   -1    0    0  501    0  0.00000000000E+00  0.00000000000E+00  0.16714441098E+04  0.16714441098E+04  0.25500000000E-02 0. -1.
         -2   -1    0    0    0  501 -0.00000000000E+00 -0.00000000000E+00 -0.71699715604E+03  0.71699715604E+03  0.25500000000E-02 0.  1.
    8880023    1    1    2    0    0 -0.13030075756E+03  0.83068175614E+03  0.10865941195E+04  0.15236493869E+04  0.65864270000E+03 0.  0.
    8880022    1    1    2    0    0  0.13030075756E+03 -0.83068175614E+03 -0.13214716578E+03  0.86479187891E+03  0.15294330000E+03 0.  0.
<mgrwt>
<rscale>  0 0.10101870E+04</rscale>
<asrwt>0</asrwt>
<pdfrwt beam="1">  1        2 0.25714524E+00 0.10680921E+04</pdfrwt>
<pdfrwt beam="2">  1       -2 0.11030726E+00 0.10680921E+04</pdfrwt>
<totfact> 0.65645266E+00</totfact>
</mgrwt>
</event>
<event>
 4    1  0.7595604E-007  0.9179225E+03  0.7818608E-02  0.9497852E-01
         -2   -1    0    0    0  501 -0.00000000000E+00  0.00000000000E+00  0.61419627432E+03  0.61419627433E+03  0.25500000000E-02 0.  1.
          2   -1    0    0  501    0  0.00000000000E+00 -0.00000000000E+00 -0.11089553825E+04  0.11089553825E+04  0.25500000000E-02 0. -1.
    8880023    1    1    2    0    0  0.27981009175E+03  0.57487207177E+03 -0.30638764349E+02  0.91843373549E+03  0.65864270000E+03 0.  0.
    8880022    1    1    2    0    0 -0.27981009175E+03 -0.57487207177E+03 -0.46412034382E+03  0.80471792133E+03  0.15294330000E+03 0.  0.
<mgrwt>
<rscale>  0 0.84442388E+03</rscale>
<asrwt>0</asrwt>
<pdfrwt beam="1">  1        2 0.17060852E+00 0.91792254E+03</pdfrwt>
<pdfrwt beam="2">  1       -2 0.94491735E-01 0.91792254E+03</pdfrwt>
<totfact> 0.20328548E+01</totfact>
</mgrwt>
</event>
<event>
 4    1  0.7595604E-007  0.7669573E+03  0.7818608E-02  0.9787418E-01
         -2   -1    0    0    0  501 -0.00000000000E+00  0.00000000000E+00  0.40045492192E+03  0.40045492193E+03  0.25500000000E-02 0.  1.
          2   -1    0    0  501    0  0.00000000000E+00 -0.00000000000E+00 -0.10691819586E+04  0.10691819586E+04  0.25500000000E-02 0. -1.
    8880023    1    1    2    0    0  0.12371705296E+03 -0.37297101822E+03 -0.11794117471E+03  0.77597269062E+03  0.65864270000E+03 0.  1.
    8880022    1    1    2    0    0 -0.12371705296E+03  0.37297101822E+03 -0.55078586201E+03  0.69366418996E+03  0.15294330000E+03 0.  0.
<mgrwt>
<rscale>  0 0.66042175E+03</rscale>
<asrwt>0</asrwt>
<pdfrwt beam="1">  1        2 0.16448953E+00 0.76695730E+03</pdfrwt>
<pdfrwt beam="2">  1       -2 0.61608450E-01 0.76695730E+03</pdfrwt>
<totfact> 0.56554040E+01</totfact>
</mgrwt>
</event>
<event>
 4    1  0.7595604E-007  0.1020249E+04  0.7818608E-02  0.9355533E-01
          2   -1    0    0  501    0  0.00000000000E+00  0.00000000000E+00  0.19925390078E+04  0.19925390078E+04  0.25500000000E-02 0. -1.
         -2   -1    0    0    0  501 -0.00000000000E+00 -0.00000000000E+00 -0.47976098421E+03  0.47976098421E+03  0.25500000000E-02 0.  1.
    8880023    1    1    2    0    0 -0.77231498143E+03  0.10308799324E+03  0.37952122450E+03  0.10885513911E+04  0.65864270000E+03 0.  0.
    8880022    1    1    2    0    0  0.77231498143E+03 -0.10308799324E+03  0.11332567990E+04  0.13837486009E+04  0.15294330000E+03 0.  0.
<mgrwt>
<rscale>  0 0.95827311E+03</rscale>
<asrwt>0</asrwt>
<pdfrwt beam="1">  1        2 0.30654447E+00 0.10202489E+04</pdfrwt>
<pdfrwt beam="2">  1       -2 0.73809381E-01 0.10202489E+04</pdfrwt>
<totfact> 0.11163686E+01</totfact>
</mgrwt>
</event>
<event>
 4    1  0.7595604E-007  0.7098544E+03  0.7818608E-02  0.9958542E-01
         -2   -1    0    0    0  501 -0.00000000000E+00  0.00000000000E+00  0.17220426243E+03  0.17220426245E+03  0.25500000000E-02 0.  1.
          2   -1    0    0  501    0  0.00000000000E+00 -0.00000000000E+00 -0.17683674679E+04  0.17683674679E+04  0.25500000000E-02 0. -1.
    8880023    1    1    2    0    0  0.47211512481E+02 -0.26048813562E+03 -0.71353854112E+03  0.10064941389E+04  0.65864270000E+03 0.  0.
    8880022    1    1    2    0    0 -0.47211512481E+02  0.26048813562E+03 -0.88262466436E+03  0.93407759146E+03  0.15294330000E+03 0.  0.
<mgrwt>
<rscale>  0 0.57506067E+03</rscale>
<asrwt>0</asrwt>
<pdfrwt beam="1">  1        2 0.27205652E+00 0.70985435E+03</pdfrwt>
<pdfrwt beam="2">  1       -2 0.26492965E-01 0.70985435E+03</pdfrwt>
<totfact> 0.11880940E+02</totfact>
</mgrwt>
</event>
<event>
 4    1  0.7595604E-007  0.8012356E+03  0.7818608E-02  0.9708131E-01
         -2   -1    0    0    0  501 -0.00000000000E+00  0.00000000000E+00  0.36908970605E+03  0.36908970606E+03  0.25500000000E-02 0.  1.
          2   -1    0    0  501    0  0.00000000000E+00 -0.00000000000E+00 -0.15558264607E+04  0.15558264607E+04  0.25500000000E-02 0. -1.
    8880023    1    1    2    0    0  0.23371290729E+03 -0.39185019406E+03 -0.12007213480E+04  0.14435062381E+04  0.65864270000E+03 0. -1.
    8880022    1    1    2    0    0 -0.23371290729E+03  0.39185019406E+03  0.13984593264E+02  0.48140992874E+03  0.15294330000E+03 0.  0.
<mgrwt>
<rscale>  0 0.70534747E+03</rscale>
<asrwt>0</asrwt>
<pdfrwt beam="1">  1        2 0.23935791E+00 0.80123561E+03</pdfrwt>
<pdfrwt beam="2">  1       -2 0.56783033E-01 0.80123561E+03</pdfrwt>
<totfact> 0.34961284E+01</totfact>
</mgrwt>
</event>
<event>
 4    1  0.7595604E-007  0.7778485E+03  0.7818608E-02  0.9760915E-01
          2   -1    0    0  501    0  0.00000000000E+00  0.00000000000E+00  0.16414514952E+04  0.16414514952E+04  0.25500000000E-02 0. -1.
         -2   -1    0    0    0  501 -0.00000000000E+00 -0.00000000000E+00 -0.40379180571E+03  0.40379180572E+03  0.25500000000E-02 0.  1.
    8880023    1    1    2    0    0  0.20676318733E+03 -0.35845098607E+03  0.51331748706E+02  0.77954042854E+03  0.65864270000E+03 0.  0.
    8880022    1    1    2    0    0 -0.20676318733E+03  0.35845098607E+03  0.11863279408E+04  0.12657028723E+04  0.15294330000E+03 0.  0.
<mgrwt>
<rscale>  0 0.67502901E+03</rscale>
<asrwt>0</asrwt>
<pdfrwt beam="1">  1        2 0.25253100E+00 0.77784853E+03</pdfrwt>
<pdfrwt beam="2">  1       -2 0.62121817E-01 0.77784853E+03</pdfrwt>
<totfact> 0.26009330E+01</totfact>
</mgrwt>
</event>
<event>
 4    1  0.7595604E-007  0.1027805E+04  0.7818608E-02  0.9346051E-01
          2   -1    0    0  501    0  0.00000000000E+00  0.00000000000E+00  0.24407531456E+04  0.24407531456E+04  0.25500000000E-02 0. -1.
         -2   -1    0    0    0  501 -0.00000000000E+00 -0.00000000000E+00 -0.61238909616E+03  0.61238909616E+03  0.25500000000E-02 0.  1.
    8880023    1    1    2    0    0  0.60942662007E+03  0.50117136523E+03 -0.30191539916E+02  0.10282486460E+04  0.65864270000E+03 0.  0.
    8880022    1    1    2    0    0 -0.60942662007E+03 -0.50117136523E+03  0.18585555894E+04  0.20248935958E+04  0.15294330000E+03 0.  0.
<mgrwt>
<rscale>  0 0.96651652E+03</rscale>
<asrwt>0</asrwt>
<pdfrwt beam="1">  1        2 0.37550048E+00 0.10278053E+04</pdfrwt>
<pdfrwt beam="2">  1       -2 0.94213709E-01 0.10278053E+04</pdfrwt>
<totfact> 0.35945362E+00</totfact>
</mgrwt>
</event>
<event>
 4    1  0.7595604E-007  0.1132835E+04  0.7818608E-02  0.9225350E-01
          2   -1    0    0  501    0  0.00000000000E+00  0.00000000000E+00  0.26994054697E+04  0.26994054697E+04  0.25500000000E-02 0. -1.
         -2   -1    0    0    0  501 -0.00000000000E+00 -0.00000000000E+00 -0.75373919492E+03  0.75373919493E+03  0.25500000000E-02 0.  1.
    8880023    1    1    2    0    0 -0.28910016778E+03  0.87517192001E+03 -0.16514344398E+03  0.11448088748E+04  0.65864270000E+03 0.  0.
    8880022    1    1    2    0    0  0.28910016778E+03 -0.87517192001E+03  0.21108097188E+04  0.23083357898E+04  0.15294330000E+03 0.  0.
<mgrwt>
<rscale>  0 0.10795564E+04</rscale>
<asrwt>0</asrwt>
<pdfrwt beam="1">  1        2 0.41529315E+00 0.11328349E+04</pdfrwt>
<pdfrwt beam="2">  1       -2 0.11595988E+00 0.11328349E+04</pdfrwt>
<totfact> 0.15239272E+00</totfact>
</mgrwt>
</event>
<event>
 4    1  0.7595604E-007  0.8330744E+03  0.7818608E-02  0.9643380E-01
         -2   -1    0    0    0  501 -0.00000000000E+00  0.00000000000E+00  0.24727031865E+03  0.24727031866E+03  0.25500000000E-02 0.  1.
          2   -1    0    0  501    0  0.00000000000E+00 -0.00000000000E+00 -0.46742946882E+04  0.46742946882E+04  0.25500000000E-02 0. -1.
    8880023    1    1    2    0    0 -0.46708747992E+03  0.20501697133E+03 -0.52791948325E+03  0.98626155734E+03  0.65864270000E+03 0.  1.
    8880022    1    1    2    0    0  0.46708747992E+03 -0.20501697133E+03 -0.38991048863E+04  0.39353034495E+04  0.15294330000E+03 0.  0.
<mgrwt>
<rscale>  0 0.74490350E+03</rscale>
<asrwt>0</asrwt>
<pdfrwt beam="1">  1        2 0.71912220E+00 0.83307435E+03</pdfrwt>
<pdfrwt beam="2">  1       -2 0.38041591E-01 0.83307435E+03</pdfrwt>
<totfact> 0.60094580E-01</totfact>
</mgrwt>
</event>
<event>
 4    1  0.7595604E-007  0.9800299E+03  0.7818608E-02  0.9408164E-01
          2   -1    0    0  501    0  0.00000000000E+00  0.00000000000E+00  0.13248409587E+04  0.13248409587E+04  0.25500000000E-02 0. -1.
         -2   -1    0    0    0  501 -0.00000000000E+00 -0.00000000000E+00 -0.12212223693E+04  0.12212223693E+04  0.25500000000E-02 0.  1.
    8880023    1    1    2    0    0  0.66728605174E+03  0.28526782738E+03 -0.87797797778E+03  0.13157902355E+04  0.65864270000E+03 0.  0.
    8880022    1    1    2    0    0 -0.66728605174E+03 -0.28526782738E+03  0.98159656725E+03  0.12302730925E+04  0.15294330000E+03 0.  0.
<mgrwt>
<rscale>  0 0.91406859E+03</rscale>
<asrwt>0</asrwt>
<pdfrwt beam="1">  1        2 0.20382169E+00 0.98002990E+03</pdfrwt>
<pdfrwt beam="2">  1       -2 0.18788037E+00 0.98002990E+03</pdfrwt>
<totfact> 0.25471907E+00</totfact>
</mgrwt>
</event>
<event>
 4    1  0.7595604E-007  0.7072799E+03  0.7818608E-02  0.9968244E-01
          2   -1    0    0  501    0  0.00000000000E+00  0.00000000000E+00  0.18319936890E+04  0.18319936890E+04  0.25500000000E-02 0. -1.
         -2   -1    0    0    0  501 -0.00000000000E+00 -0.00000000000E+00 -0.17217818160E+03  0.17217818162E+03  0.25500000000E-02 0.  1.
    8880023    1    1    2    0    0 -0.17918887890E+03 -0.18527295073E+03  0.15135995429E+04  0.16706970112E+04  0.65864270000E+03 0.  0.
    8880022    1    1    2    0    0  0.17918887890E+03  0.18527295073E+03  0.14621596449E+03  0.33347485945E+03  0.15294330000E+03 0.  0.
<mgrwt>
<rscale>  0 0.57064891E+03</rscale>
<asrwt>0</asrwt>
<pdfrwt beam="1">  1        2 0.28184519E+00 0.70727995E+03</pdfrwt>
<pdfrwt beam="2">  1       -2 0.26488950E-01 0.70727995E+03</pdfrwt>
<totfact> 0.10976117E+02</totfact>
</mgrwt>
</event>
<event>
 4    1  0.7688561E-007  0.7008093E+03  0.7818608E-02  0.9993860E-01
          2   -1    0    0  501    0  0.00000000000E+00  0.00000000000E+00  0.18693741478E+04  0.18693741478E+04  0.25500000000E-02 0. -1.
         -2   -1    0    0    0  501 -0.00000000000E+00 -0.00000000000E+00 -0.44587588917E+03  0.44587588917E+03  0.25500000000E-02 0.  1.
    8880023    1    1    2    0    0 -0.31825785899E+02  0.23729841694E+03 -0.14968723129E+03  0.71661697775E+03  0.65864270000E+03 0.  1.
    8880022    1    1    2    0    0  0.31825785899E+02 -0.23729841694E+03  0.15731854900E+04  0.15986330593E+04  0.15294330000E+03 0.  0.
<mgrwt>
<rscale>  0 0.55920263E+03</rscale>
<asrwt>0</asrwt>
<pdfrwt beam="1">  1        2 0.28759602E+00 0.70080926E+03</pdfrwt>
<pdfrwt beam="2">  1       -2 0.68596291E-01 0.70080926E+03</pdfrwt>
<totfact> 0.15941098E+01</totfact>
</mgrwt>
</event>
<event>
 4    1  0.7595604E-007  0.8058669E+03  0.7818608E-02  0.9698251E-01
         -2   -1    0    0    0  501 -0.00000000000E+00  0.00000000000E+00  0.19381551065E+04  0.19381551065E+04  0.25500000000E-02 0.  1.
          2   -1    0    0  501    0  0.00000000000E+00 -0.00000000000E+00 -0.51448125968E+03  0.51448125968E+03  0.25500000000E-02 0. -1.
    8880023    1    1    2    0    0 -0.37142145584E+03 -0.27867055381E+03  0.17069488381E+04  0.18876164116E+04  0.65864270000E+03 0.  1.
    8880022    1    1    2    0    0  0.37142145584E+03  0.27867055381E+03 -0.28327499121E+03  0.56501995458E+03  0.15294330000E+03 0.  0.
<mgrwt>
<rscale>  0 0.71120999E+03</rscale>
<asrwt>0</asrwt>
<pdfrwt beam="1">  1        2 0.79150963E-01 0.80586685E+03</pdfrwt>
<pdfrwt beam="2">  1       -2 0.29817771E+00 0.80586685E+03</pdfrwt>
<totfact> 0.20052168E+00</totfact>
</mgrwt>
</event>
<event>
 4    1  0.7595604E-007  0.9476919E+03  0.7818608E-02  0.9453443E-01
         -2   -1    0    0    0  501 -0.00000000000E+00  0.00000000000E+00  0.58407505741E+03  0.58407505742E+03  0.25500000000E-02 0.  1.
          2   -1    0    0  501    0  0.00000000000E+00 -0.00000000000E+00 -0.21273209336E+04  0.21273209336E+04  0.25500000000E-02 0. -1.
    8880023    1    1    2    0    0  0.65976081701E+03 -0.17036822497E+03  0.73229815602E+02  0.95051695403E+03  0.65864270000E+03 0. -1.
    8880022    1    1    2    0    0 -0.65976081701E+03  0.17036822497E+03 -0.16164756918E+04  0.17608790370E+04  0.15294330000E+03 0.  0.
<mgrwt>
<rscale>  0 0.87805073E+03</rscale>
<asrwt>0</asrwt>
<pdfrwt beam="1">  1        2 0.32728014E+00 0.94769187E+03</pdfrwt>
<pdfrwt beam="2">  1       -2 0.89857702E-01 0.94769187E+03</pdfrwt>
<totfact> 0.60752653E+00</totfact>
</mgrwt>
</event>
<event>
 4    1  0.7595604E-007  0.7612651E+03  0.7818608E-02  0.9801843E-01
         -2   -1    0    0    0  501 -0.00000000000E+00  0.00000000000E+00  0.13646329596E+03  0.13646329599E+03  0.25500000000E-02 0.  1.
          2   -1    0    0  501    0  0.00000000000E+00 -0.00000000000E+00 -0.31590745598E+04  0.31590745598E+04  0.25500000000E-02 0. -1.
    8880023    1    1    2    0    0 -0.34493920224E+03 -0.16349689273E+03 -0.11558616443E+04  0.13840305756E+04  0.65864270000E+03 0.  1.
    8880022    1    1    2    0    0  0.34493920224E+03  0.16349689273E+03 -0.18667496196E+04  0.19115072802E+04  0.15294330000E+03 0.  0.
<mgrwt>
<rscale>  0 0.65263713E+03</rscale>
<asrwt>0</asrwt>
<pdfrwt beam="1">  1        2 0.48601142E+00 0.76126506E+03</pdfrwt>
<pdfrwt beam="2">  1       -2 0.20994356E-01 0.76126506E+03</pdfrwt>
<totfact> 0.28655829E+01</totfact>
</mgrwt>
</event>
<event>
 4    1  0.7595604E-007  0.6683552E+03  0.7818608E-02  0.1016870E+00
         -2   -1    0    0    0  501 -0.00000000000E+00  0.00000000000E+00  0.23783285564E+03  0.23783285565E+03  0.25500000000E-02 0.  1.
          2   -1    0    0  501    0  0.00000000000E+00 -0.00000000000E+00 -0.15416117040E+04  0.15416117040E+04  0.25500000000E-02 0. -1.
    8880023    1    1    2    0    0  0.66345508265E+02  0.92123721837E+02 -0.25793960044E+03  0.71640180788E+03  0.65864270000E+03 0.  1.
    8880022    1    1    2    0    0 -0.66345508265E+02 -0.92123721837E+02 -0.10458392479E+04  0.10630427517E+04  0.15294330000E+03 0.  0.
<mgrwt>
<rscale>  0 0.48833085E+03</rscale>
<asrwt>0</asrwt>
<pdfrwt beam="1">  1        2 0.23717103E+00 0.66835523E+03</pdfrwt>
<pdfrwt beam="2">  1       -2 0.36589671E-01 0.66835523E+03</pdfrwt>
<totfact> 0.86954271E+01</totfact>
</mgrwt>
</event>
<event>
 4    1  0.7595604E-007  0.7223298E+03  0.7818608E-02  0.9914780E-01
         -2   -1    0    0    0  501 -0.00000000000E+00  0.00000000000E+00  0.16534512430E+04  0.16534512430E+04  0.25500000000E-02 0.  1.
          2   -1    0    0  501    0  0.00000000000E+00 -0.00000000000E+00 -0.10591733433E+04  0.10591733433E+04  0.25500000000E-02 0. -1.
    8880023    1    1    2    0    0 -0.27782912462E+03 -0.10373600608E+03  0.15447458485E+04  0.17052859362E+04  0.65864270000E+03 0.  1.
    8880022    1    1    2    0    0  0.27782912462E+03  0.10373600608E+03 -0.95046794878E+03  0.10073386502E+04  0.15294330000E+03 0.  0.
<mgrwt>
<rscale>  0 0.59550301E+03</rscale>
<asrwt>0</asrwt>
<pdfrwt beam="1">  1        2 0.16294975E+00 0.72232983E+03</pdfrwt>
<pdfrwt beam="2">  1       -2 0.25437711E+00 0.72232983E+03</pdfrwt>
<totfact> 0.14524238E+00</totfact>
</mgrwt>
</event>
<event>
 4    1  0.7595604E-007  0.6638046E+03  0.7818608E-02  0.1020558E+00
         -2   -1    0    0    0  501 -0.00000000000E+00  0.00000000000E+00  0.14436146066E+04  0.14436146066E+04  0.25500000000E-02 0.  1.
          2   -1    0    0  501    0  0.00000000000E+00 -0.00000000000E+00 -0.27299396650E+03  0.27299396651E+03  0.25500000000E-02 0. -1.
    8880023    1    1    2    0    0 -0.40768917232E+02 -0.71862558633E+02  0.13263725744E+04  0.14832062380E+04  0.65864270000E+03 0.  1.
    8880022    1    1    2    0    0  0.40768917232E+02  0.71862558633E+02 -0.15575193437E+03  0.23340233508E+03  0.15294330000E+03 0.  0.
<mgrwt>
<rscale>  0 0.47485758E+03</rscale>
<asrwt>0</asrwt>
<pdfrwt beam="1">  1        2 0.41999073E-01 0.66380459E+03</pdfrwt>
<pdfrwt beam="2">  1       -2 0.22209455E+00 0.66380459E+03</pdfrwt>
<totfact> 0.12045446E+01</totfact>
</mgrwt>
</event>
<event>
 4    1  0.7595604E-007  0.1223511E+04  0.7818608E-02  0.9134600E-01
         -2   -1    0    0    0  501 -0.00000000000E+00  0.00000000000E+00  0.12338445939E+04  0.12338445939E+04  0.25500000000E-02 0.  1.
          2   -1    0    0  501    0  0.00000000000E+00 -0.00000000000E+00 -0.17734532748E+04  0.17734532748E+04  0.25500000000E-02 0. -1.
    8880023    1    1    2    0    0 -0.10209978253E+04 -0.14398607235E+03  0.68252527945E+03  0.14010066066E+04  0.65864270000E+03 0.  1.
    8880022    1    1    2    0    0  0.10209978253E+04  0.14398607235E+03 -0.12221339603E+04  0.16062912620E+04  0.15294330000E+03 0.  0.
<mgrwt>
<rscale>  0 0.11754728E+04</rscale>
<asrwt>0</asrwt>
<pdfrwt beam="1">  1        2 0.27283897E+00 0.12235108E+04</pdfrwt>
<pdfrwt beam="2">  1       -2 0.18982224E+00 0.12235108E+04</pdfrwt>
<totfact> 0.13428473E+00</totfact>
</mgrwt>
</event>
<event>
 4    1  0.7595604E-007  0.9057763E+03  0.7818608E-02  0.9516822E-01
          2   -1    0    0  501    0  0.00000000000E+00  0.00000000000E+00  0.27078143305E+04  0.27078143305E+04  0.25500000000E-02 0. -1.
         -2   -1    0    0    0  501 -0.00000000000E+00 -0.00000000000E+00 -0.31056978171E+03  0.31056978172E+03  0.25500000000E-02 0.  1.
    8880023    1    1    2    0    0 -0.54160361985E+03 -0.30542760474E+03  0.54155375537E+03  0.10553251532E+04  0.65864270000E+03 0.  1.
    8880022    1    1    2    0    0  0.54160361985E+03  0.30542760474E+03  0.18556907935E+04  0.19630589591E+04  0.15294330000E+03 0.  0.
<mgrwt>
<rscale>  0 0.83054909E+03</rscale>
<asrwt>0</asrwt>
<pdfrwt beam="1">  1        2 0.41658682E+00 0.90577630E+03</pdfrwt>
<pdfrwt beam="2">  1       -2 0.47779966E-01 0.90577630E+03</pdfrwt>
<totfact> 0.11221389E+01</totfact>
</mgrwt>
</event>
<event>
 4    1  0.7595604E-007  0.6893106E+03  0.7818608E-02  0.1004482E+00
         -2   -1    0    0    0  501 -0.00000000000E+00  0.00000000000E+00  0.29810754645E+03  0.29810754646E+03  0.25500000000E-02 0.  1.
          2   -1    0    0  501    0  0.00000000000E+00 -0.00000000000E+00 -0.38933692468E+04  0.38933692468E+04  0.25500000000E-02 0. -1.
    8880023    1    1    2    0    0  0.19132255945E+03 -0.68808600547E+02 -0.11130087919E+03  0.69823852460E+03  0.65864270000E+03 0.  1.
    8880022    1    1    2    0    0 -0.19132255945E+03  0.68808600547E+02 -0.34839608212E+04  0.34932382687E+04  0.15294330000E+03 0.  0.
<mgrwt>
<rscale>  0 0.53727909E+03</rscale>
<asrwt>0</asrwt>
<pdfrwt beam="1">  1        2 0.59897985E+00 0.68931064E+03</pdfrwt>
<pdfrwt beam="2">  1       -2 0.45862702E-01 0.68931064E+03</pdfrwt>
<totfact> 0.21026318E+00</totfact>
</mgrwt>
</event>
<event>
 4    1  0.7595604E-007  0.1055717E+04  0.7818608E-02  0.9312040E-01
         -2   -1    0    0    0  501 -0.00000000000E+00  0.00000000000E+00  0.22699138573E+04  0.22699138573E+04  0.25500000000E-02 0.  1.
          2   -1    0    0  501    0  0.00000000000E+00 -0.00000000000E+00 -0.51288722736E+03  0.51288722737E+03  0.25500000000E-02 0. -1.
    8880023    1    1    2    0    0  0.81317029138E+03 -0.13957703928E+03  0.29345390828E+03  0.10957431612E+04  0.65864270000E+03 0.  0.
    8880022    1    1    2    0    0 -0.81317029138E+03  0.13957703928E+03  0.14635727216E+04  0.16870579235E+04  0.15294330000E+03 0.  0.
<mgrwt>
<rscale>  0 0.99681909E+03</rscale>
<asrwt>0</asrwt>
<pdfrwt beam="1">  1        2 0.78905728E-01 0.10557168E+04</pdfrwt>
<pdfrwt beam="2">  1       -2 0.34921751E+00 0.10557168E+04</pdfrwt>
<totfact> 0.94733233E-01</totfact>
</mgrwt>
</event>
<event>
 4    1  0.7595604E-007  0.7165033E+03  0.7818608E-02  0.9934600E-01
          2   -1    0    0  501    0  0.00000000000E+00  0.00000000000E+00  0.73382766936E+03  0.73382766936E+03  0.25500000000E-02 0. -1.
         -2   -1    0    0    0  501 -0.00000000000E+00 -0.00000000000E+00 -0.72003261384E+03  0.72003261384E+03  0.25500000000E-02 0.  1.
    8880023    1    1    2    0    0 -0.18654766628E+03 -0.21158158538E+03 -0.48182250793E+03  0.86344075331E+03  0.65864270000E+03 0.  0.
    8880022    1    1    2    0    0  0.18654766628E+03  0.21158158538E+03  0.49561756345E+03  0.59041952989E+03  0.15294330000E+03 0.  0.
<mgrwt>
<rscale>  0 0.58613331E+03</rscale>
<asrwt>0</asrwt>
<pdfrwt beam="1">  1        2 0.11289656E+00 0.71650332E+03</pdfrwt>
<pdfrwt beam="2">  1       -2 0.11077425E+00 0.71650332E+03</pdfrwt>
<totfact> 0.25338383E+01</totfact>
</mgrwt>
</event>
<event>
 4    1  0.7595604E-007  0.8788972E+03  0.7818608E-02  0.9560795E-01
          2   -1    0    0  501    0  0.00000000000E+00  0.00000000000E+00  0.36107731123E+04  0.36107731123E+04  0.25500000000E-02 0. -1.
         -2   -1    0    0    0  501 -0.00000000000E+00 -0.00000000000E+00 -0.22887986786E+03  0.22887986787E+03  0.25500000000E-02 0.  1.
    8880023    1    1    2    0    0 -0.40488760204E+03  0.41799052810E+03  0.79965002055E+03  0.11882341577E+04  0.65864270000E+03 0.  0.
    8880022    1    1    2    0    0  0.40488760204E+03 -0.41799052810E+03  0.25822432239E+04  0.26514188225E+04  0.15294330000E+03 0.  0.
<mgrwt>
<rscale>  0 0.79946302E+03</rscale>
<asrwt>0</asrwt>
<pdfrwt beam="1">  1        2 0.55550350E+00 0.87889718E+03</pdfrwt>
<pdfrwt beam="2">  1       -2 0.35212291E-01 0.87889718E+03</pdfrwt>
<totfact> 0.54485500E+00</totfact>
</mgrwt>
</event>
<event>
 4    1  0.7595604E-007  0.6640087E+03  0.7818608E-02  0.1020380E+00
          2   -1    0    0  501    0  0.00000000000E+00  0.00000000000E+00  0.16464937870E+04  0.16464937870E+04  0.25500000000E-02 0. -1.
         -2   -1    0    0    0  501 -0.00000000000E+00 -0.00000000000E+00 -0.10173832604E+04  0.10173832604E+04  0.25500000000E-02 0.  1.
    8880023    1    1    2    0    0 -0.35309360423E+02  0.76488872737E+02 -0.90355209579E+03  0.11213000913E+04  0.65864270000E+03 0.  1.
    8880022    1    1    2    0    0  0.35309360423E+02 -0.76488872737E+02  0.15326626223E+04  0.15425769561E+04  0.15294330000E+03 0.  0.
<mgrwt>
<rscale>  0 0.47549737E+03</rscale>
<asrwt>0</asrwt>
<pdfrwt beam="1">  1        2 0.25330674E+00 0.66400866E+03</pdfrwt>
<pdfrwt beam="2">  1       -2 0.15652050E+00 0.66400866E+03</pdfrwt>
<totfact> 0.29381572E+00</totfact>
</mgrwt>
</event>
<event>
 4    1  0.8478099E-007  0.6912194E+03  0.7818608E-02  0.1003578E+00
          2   -1    0    0  501    0  0.00000000000E+00  0.00000000000E+00  0.13652880666E+04  0.13652880666E+04  0.25500000000E-02 0. -1.
         -2   -1    0    0    0  501 -0.00000000000E+00 -0.00000000000E+00 -0.64508689641E+03  0.64508689642E+03  0.25500000000E-02 0.  1.
    8880023    1    1    2    0    0 -0.20595387319E+03  0.39459115378E+02 -0.44139803275E+03  0.82013197063E+03  0.65864270000E+03 0.  1.
    8880022    1    1    2    0    0  0.20595387319E+03 -0.39459115378E+02  0.11615992029E+04  0.11902429924E+04  0.15294330000E+03 0.  0.
<mgrwt>
<rscale>  0 0.54108658E+03</rscale>
<asrwt>0</asrwt>
<pdfrwt beam="1">  1        2 0.21004432E+00 0.69121938E+03</pdfrwt>
<pdfrwt beam="2">  1       -2 0.99244139E-01 0.69121938E+03</pdfrwt>
<totfact> 0.13123708E+01</totfact>
</mgrwt>
</event>
<event>
 4    1  0.7595604E-007  0.1039573E+04  0.7818608E-02  0.9331523E-01
          2   -1    0    0  501    0  0.00000000000E+00  0.00000000000E+00  0.58813039986E+03  0.58813039987E+03  0.25500000000E-02 0. -1.
         -2   -1    0    0    0  501 -0.00000000000E+00 -0.00000000000E+00 -0.15503863166E+04  0.15503863166E+04  0.25500000000E-02 0.  1.
    8880023    1    1    2    0    0  0.57957586538E+03  0.55766745575E+03 -0.29026474182E+03  0.10793354444E+04  0.65864270000E+03 0. -1.
    8880022    1    1    2    0    0 -0.57957586538E+03 -0.55766745575E+03 -0.67199117495E+03  0.10591812721E+04  0.15294330000E+03 0.  0.
<mgrwt>
<rscale>  0 0.97931909E+03</rscale>
<asrwt>0</asrwt>
<pdfrwt beam="1">  1        2 0.90481601E-01 0.10395727E+04</pdfrwt>
<pdfrwt beam="2">  1       -2 0.23852097E+00 0.10395727E+04</pdfrwt>
<totfact> 0.38203944E+00</totfact>
</mgrwt>
</event>
<event>
 4    1  0.7595604E-007  0.1149014E+04  0.7818608E-02  0.9208352E-01
         -2   -1    0    0    0  501 -0.00000000000E+00  0.00000000000E+00  0.15847164329E+04  0.15847164329E+04  0.25500000000E-02 0.  1.
          2   -1    0    0  501    0  0.00000000000E+00 -0.00000000000E+00 -0.23634115057E+04  0.23634115057E+04  0.25500000000E-02 0. -1.
    8880023    1    1    2    0    0 -0.64231951056E+03 -0.68836675960E+03  0.12551897327E+04  0.17016858173E+04  0.65864270000E+03 0.  1.
    8880022    1    1    2    0    0  0.64231951056E+03  0.68836675960E+03 -0.20338848055E+04  0.22464421213E+04  0.15294330000E+03 0.  0.
<mgrwt>
<rscale>  0 0.10967639E+04</rscale>
<asrwt>0</asrwt>
<pdfrwt beam="1">  1        2 0.36360177E+00 0.11490141E+04</pdfrwt>
<pdfrwt beam="2">  1       -2 0.24380253E+00 0.11490141E+04</pdfrwt>
<totfact> 0.28783044E-01</totfact>
</mgrwt>
</event>
<event>
 4    1  0.7595604E-007  0.1470800E+04  0.7818608E-02  0.8930535E-01
          2   -1    0    0  501    0  0.00000000000E+00  0.00000000000E+00  0.23304986904E+04  0.23304986904E+04  0.25500000000E-02 0. -1.
         -2   -1    0    0    0  501 -0.00000000000E+00 -0.00000000000E+00 -0.12103930503E+04  0.12103930503E+04  0.25500000000E-02 0.  1.
    8880023    1    1    2    0    0 -0.11338369649E+04 -0.66622518119E+03 -0.40082968540E+03  0.15244398637E+04  0.65864270000E+03 0.  1.
    8880022    1    1    2    0    0  0.11338369649E+04  0.66622518119E+03  0.15209353255E+04  0.20164518770E+04  0.15294330000E+03 0.  0.
<mgrwt>
<rscale>  0 0.14326259E+04</rscale>
<asrwt>0</asrwt>
<pdfrwt beam="1">  1        2 0.35853826E+00 0.14707999E+04</pdfrwt>
<pdfrwt beam="2">  1       -2 0.18621432E+00 0.14707999E+04</pdfrwt>
<totfact> 0.67550819E-01</totfact>
</mgrwt>
</event>
<event>
 4    1  0.7595604E-007  0.7838278E+03  0.7818608E-02  0.9746921E-01
         -2   -1    0    0    0  501 -0.00000000000E+00  0.00000000000E+00  0.11496678891E+03  0.11496678894E+03  0.25500000000E-02 0.  1.
          2   -1    0    0  501    0  0.00000000000E+00 -0.00000000000E+00 -0.36038036303E+04  0.36038036303E+04  0.25500000000E-02 0. -1.
    8880023    1    1    2    0    0 -0.26536892222E+03 -0.33189635795E+03 -0.16715097237E+04  0.18461665201E+04  0.65864270000E+03 0. -1.
    8880022    1    1    2    0    0  0.26536892222E+03  0.33189635795E+03 -0.18173271177E+04  0.18726038991E+04  0.15294330000E+03 0.  0.
<mgrwt>
<rscale>  0 0.68290554E+03</rscale>
<asrwt>0</asrwt>
<pdfrwt beam="1">  1        2 0.55443124E+00 0.78382783E+03</pdfrwt>
<pdfrwt beam="2">  1       -2 0.17687201E-01 0.78382783E+03</pdfrwt>
<totfact> 0.19492335E+01</totfact>
</mgrwt>
</event>
<event>
 4    1  0.7595604E-007  0.7922800E+03  0.7818608E-02  0.9727744E-01
         -2   -1    0    0    0  501 -0.00000000000E+00  0.00000000000E+00  0.61783315057E+03  0.61783315058E+03  0.25500000000E-02 0.  1.
          2   -1    0    0  501    0  0.00000000000E+00 -0.00000000000E+00 -0.10477302087E+04  0.10477302087E+04  0.25500000000E-02 0. -1.
    8880023    1    1    2    0    0  0.19502356878E+03  0.39479523138E+03  0.25920833978E+03  0.83360460458E+03  0.65864270000E+03 0.  1.
    8880022    1    1    2    0    0 -0.19502356878E+03 -0.39479523138E+03 -0.68910539794E+03  0.83195875474E+03  0.15294330000E+03 0.  0.
<mgrwt>
<rscale>  0 0.69388706E+03</rscale>
<asrwt>0</asrwt>
<pdfrwt beam="1">  1        2 0.16118926E+00 0.79228005E+03</pdfrwt>
<pdfrwt beam="2">  1       -2 0.95051254E-01 0.79228005E+03</pdfrwt>
<totfact> 0.22137491E+01</totfact>
</mgrwt>
</event>
<event>
 4    1  0.7595604E-007  0.7006973E+03  0.7818608E-02  0.9994321E-01
         -2   -1    0    0    0  501 -0.00000000000E+00  0.00000000000E+00  0.85162244893E+02  0.85162244931E+02  0.25500000000E-02 0.  1.
          2   -1    0    0  501    0  0.00000000000E+00 -0.00000000000E+00 -0.43204832936E+04  0.43204832936E+04  0.25500000000E-02 0. -1.
    8880023    1    1    2    0    0 -0.88943634588E+02  0.22193585625E+03 -0.39169371849E+04  0.39791171899E+04  0.65864270000E+03 0. -1.
    8880022    1    1    2    0    0  0.88943634588E+02 -0.22193585625E+03 -0.31838386383E+03  0.42652834863E+03  0.15294330000E+03 0.  0.
<mgrwt>
<rscale>  0 0.55899962E+03</rscale>
<asrwt>0</asrwt>
<pdfrwt beam="1">  1        2 0.66468957E+00 0.70069730E+03</pdfrwt>
<pdfrwt beam="2">  1       -2 0.13101887E-01 0.70069730E+03</pdfrwt>
<totfact> 0.90480910E+00</totfact>
</mgrwt>
</event>
<event>
 4    1  0.7595604E-007  0.6689759E+03  0.7818608E-02  0.1016408E+00
          2   -1    0    0  501    0  0.00000000000E+00  0.00000000000E+00  0.26534582772E+04  0.26534582772E+04  0.25500000000E-02 0. -1.
         -2   -1    0    0    0  501 -0.00000000000E+00 -0.00000000000E+00 -0.11453162623E+03  0.11453162626E+03  0.25500000000E-02 0.  1.
    8880023    1    1    2    0    0  0.36560585830E+02  0.11127381963E+03  0.91928227196E+03  0.11369294794E+04  0.65864270000E+03 0.  1.
    8880022    1    1    2    0    0 -0.36560585830E+02 -0.11127381963E+03  0.16196443790E+04  0.16310604241E+04  0.15294330000E+03 0.  0.
<mgrwt>
<rscale>  0 0.49005464E+03</rscale>
<asrwt>0</asrwt>
<pdfrwt beam="1">  1        2 0.40822439E+00 0.66897589E+03</pdfrwt>
<pdfrwt beam="2">  1       -2 0.17620249E-01 0.66897589E+03</pdfrwt>
<totfact> 0.79420740E+01</totfact>
</mgrwt>
</event>
<event>
 4    1  0.7595604E-007  0.8055480E+03  0.7818608E-02  0.9698926E-01
          2   -1    0    0  501    0  0.00000000000E+00  0.00000000000E+00  0.72748850495E+03  0.72748850495E+03  0.25500000000E-02 0. -1.
         -2   -1    0    0    0  501 -0.00000000000E+00 -0.00000000000E+00 -0.78006244973E+03  0.78006244973E+03  0.25500000000E-02 0.  1.
    8880023    1    1    2    0    0  0.25627672190E+03  0.38654827662E+03 -0.40854874680E+03  0.90322733192E+03  0.65864270000E+03 0.  1.
    8880022    1    1    2    0    0 -0.25627672190E+03 -0.38654827662E+03  0.35597480203E+03  0.60432362277E+03  0.15294330000E+03 0.  0.
<mgrwt>
<rscale>  0 0.71080765E+03</rscale>
<asrwt>0</asrwt>
<pdfrwt beam="1">  1        2 0.11192131E+00 0.80554797E+03</pdfrwt>
<pdfrwt beam="2">  1       -2 0.12000961E+00 0.80554797E+03</pdfrwt>
<totfact> 0.20893039E+01</totfact>
</mgrwt>
</event>
<event>
 4    1  0.7595604E-007  0.7421881E+03  0.7818608E-02  0.9853619E-01
         -2   -1    0    0    0  501 -0.00000000000E+00  0.00000000000E+00  0.14976468725E+03  0.14976468728E+03  0.25500000000E-02 0.  1.
          2   -1    0    0  501    0  0.00000000000E+00 -0.00000000000E+00 -0.25042120490E+04  0.25042120490E+04  0.25500000000E-02 0. -1.
    8880023    1    1    2    0    0  0.19338913804E+03  0.28219429475E+03 -0.97979347287E+03  0.12291616795E+04  0.65864270000E+03 0.  1.
    8880022    1    1    2    0    0 -0.19338913804E+03 -0.28219429475E+03 -0.13746538889E+04  0.14248150567E+04  0.15294330000E+03 0. -1.
<mgrwt>
<rscale>  0 0.62562761E+03</rscale>
<asrwt>0</asrwt>
<pdfrwt beam="1">  1        2 0.38526336E+00 0.74218811E+03</pdfrwt>
<pdfrwt beam="2">  1       -2 0.23040723E-01 0.74218811E+03</pdfrwt>
<totfact> 0.59840380E+01</totfact>
</mgrwt>
</event>
<event>
 4    1  0.7595604E-007  0.6653138E+03  0.7818608E-02  0.1019272E+00
          2   -1    0    0  501    0  0.00000000000E+00  0.00000000000E+00  0.56225590682E+03  0.56225590683E+03  0.25500000000E-02 0. -1.
         -2   -1    0    0    0  501 -0.00000000000E+00 -0.00000000000E+00 -0.92403603054E+03  0.92403603055E+03  0.25500000000E-02 0.  1.
    8880023    1    1    2    0    0  0.90804647388E+02 -0.24224142254E+02 -0.78355184255E+03  0.10279085510E+04  0.65864270000E+03 0.  1.
    8880022    1    1    2    0    0 -0.90804647388E+02  0.24224142254E+02  0.42177171883E+03  0.45838338634E+03  0.15294330000E+03 0.  0.
<mgrwt>
<rscale>  0 0.47950402E+03</rscale>
<asrwt>0</asrwt>
<pdfrwt beam="1">  1        2 0.86500909E-01 0.66531384E+03</pdfrwt>
<pdfrwt beam="2">  1       -2 0.14215939E+00 0.66531384E+03</pdfrwt>
<totfact> 0.18912148E+01</totfact>
</mgrwt>
</event>
<event>
 4    1  0.7595604E-007  0.7142128E+03  0.7818608E-02  0.9942677E-01
          2   -1    0    0  501    0  0.00000000000E+00  0.00000000000E+00  0.16789124304E+04  0.16789124304E+04  0.25500000000E-02 0. -1.
         -2   -1    0    0    0  501 -0.00000000000E+00 -0.00000000000E+00 -0.24608277577E+03  0.24608277578E+03  0.25500000000E-02 0.  1.
    8880023    1    1    2    0    0 -0.16096473758E+03 -0.22445520319E+03  0.14419537619E+04  0.16091397213E+04  0.65864270000E+03 0. -1.
    8880022    1    1    2    0    0  0.16096473758E+03  0.22445520319E+03 -0.91241072508E+01  0.31585548489E+03  0.15294330000E+03 0.  0.
<mgrwt>
<rscale>  0 0.58236804E+03</rscale>
<asrwt>0</asrwt>
<pdfrwt beam="1">  1        2 0.25829421E+00 0.71421285E+03</pdfrwt>
<pdfrwt beam="2">  1       -2 0.37858890E-01 0.71421285E+03</pdfrwt>
<totfact> 0.68115434E+01</totfact>
</mgrwt>
</event>
<event>
 4    1  0.7595604E-007  0.6651949E+03  0.7818608E-02  0.1019370E+00
          2   -1    0    0  501    0  0.00000000000E+00  0.00000000000E+00  0.12998246915E+04  0.12998246915E+04  0.25500000000E-02 0. -1.
         -2   -1    0    0    0  501 -0.00000000000E+00 -0.00000000000E+00 -0.20364745989E+03  0.20364745990E+03  0.25500000000E-02 0.  1.
    8880023    1    1    2    0    0 -0.27374533462E+02 -0.89020420762E+02  0.38176698146E+03  0.76696169056E+03  0.65864270000E+03 0.  1.
    8880022    1    1    2    0    0  0.27374533462E+02  0.89020420762E+02  0.71441025013E+03  0.73651046082E+03  0.15294330000E+03 0.  0.
<mgrwt>
<rscale>  0 0.47914469E+03</rscale>
<asrwt>0</asrwt>
<pdfrwt beam="1">  1        2 0.19997302E+00 0.66519486E+03</pdfrwt>
<pdfrwt beam="2">  1       -2 0.31330379E-01 0.66519486E+03</pdfrwt>
<totfact> 0.15945629E+02</totfact>
</mgrwt>
</event>
<event>
 4    1  0.7595604E-007  0.8463397E+03  0.7818608E-02  0.9618340E-01
          2   -1    0    0  501    0  0.00000000000E+00  0.00000000000E+00  0.29031991470E+04  0.29031991470E+04  0.25500000000E-02 0. -1.
         -2   -1    0    0    0  501 -0.00000000000E+00 -0.00000000000E+00 -0.24396823201E+03  0.24396823203E+03  0.25500000000E-02 0.  1.
    8880023    1    1    2    0    0  0.44506863860E+03 -0.29050755996E+03  0.66118453761E+03  0.10739906585E+04  0.65864270000E+03 0.  0.
    8880022    1    1    2    0    0 -0.44506863860E+03  0.29050755996E+03  0.19980463774E+04  0.20731767205E+04  0.15294330000E+03 0.  0.
<mgrwt>
<rscale>  0 0.76094117E+03</rscale>
<asrwt>0</asrwt>
<pdfrwt beam="1">  1        2 0.44664603E+00 0.84633973E+03</pdfrwt>
<pdfrwt beam="2">  1       -2 0.37533574E-01 0.84633973E+03</pdfrwt>
<totfact> 0.13956452E+01</totfact>
</mgrwt>
</event>
<event>
 4    1  0.7595604E-007  0.8861251E+03  0.7818608E-02  0.9548683E-01
         -2   -1    0    0    0  501 -0.00000000000E+00  0.00000000000E+00  0.30992304955E+03  0.30992304956E+03  0.25500000000E-02 0.  1.
          2   -1    0    0  501    0  0.00000000000E+00 -0.00000000000E+00 -0.21734282991E+04  0.21734282991E+04  0.25500000000E-02 0. -1.
    8880023    1    1    2    0    0  0.58056182340E+03 -0.11981440073E+03 -0.57370132982E+03  0.10556282222E+04  0.65864270000E+03 0.  1.
    8880022    1    1    2    0    0 -0.58056182340E+03  0.11981440073E+03 -0.12898039197E+04  0.14277231264E+04  0.15294330000E+03 0.  0.
<mgrwt>
<rscale>  0 0.80787862E+03</rscale>
<asrwt>0</asrwt>
<pdfrwt beam="1">  1        2 0.33437358E+00 0.88612512E+03</pdfrwt>
<pdfrwt beam="2">  1       -2 0.47680470E-01 0.88612512E+03</pdfrwt>
<totfact> 0.22706942E+01</totfact>
</mgrwt>
</event>
<event>
 4    1  0.7595604E-007  0.8297483E+03  0.7818608E-02  0.9649822E-01
          2   -1    0    0  501    0  0.00000000000E+00  0.00000000000E+00  0.58584449011E+03  0.58584449011E+03  0.25500000000E-02 0. -1.
         -2   -1    0    0    0  501 -0.00000000000E+00 -0.00000000000E+00 -0.12103165009E+04  0.12103165009E+04  0.25500000000E-02 0.  1.
    8880023    1    1    2    0    0  0.15438694856E+03  0.48045464316E+03 -0.88059833512E+03  0.12099320758E+04  0.65864270000E+03 0.  1.
    8880022    1    1    2    0    0 -0.15438694856E+03 -0.48045464316E+03  0.25612632431E+03  0.58622891521E+03  0.15294330000E+03 0.  0.
<mgrwt>
<rscale>  0 0.74084575E+03</rscale>
<asrwt>0</asrwt>
<pdfrwt beam="1">  1        2 0.90129921E-01 0.82974828E+03</pdfrwt>
<pdfrwt beam="2">  1       -2 0.18620254E+00 0.82974828E+03</pdfrwt>
<totfact> 0.84730049E+00</totfact>
</mgrwt>
</event>
<event>
 4    1  0.7595604E-007  0.7998515E+03  0.7818608E-02  0.9711117E-01
          2   -1    0    0  501    0  0.00000000000E+00  0.00000000000E+00  0.11898519291E+04  0.11898519291E+04  0.25500000000E-02 0. -1.
         -2   -1    0    0    0  501 -0.00000000000E+00 -0.00000000000E+00 -0.39181164448E+03  0.39181164448E+03  0.25500000000E-02 0.  1.
    8880023    1    1    2    0    0  0.45378546395E+03  0.55586224683E+01  0.21712413176E+03  0.82879746647E+03  0.65864270000E+03 0.  1.
    8880022    1    1    2    0    0 -0.45378546395E+03 -0.55586224683E+01  0.58091615290E+03  0.75286610715E+03  0.15294330000E+03 0.  0.
<mgrwt>
<rscale>  0 0.70358712E+03</rscale>
<asrwt>0</asrwt>
<pdfrwt beam="1">  1        2 0.18305414E+00 0.79985146E+03</pdfrwt>
<pdfrwt beam="2">  1       -2 0.60278716E-01 0.79985146E+03</pdfrwt>
<totfact> 0.49901528E+01</totfact>
</mgrwt>
</event>
<event>
 4    1  0.7595604E-007  0.7956681E+03  0.7818608E-02  0.9720242E-01
          2   -1    0    0  501    0  0.00000000000E+00  0.00000000000E+00  0.44663933341E+04  0.44663933341E+04  0.25500000000E-02 0. -1.
         -2   -1    0    0    0  501 -0.00000000000E+00 -0.00000000000E+00 -0.28914567810E+03  0.28914567811E+03  0.25500000000E-02 0.  1.
    8880023    1    1    2    0    0  0.29514635617E+03  0.33491216908E+03  0.30103794855E+03  0.85071239869E+03  0.65864270000E+03 0.  0.
    8880022    1    1    2    0    0 -0.29514635617E+03 -0.33491216908E+03  0.38762097075E+04  0.39048266136E+04  0.15294330000E+03 0.  0.
<mgrwt>
<rscale>  0 0.69824282E+03</rscale>
<asrwt>0</asrwt>
<pdfrwt beam="1">  1        2 0.68713738E+00 0.79566811E+03</pdfrwt>
<pdfrwt beam="2">  1       -2 0.44483954E-01 0.79566811E+03</pdfrwt>
<totfact> 0.71554903E-01</totfact>
</mgrwt>
</event>
<event>
 4    1  0.7595604E-007  0.8702870E+03  0.7818608E-02  0.9575520E-01
         -2   -1    0    0    0  501 -0.00000000000E+00  0.00000000000E+00  0.52576562638E+03  0.52576562638E+03  0.25500000000E-02 0.  1.
          2   -1    0    0  501    0  0.00000000000E+00 -0.00000000000E+00 -0.17966397563E+04  0.17966397563E+04  0.25500000000E-02 0. -1.
    8880023    1    1    2    0    0 -0.11799685592E+03  0.55647638429E+03  0.54536061126E+02  0.87199404385E+03  0.65864270000E+03 0.  0.
    8880022    1    1    2    0    0  0.11799685592E+03 -0.55647638429E+03 -0.13254101910E+04  0.14504113388E+04  0.15294330000E+03 0.  0.
<mgrwt>
<rscale>  0 0.78937807E+03</rscale>
<asrwt>0</asrwt>
<pdfrwt beam="1">  1        2 0.27640611E+00 0.87028698E+03</pdfrwt>
<pdfrwt beam="2">  1       -2 0.80887020E-01 0.87028698E+03</pdfrwt>
<totfact> 0.11852435E+01</totfact>
</mgrwt>
</event>
<event>
 4    1  0.7595604E-007  0.6975668E+03  0.7818608E-02  0.1000745E+00
          2   -1    0    0  501    0  0.00000000000E+00  0.00000000000E+00  0.17617170955E+04  0.17617170956E+04  0.25500000000E-02 0. -1.
         -2   -1    0    0    0  501 -0.00000000000E+00 -0.00000000000E+00 -0.40883076756E+03  0.40883076757E+03  0.25500000000E-02 0.  1.
    8880023    1    1    2    0    0 -0.22936076183E+03  0.13524717030E+02 -0.88332811801E+02  0.70313737558E+03  0.65864270000E+03 0.  1.
    8880022    1    1    2    0    0  0.22936076183E+03 -0.13524717030E+02  0.14412191398E+04  0.14674104875E+04  0.15294330000E+03 0.  0.
<mgrwt>
<rscale>  0 0.55324838E+03</rscale>
<asrwt>0</asrwt>
<pdfrwt beam="1">  1        2 0.27103340E+00 0.69756683E+03</pdfrwt>
<pdfrwt beam="2">  1       -2 0.62897042E-01 0.69756683E+03</pdfrwt>
<totfact> 0.21994463E+01</totfact>
</mgrwt>
</event>
<event>
 4    1  0.7595604E-007  0.7843661E+03  0.7818608E-02  0.9745679E-01
         -2   -1    0    0    0  501 -0.00000000000E+00  0.00000000000E+00  0.28843722501E+03  0.28843722502E+03  0.25500000000E-02 0.  1.
          2   -1    0    0  501    0  0.00000000000E+00 -0.00000000000E+00 -0.19117570891E+04  0.19117570891E+04  0.25500000000E-02 0. -1.
    8880023    1    1    2    0    0 -0.41587952404E+03 -0.92001291203E+02 -0.36919295966E+03  0.86691041280E+03  0.65864270000E+03 0.  1.
    8880022    1    1    2    0    0  0.41587952404E+03  0.92001291203E+02 -0.12541269044E+04  0.13332839013E+04  0.15294330000E+03 0.  0.
<mgrwt>
<rscale>  0 0.68361008E+03</rscale>
<asrwt>0</asrwt>
<pdfrwt beam="1">  1        2 0.29411647E+00 0.78436613E+03</pdfrwt>
<pdfrwt beam="2">  1       -2 0.44374959E-01 0.78436613E+03</pdfrwt>
<totfact> 0.36947560E+01</totfact>
</mgrwt>
</event>
<event>
 4    1  0.7595604E-007  0.6950545E+03  0.7818608E-02  0.1001837E+00
          2   -1    0    0  501    0  0.00000000000E+00  0.00000000000E+00  0.80183540203E+03  0.80183540204E+03  0.25500000000E-02 0. -1.
         -2   -1    0    0    0  501 -0.00000000000E+00 -0.00000000000E+00 -0.90974363242E+03  0.90974363242E+03  0.25500000000E-02 0.  1.
    8880023    1    1    2    0    0  0.37856151715E+02 -0.21876357256E+03 -0.74554967573E+03  0.10192865712E+04  0.65864270000E+03 0.  1.
    8880022    1    1    2    0    0 -0.37856151715E+02  0.21876357256E+03  0.63764144535E+03  0.69229246330E+03  0.15294330000E+03 0.  0.
<mgrwt>
<rscale>  0 0.54852029E+03</rscale>
<asrwt>0</asrwt>
<pdfrwt beam="1">  1        2 0.12335929E+00 0.69505453E+03</pdfrwt>
<pdfrwt beam="2">  1       -2 0.13996056E+00 0.69505453E+03</pdfrwt>
<totfact> 0.12612267E+01</totfact>
</mgrwt>
</event>
<event>
 4    1  0.7595604E-007  0.8434887E+03  0.7818608E-02  0.9623637E-01
         -2   -1    0    0    0  501 -0.00000000000E+00  0.00000000000E+00  0.11177002899E+04  0.11177002899E+04  0.25500000000E-02 0.  1.
          2   -1    0    0  501    0  0.00000000000E+00 -0.00000000000E+00 -0.19032246483E+04  0.19032246483E+04  0.25500000000E-02 0. -1.
    8880023    1    1    2    0    0 -0.52521729629E+03  0.42541976591E+02 -0.17322472914E+04  0.19266950752E+04  0.65864270000E+03 0. -1.
    8880022    1    1    2    0    0  0.52521729629E+03 -0.42541976591E+02  0.94672293301E+03  0.10942298630E+04  0.15294330000E+03 0.  0.
<mgrwt>
<rscale>  0 0.75751308E+03</rscale>
<asrwt>0</asrwt>
<pdfrwt beam="1">  1        2 0.29280379E+00 0.84348873E+03</pdfrwt>
<pdfrwt beam="2">  1       -2 0.17195389E+00 0.84348873E+03</pdfrwt>
<totfact> 0.15930493E+00</totfact>
</mgrwt>
</event>
<event>
 4    1  0.7595604E-007  0.8254105E+03  0.7818608E-02  0.9658329E-01
          2   -1    0    0  501    0  0.00000000000E+00  0.00000000000E+00  0.11884396704E+04  0.11884396704E+04  0.25500000000E-02 0. -1.
         -2   -1    0    0    0  501 -0.00000000000E+00 -0.00000000000E+00 -0.71480417003E+03  0.71480417003E+03  0.25500000000E-02 0.  1.
    8880023    1    1    2    0    0 -0.30655790736E+03 -0.39180925050E+03 -0.37588319810E+03  0.90696781874E+03  0.65864270000E+03 0.  1.
    8880022    1    1    2    0    0  0.30655790736E+03  0.39180925050E+03  0.84951869848E+03  0.99627602171E+03  0.15294330000E+03 0.  0.
<mgrwt>
<rscale>  0 0.73552998E+03</rscale>
<asrwt>0</asrwt>
<pdfrwt beam="1">  1        2 0.18283687E+00 0.82541047E+03</pdfrwt>
<pdfrwt beam="2">  1       -2 0.10996987E+00 0.82541047E+03</pdfrwt>
<totfact> 0.12787459E+01</totfact>
</mgrwt>
</event>
<event>
 4    1  0.7595604E-007  0.8810130E+03  0.7818608E-02  0.9557226E-01
          2   -1    0    0  501    0  0.00000000000E+00  0.00000000000E+00  0.29316913642E+04  0.29316913642E+04  0.25500000000E-02 0. -1.
         -2   -1    0    0    0  501 -0.00000000000E+00 -0.00000000000E+00 -0.58367123396E+03  0.58367123397E+03  0.25500000000E-02 0.  1.
    8880023    1    1    2    0    0 -0.12622821503E+03 -0.57134946486E+03 -0.19422654814E+03  0.90216846073E+03  0.65864270000E+03 0.  0.
    8880022    1    1    2    0    0  0.12622821503E+03  0.57134946486E+03  0.25422466784E+04  0.26131941375E+04  0.15294330000E+03 0.  0.
<mgrwt>
<rscale>  0 0.80193115E+03</rscale>
<asrwt>0</asrwt>
<pdfrwt beam="1">  1        2 0.45102945E+00 0.88101304E+03</pdfrwt>
<pdfrwt beam="2">  1       -2 0.89795572E-01 0.88101304E+03</pdfrwt>
<totfact> 0.21192412E+00</totfact>
</mgrwt>
</event>
<event>
 4    1  0.7595604E-007  0.8611161E+03  0.7818608E-02  0.9591581E-01
          2   -1    0    0  501    0  0.00000000000E+00  0.00000000000E+00  0.11343453217E+04  0.11343453217E+04  0.25500000000E-02 0. -1.
         -2   -1    0    0    0  501 -0.00000000000E+00 -0.00000000000E+00 -0.45557677302E+03  0.45557677302E+03  0.25500000000E-02 0.  1.
    8880023    1    1    2    0    0 -0.39114623107E+03 -0.39333865924E+03  0.37468918146E+03  0.93910215840E+03  0.65864270000E+03 0.  0.
    8880022    1    1    2    0    0  0.39114623107E+03  0.39333865924E+03  0.30407936722E+03  0.65081993633E+03  0.15294330000E+03 0.  0.
<mgrwt>
<rscale>  0 0.77855903E+03</rscale>
<asrwt>0</asrwt>
<pdfrwt beam="1">  1        2 0.17451466E+00 0.86111607E+03</pdfrwt>
<pdfrwt beam="2">  1       -2 0.70088734E-01 0.86111607E+03</pdfrwt>
<totfact> 0.38751844E+01</totfact>
</mgrwt>
</event>
<event>
 4    1  0.7595604E-007  0.8568543E+03  0.7818608E-02  0.9599184E-01
          2   -1    0    0  501    0  0.00000000000E+00  0.00000000000E+00  0.96981961996E+03  0.96981961997E+03  0.25500000000E-02 0. -1.
         -2   -1    0    0    0  501 -0.00000000000E+00 -0.00000000000E+00 -0.60835633013E+03  0.60835633013E+03  0.25500000000E-02 0.  1.
    8880023    1    1    2    0    0  0.37269395095E+03 -0.40185604917E+03 -0.76307826160E+02  0.86024540447E+03  0.65864270000E+03 0.  0.
    8880022    1    1    2    0    0 -0.37269395095E+03  0.40185604917E+03  0.43777111600E+03  0.71793054562E+03  0.15294330000E+03 0.  0.
<mgrwt>
<rscale>  0 0.77350229E+03</rscale>
<asrwt>0</asrwt>
<pdfrwt beam="1">  1        2 0.14920302E+00 0.85685429E+03</pdfrwt>
<pdfrwt beam="2">  1       -2 0.93593282E-01 0.85685429E+03</pdfrwt>
<totfact> 0.25580598E+01</totfact>
</mgrwt>
</event>
<event>
 4    1  0.1239768E-006  0.1156014E+04  0.7818608E-02  0.9201113E-01
          2   -1    0    0  501    0  0.00000000000E+00  0.00000000000E+00  0.23225905751E+04  0.23225905751E+04  0.25500000000E-02 0. -1.
         -2   -1    0    0    0  501 -0.00000000000E+00 -0.00000000000E+00 -0.14677121749E+04  0.14677121749E+04  0.25500000000E-02 0.  1.
    8880023    1    1    2    0    0  0.94721840621E+03 -0.73038075130E+02 -0.11098786184E+04  0.16025598345E+04  0.65864270000E+03 0.  0.
    8880022    1    1    2    0    0 -0.94721840621E+03  0.73038075130E+02  0.19647570185E+04  0.21877429155E+04  0.15294330000E+03 0.  0.
<mgrwt>
<rscale>  0 0.11041945E+04</rscale>
<asrwt>0</asrwt>
<pdfrwt beam="1">  1        2 0.35732163E+00 0.11560136E+04</pdfrwt>
<pdfrwt beam="2">  1       -2 0.22580187E+00 0.11560136E+04</pdfrwt>
<totfact> 0.39210725E-01</totfact>
</mgrwt>
</event>
<event>
 4    1  0.7595604E-007  0.7091067E+03  0.7818608E-02  0.9961333E-01
         -2   -1    0    0    0  501 -0.00000000000E+00  0.00000000000E+00  0.71878572982E+03  0.71878572982E+03  0.25500000000E-02 0.  1.
          2   -1    0    0  501    0  0.00000000000E+00 -0.00000000000E+00 -0.90042768015E+03  0.90042768016E+03  0.25500000000E-02 0. -1.
    8880023    1    1    2    0    0 -0.20780795222E+03  0.16074180594E+03  0.50348483426E+03  0.86967192537E+03  0.65864270000E+03 0.  1.
    8880022    1    1    2    0    0  0.20780795222E+03 -0.16074180594E+03 -0.68512678459E+03  0.74954148461E+03  0.15294330000E+03 0.  0.
<mgrwt>
<rscale>  0 0.57378705E+03</rscale>
<asrwt>0</asrwt>
<pdfrwt beam="1">  1        2 0.13852734E+00 0.70910668E+03</pdfrwt>
<pdfrwt beam="2">  1       -2 0.11058242E+00 0.70910668E+03</pdfrwt>
<totfact> 0.19384615E+01</totfact>
</mgrwt>
</event>
<event>
 4    1  0.7595604E-007  0.9194528E+03  0.7818608E-02  0.9495499E-01
          2   -1    0    0  501    0  0.00000000000E+00  0.00000000000E+00  0.38589776217E+04  0.38589776217E+04  0.25500000000E-02 0. -1.
         -2   -1    0    0    0  501 -0.00000000000E+00 -0.00000000000E+00 -0.21802029804E+03  0.21802029805E+03  0.25500000000E-02 0.  1.
    8880023    1    1    2    0    0 -0.64153902372E+03  0.32956858640E+01  0.10152066710E+04  0.13696853550E+04  0.65864270000E+03 0.  0.
    8880022    1    1    2    0    0  0.64153902372E+03 -0.32956858640E+01  0.26257506526E+04  0.27073125647E+04  0.15294330000E+03 0.  0.
<mgrwt>
<rscale>  0 0.84616505E+03</rscale>
<asrwt>0</asrwt>
<pdfrwt beam="1">  1        2 0.59368882E+00 0.91945276E+03</pdfrwt>
<pdfrwt beam="2">  1       -2 0.33541587E-01 0.91945276E+03</pdfrwt>
<totfact> 0.39092613E+00</totfact>
</mgrwt>
</event>
<event>
 4    1  0.7595604E-007  0.7607069E+03  0.7818608E-02  0.9803281E-01
         -2   -1    0    0    0  501 -0.00000000000E+00  0.00000000000E+00  0.76603642173E+03  0.76603642173E+03  0.25500000000E-02 0.  1.
          2   -1    0    0  501    0  0.00000000000E+00 -0.00000000000E+00 -0.10412026975E+04  0.10412026975E+04  0.25500000000E-02 0. -1.
    8880023    1    1    2    0    0 -0.38046205680E+03 -0.10648956684E+02  0.51383059726E+03  0.91798522095E+03  0.65864270000E+03 0.  1.
    8880022    1    1    2    0    0  0.38046205680E+03  0.10648956684E+02 -0.78899687301E+03  0.88925389826E+03  0.15294330000E+03 0.  0.
<mgrwt>
<rscale>  0 0.65186772E+03</rscale>
<asrwt>0</asrwt>
<pdfrwt beam="1">  1        2 0.16018503E+00 0.76070690E+03</pdfrwt>
<pdfrwt beam="2">  1       -2 0.11785176E+00 0.76070690E+03</pdfrwt>
<totfact> 0.13379022E+01</totfact>
</mgrwt>
</event>
<event>
 4    1  0.7595604E-007  0.9679523E+03  0.7818608E-02  0.9424742E-01
          2   -1    0    0  501    0  0.00000000000E+00  0.00000000000E+00  0.22406600439E+04  0.22406600439E+04  0.25500000000E-02 0. -1.
         -2   -1    0    0    0  501 -0.00000000000E+00 -0.00000000000E+00 -0.40318246692E+03  0.40318246693E+03  0.25500000000E-02 0.  1.
    8880023    1    1    2    0    0 -0.24693901299E+03 -0.66493796895E+03  0.42759013242E+03  0.10581894473E+04  0.65864270000E+03 0.  1.
    8880022    1    1    2    0    0  0.24693901299E+03  0.66493796895E+03  0.14098874446E+04  0.15856530636E+04  0.15294330000E+03 0.  0.
<mgrwt>
<rscale>  0 0.90067186E+03</rscale>
<asrwt>0</asrwt>
<pdfrwt beam="1">  1        2 0.34471693E+00 0.96795226E+03</pdfrwt>
<pdfrwt beam="2">  1       -2 0.62028072E-01 0.96795226E+03</pdfrwt>
<totfact> 0.11949408E+01</totfact>
</mgrwt>
</event>
<event>
 4    1  0.8222656E-007  0.7258818E+03  0.7818608E-02  0.9903164E-01
          2   -1    0    0  501    0  0.00000000000E+00  0.00000000000E+00  0.17369321769E+04  0.17369321769E+04  0.25500000000E-02 0. -1.
         -2   -1    0    0    0  501 -0.00000000000E+00 -0.00000000000E+00 -0.55312041326E+03  0.55312041327E+03  0.25500000000E-02 0.  1.
    8880023    1    1    2    0    0  0.16242994391E+02  0.30468063383E+03 -0.28670277956E+03  0.78045039149E+03  0.65864270000E+03 0.  1.
    8880022    1    1    2    0    0 -0.16242994391E+02 -0.30468063383E+03  0.14705145432E+04  0.15096021987E+04  0.15294330000E+03 0.  0.
<mgrwt>
<rscale>  0 0.60108173E+03</rscale>
<asrwt>0</asrwt>
<pdfrwt beam="1">  1        2 0.26722033E+00 0.72588176E+03</pdfrwt>
<pdfrwt beam="2">  1       -2 0.85095450E-01 0.72588176E+03</pdfrwt>
<totfact> 0.11610082E+01</totfact>
</mgrwt>
</event>
<event>
 4    1  0.7595604E-007  0.1042137E+04  0.7818608E-02  0.9328394E-01
          2   -1    0    0  501    0  0.00000000000E+00  0.00000000000E+00  0.10895829764E+04  0.10895829764E+04  0.25500000000E-02 0. -1.
         -2   -1    0    0    0  501 -0.00000000000E+00 -0.00000000000E+00 -0.88501888736E+03  0.88501888736E+03  0.25500000000E-02 0.  1.
    8880023    1    1    2    0    0 -0.63417809204E+03  0.50005772564E+03  0.42203788183E+03  0.11243512624E+04  0.65864270000E+03 0. -1.
    8880022    1    1    2    0    0  0.63417809204E+03 -0.50005772564E+03 -0.21747379283E+03  0.85025060128E+03  0.15294330000E+03 0.  0.
<mgrwt>
<rscale>  0 0.98210374E+03</rscale>
<asrwt>0</asrwt>
<pdfrwt beam="1">  1        2 0.16762815E+00 0.10421371E+04</pdfrwt>
<pdfrwt beam="2">  1       -2 0.13615675E+00 0.10421371E+04</pdfrwt>
<totfact> 0.84313767E+00</totfact>
</mgrwt>
</event>
<event>
 4    1  0.7595604E-007  0.8999932E+03  0.7818608E-02  0.9526042E-01
          2   -1    0    0  501    0  0.00000000000E+00  0.00000000000E+00  0.19418690291E+04  0.19418690291E+04  0.25500000000E-02 0. -1.
         -2   -1    0    0    0  501 -0.00000000000E+00 -0.00000000000E+00 -0.40055130541E+03  0.40055130541E+03  0.25500000000E-02 0.  1.
    8880023    1    1    2    0    0 -0.27399435165E+03  0.54873007574E+03  0.29870208814E+03  0.94826723263E+03  0.65864270000E+03 0.  1.
    8880022    1    1    2    0    0  0.27399435165E+03 -0.54873007574E+03  0.12426156356E+04  0.13941531019E+04  0.15294330000E+03 0.  0.
<mgrwt>
<rscale>  0 0.82390747E+03</rscale>
<asrwt>0</asrwt>
<pdfrwt beam="1">  1        2 0.29874909E+00 0.89999323E+03</pdfrwt>
<pdfrwt beam="2">  1       -2 0.61623276E-01 0.89999323E+03</pdfrwt>
<totfact> 0.17855453E+01</totfact>
</mgrwt>
</event>
<event>
 4    1  0.7595604E-007  0.8711697E+03  0.7818608E-02  0.9573995E-01
         -2   -1    0    0    0  501 -0.00000000000E+00  0.00000000000E+00  0.12465603437E+04  0.12465603437E+04  0.25500000000E-02 0.  1.
          2   -1    0    0  501    0  0.00000000000E+00 -0.00000000000E+00 -0.47824932109E+03  0.47824932110E+03  0.25500000000E-02 0. -1.
    8880023    1    1    2    0    0 -0.56689415171E+03 -0.61298662121E+02  0.17645592541E+03  0.88886073437E+03  0.65864270000E+03 0.  0.
    8880022    1    1    2    0    0  0.56689415171E+03  0.61298662121E+02  0.59185509723E+03  0.83594893047E+03  0.15294330000E+03 0.  0.
<mgrwt>
<rscale>  0 0.79041516E+03</rscale>
<asrwt>0</asrwt>
<pdfrwt beam="1">  1        2 0.73576818E-01 0.87116974E+03</pdfrwt>
<pdfrwt beam="2">  1       -2 0.19177852E+00 0.87116974E+03</pdfrwt>
<totfact> 0.98374789E+00</totfact>
</mgrwt>
</event>
<event>
 4    1  0.7595604E-007  0.1088386E+04  0.7818608E-02  0.9274098E-01
         -2   -1    0    0    0  501 -0.00000000000E+00  0.00000000000E+00  0.38686308864E+03  0.38686308864E+03  0.25500000000E-02 0.  1.
          2   -1    0    0  501    0  0.00000000000E+00 -0.00000000000E+00 -0.27231550409E+04  0.27231550409E+04  0.25500000000E-02 0. -1.
    8880023    1    1    2    0    0 -0.85263799587E+03  0.15421823329E+03 -0.17212879301E+04  0.20365208470E+04  0.65864270000E+03 0.  0.
    8880022    1    1    2    0    0  0.85263799587E+03 -0.15421823329E+03 -0.61500402218E+03  0.10734972826E+04  0.15294330000E+03 0.  0.
<mgrwt>
<rscale>  0 0.10320284E+04</rscale>
<asrwt>0</asrwt>
<pdfrwt beam="1">  1        2 0.41894692E+00 0.10883864E+04</pdfrwt>
<pdfrwt beam="2">  1       -2 0.59517400E-01 0.10883864E+04</pdfrwt>
<totfact> 0.68110807E+00</totfact>
</mgrwt>
</event>
<event>
 4    1  0.7595604E-007  0.6855537E+03  0.7818608E-02  0.1006342E+00
          2   -1    0    0  501    0  0.00000000000E+00  0.00000000000E+00  0.14569363470E+04  0.14569363470E+04  0.25500000000E-02 0. -1.
         -2   -1    0    0    0  501 -0.00000000000E+00 -0.00000000000E+00 -0.38196512139E+03  0.38196512140E+03  0.25500000000E-02 0.  1.
    8880023    1    1    2    0    0 -0.13834227282E+03 -0.13051859820E+03 -0.50367358738E+02  0.68740145913E+03  0.65864270000E+03 0.  1.
    8880022    1    1    2    0    0  0.13834227282E+03  0.13051859820E+03  0.11253385843E+04  0.11515000092E+04  0.15294330000E+03 0.  0.
<mgrwt>
<rscale>  0 0.52954799E+03</rscale>
<asrwt>0</asrwt>
<pdfrwt beam="1">  1        2 0.22414405E+00 0.68555371E+03</pdfrwt>
<pdfrwt beam="2">  1       -2 0.58763864E-01 0.68555371E+03</pdfrwt>
<totfact> 0.37415544E+01</totfact>
</mgrwt>
</event>
<event>
 4    1  0.7595604E-007  0.8788428E+03  0.7818608E-02  0.9560887E-01
         -2   -1    0    0    0  501 -0.00000000000E+00  0.00000000000E+00  0.68796897086E+03  0.68796897086E+03  0.25500000000E-02 0.  1.
          2   -1    0    0  501    0  0.00000000000E+00 -0.00000000000E+00 -0.10121730075E+04  0.10121730075E+04  0.25500000000E-02 0. -1.
    8880023    1    1    2    0    0  0.49228487590E+03 -0.31017756497E+03  0.20099098707E+03  0.90153319628E+03  0.65864270000E+03 0.  0.
    8880022    1    1    2    0    0 -0.49228487590E+03  0.31017756497E+03 -0.52519502366E+03  0.79860878204E+03  0.15294330000E+03 0.  0.
<mgrwt>
<rscale>  0 0.79939957E+03</rscale>
<asrwt>0</asrwt>
<pdfrwt beam="1">  1        2 0.15571892E+00 0.87884283E+03</pdfrwt>
<pdfrwt beam="2">  1       -2 0.10584138E+00 0.87884283E+03</pdfrwt>
<totfact> 0.17909531E+01</totfact>
</mgrwt>
</event>
<event>
 4    1  0.7595604E-007  0.1305144E+04  0.7818608E-02  0.9061131E-01
         -2   -1    0    0    0  501 -0.00000000000E+00  0.00000000000E+00  0.54867444430E+03  0.54867444430E+03  0.25500000000E-02 0.  1.
          2   -1    0    0  501    0  0.00000000000E+00 -0.00000000000E+00 -0.31420266179E+04  0.31420266179E+04  0.25500000000E-02 0. -1.
    8880023    1    1    2    0    0  0.94536148512E+03 -0.61309216734E+03 -0.69709113250E+03  0.14796406984E+04  0.65864270000E+03 0.  1.
    8880022    1    1    2    0    0 -0.94536148512E+03  0.61309216734E+03 -0.18962610411E+04  0.22110603637E+04  0.15294330000E+03 0. -1.
<mgrwt>
<rscale>  0 0.12609354E+04</rscale>
<asrwt>0</asrwt>
<pdfrwt beam="1">  1        2 0.48338870E+00 0.13051439E+04</pdfrwt>
<pdfrwt beam="2">  1       -2 0.84411455E-01 0.13051439E+04</pdfrwt>
<totfact> 0.17004784E+00</totfact>
</mgrwt>
</event>
<event>
 4    1  0.7595604E-007  0.8369426E+03  0.7818608E-02  0.9635972E-01
         -2   -1    0    0    0  501 -0.00000000000E+00  0.00000000000E+00  0.50850607986E+03  0.50850607987E+03  0.25500000000E-02 0.  1.
          2   -1    0    0  501    0  0.00000000000E+00 -0.00000000000E+00 -0.18873569330E+04  0.18873569330E+04  0.25500000000E-02 0. -1.
    8880023    1    1    2    0    0 -0.14029804346E+03  0.49697000249E+03  0.80016621642E+02  0.84075893714E+03  0.65864270000E+03 0.  1.
    8880022    1    1    2    0    0  0.14029804346E+03 -0.49697000249E+03 -0.14588674748E+04  0.15551040757E+04  0.15294330000E+03 0.  0.
<mgrwt>
<rscale>  0 0.74960364E+03</rscale>
<asrwt>0</asrwt>
<pdfrwt beam="1">  1        2 0.29036260E+00 0.83694261E+03</pdfrwt>
<pdfrwt beam="2">  1       -2 0.78231706E-01 0.83694261E+03</pdfrwt>
<totfact> 0.11444457E+01</totfact>
</mgrwt>
</event>
<event>
 4    1  0.7595604E-007  0.7601359E+03  0.7818608E-02  0.9804756E-01
          2   -1    0    0  501    0  0.00000000000E+00  0.00000000000E+00  0.96604628297E+03  0.96604628298E+03  0.25500000000E-02 0. -1.
         -2   -1    0    0    0  501 -0.00000000000E+00 -0.00000000000E+00 -0.10669375781E+04  0.10669375781E+04  0.25500000000E-02 0.  1.
    8880023    1    1    2    0    0 -0.26432919610E+03  0.27226175784E+03 -0.87398913018E+03  0.11583020308E+04  0.65864270000E+03 0.  1.
    8880022    1    1    2    0    0  0.26432919610E+03 -0.27226175784E+03  0.77309783502E+03  0.87468183028E+03  0.15294330000E+03 0.  0.
<mgrwt>
<rscale>  0 0.65107945E+03</rscale>
<asrwt>0</asrwt>
<pdfrwt beam="1">  1        2 0.14862250E+00 0.76013591E+03</pdfrwt>
<pdfrwt beam="2">  1       -2 0.16414424E+00 0.76013591E+03</pdfrwt>
<totfact> 0.63347922E+00</totfact>
</mgrwt>
</event>
<event>
 4    1  0.7595604E-007  0.7170952E+03  0.7818608E-02  0.9932540E-01
          2   -1    0    0  501    0  0.00000000000E+00  0.00000000000E+00  0.28719905000E+03  0.28719905001E+03  0.25500000000E-02 0. -1.
         -2   -1    0    0    0  501 -0.00000000000E+00 -0.00000000000E+00 -0.16588850005E+04  0.16588850005E+04  0.25500000000E-02 0.  1.
    8880023    1    1    2    0    0  0.27782031193E+03 -0.56843263552E+02 -0.14472372902E+04  0.16151536344E+04  0.65864270000E+03 0.  0.
    8880022    1    1    2    0    0 -0.27782031193E+03  0.56843263552E+02  0.75551339730E+02  0.33093041607E+03  0.15294330000E+03 0.  0.
<mgrwt>
<rscale>  0 0.58709840E+03</rscale>
<asrwt>0</asrwt>
<pdfrwt beam="1">  1        2 0.44184470E-01 0.71709517E+03</pdfrwt>
<pdfrwt beam="2">  1       -2 0.25521307E+00 0.71709517E+03</pdfrwt>
<totfact> 0.71021364E+00</totfact>
</mgrwt>
</event>
<event>
 4    1  0.7595604E-007  0.7843897E+03  0.7818608E-02  0.9745625E-01
         -2   -1    0    0    0  501 -0.00000000000E+00  0.00000000000E+00  0.54551997518E+03  0.54551997519E+03  0.25500000000E-02 0.  1.
          2   -1    0    0  501    0  0.00000000000E+00 -0.00000000000E+00 -0.81641319839E+03  0.81641319840E+03  0.25500000000E-02 0. -1.
    8880023    1    1    2    0    0  0.38004509313E+03  0.19241293473E+03 -0.41439713081E+03  0.88712580762E+03  0.65864270000E+03 0.  0.
    8880022    1    1    2    0    0 -0.38004509313E+03 -0.19241293473E+03  0.14350390759E+03  0.47480736596E+03  0.15294330000E+03 0.  0.
<mgrwt>
<rscale>  0 0.68364093E+03</rscale>
<asrwt>0</asrwt>
<pdfrwt beam="1">  1        2 0.12560203E+00 0.78438971E+03</pdfrwt>
<pdfrwt beam="2">  1       -2 0.83926150E-01 0.78438971E+03</pdfrwt>
<totfact> 0.42040940E+01</totfact>
</mgrwt>
</event>
<event>
 4    1  0.7595604E-007  0.8858315E+03  0.7818608E-02  0.9549170E-01
         -2   -1    0    0    0  501 -0.00000000000E+00  0.00000000000E+00  0.63922067298E+03  0.63922067298E+03  0.25500000000E-02 0.  1.
          2   -1    0    0  501    0  0.00000000000E+00 -0.00000000000E+00 -0.16821263900E+04  0.16821263900E+04  0.25500000000E-02 0. -1.
    8880023    1    1    2    0    0 -0.33314193648E+03  0.48979969713E+03  0.22465150376E+03  0.91387406001E+03  0.65864270000E+03 0.  0.
    8880022    1    1    2    0    0  0.33314193648E+03 -0.48979969713E+03 -0.12675572208E+04  0.14074730030E+04  0.15294330000E+03 0.  0.
<mgrwt>
<rscale>  0 0.80753764E+03</rscale>
<asrwt>0</asrwt>
<pdfrwt beam="1">  1        2 0.25878867E+00 0.88583153E+03</pdfrwt>
<pdfrwt beam="2">  1       -2 0.98341643E-01 0.88583153E+03</pdfrwt>
<totfact> 0.87094007E+00</totfact>
</mgrwt>
</event>
<event>
 4    1  0.7595604E-007  0.6879912E+03  0.7818608E-02  0.1005122E+00
          2   -1    0    0  501    0  0.00000000000E+00  0.00000000000E+00  0.21190769700E+04  0.21190769700E+04  0.25500000000E-02 0. -1.
         -2   -1    0    0    0  501 -0.00000000000E+00 -0.00000000000E+00 -0.16816692163E+03  0.16816692165E+03  0.25500000000E-02 0.  1.
    8880023    1    1    2    0    0 -0.18488357375E+03  0.73073933927E+02  0.59884947389E+03  0.91211437567E+03  0.65864270000E+03 0.  1.
    8880022    1    1    2    0    0  0.18488357375E+03 -0.73073933927E+02  0.13520605744E+04  0.13751295159E+04  0.15294330000E+03 0.  0.
<mgrwt>
<rscale>  0 0.53460137E+03</rscale>
<asrwt>0</asrwt>
<pdfrwt beam="1">  1        2 0.32601184E+00 0.68799124E+03</pdfrwt>
<pdfrwt beam="2">  1       -2 0.25871834E-01 0.68799124E+03</pdfrwt>
<totfact> 0.80099343E+01</totfact>
</mgrwt>
</event>
<event>
 4    1  0.7595604E-007  0.1056333E+04  0.7818608E-02  0.9311306E-01
         -2   -1    0    0    0  501 -0.00000000000E+00  0.00000000000E+00  0.15044618356E+04  0.15044618356E+04  0.25500000000E-02 0.  1.
          2   -1    0    0  501    0  0.00000000000E+00 -0.00000000000E+00 -0.99379553853E+03  0.99379553853E+03  0.25500000000E-02 0. -1.
    8880023    1    1    2    0    0 -0.82584840664E+03  0.21519565620E+01  0.10585602008E+04  0.14954564944E+04  0.65864270000E+03 0. -1.
    8880022    1    1    2    0    0  0.82584840664E+03 -0.21519565620E+01 -0.54789390372E+03  0.10028008797E+04  0.15294330000E+03 0.  0.
<mgrwt>
<rscale>  0 0.99748621E+03</rscale>
<asrwt>0</asrwt>
<pdfrwt beam="1">  1        2 0.15289162E+00 0.10563335E+04</pdfrwt>
<pdfrwt beam="2">  1       -2 0.23145567E+00 0.10563335E+04</pdfrwt>
<totfact> 0.21032906E+00</totfact>
</mgrwt>
</event>
<event>
 4    1  0.7595604E-007  0.1007354E+04  0.7818608E-02  0.9371999E-01
          2   -1    0    0  501    0  0.00000000000E+00  0.00000000000E+00  0.12901787346E+04  0.12901787346E+04  0.25500000000E-02 0. -1.
         -2   -1    0    0    0  501 -0.00000000000E+00 -0.00000000000E+00 -0.89601546992E+03  0.89601546993E+03  0.25500000000E-02 0.  1.
    8880023    1    1    2    0    0 -0.21431771987E+03 -0.73145004567E+03 -0.39166175730E+03  0.10808146894E+04  0.65864270000E+03 0.  0.
    8880022    1    1    2    0    0  0.21431771987E+03  0.73145004567E+03  0.78582502196E+03  0.11053795152E+04  0.15294330000E+03 0.  0.
<mgrwt>
<rscale>  0 0.94416287E+03</rscale>
<asrwt>0</asrwt>
<pdfrwt beam="1">  1        2 0.19848904E+00 0.10073537E+04</pdfrwt>
<pdfrwt beam="2">  1       -2 0.13784853E+00 0.10073537E+04</pdfrwt>
<totfact> 0.62084080E+00</totfact>
</mgrwt>
</event>
<event>
 4    1  0.7595604E-007  0.9608055E+03  0.7818608E-02  0.9434735E-01
          2   -1    0    0  501    0  0.00000000000E+00  0.00000000000E+00  0.23574609939E+04  0.23574609939E+04  0.25500000000E-02 0. -1.
         -2   -1    0    0    0  501 -0.00000000000E+00 -0.00000000000E+00 -0.44684365909E+03  0.44684365910E+03  0.25500000000E-02 0.  1.
    8880023    1    1    2    0    0 -0.69864297350E+03 -0.35142535715E+02  0.18513320927E+04  0.20858038561E+04  0.65864270000E+03 0.  0.
    8880022    1    1    2    0    0  0.69864297350E+03  0.35142535715E+02  0.59285242096E+02  0.71850079693E+03  0.15294330000E+03 0.  0.
<mgrwt>
<rscale>  0 0.89271444E+03</rscale>
<asrwt>0</asrwt>
<pdfrwt beam="1">  1        2 0.36268632E+00 0.96080550E+03</pdfrwt>
<pdfrwt beam="2">  1       -2 0.68745176E-01 0.96080550E+03</pdfrwt>
<totfact> 0.82408442E+00</totfact>
</mgrwt>
</event>
<event>
 4    1  0.7595604E-007  0.6915240E+03  0.7818608E-02  0.1003437E+00
         -2   -1    0    0    0  501 -0.00000000000E+00  0.00000000000E+00  0.44551096367E+03  0.44551096368E+03  0.25500000000E-02 0.  1.
          2   -1    0    0  501    0  0.00000000000E+00 -0.00000000000E+00 -0.10215894218E+04  0.10215894218E+04  0.25500000000E-02 0. -1.
    8880023    1    1    2    0    0  0.21058769850E+03  0.69276451334E+01  0.13965326440E+03  0.70548452254E+03  0.65864270000E+03 0.  1.
    8880022    1    1    2    0    0 -0.21058769850E+03 -0.69276451334E+01 -0.71573172258E+03  0.76161586298E+03  0.15294330000E+03 0.  0.
<mgrwt>
<rscale>  0 0.54168721E+03</rscale>
<asrwt>0</asrwt>
<pdfrwt beam="1">  1        2 0.15716760E+00 0.69152395E+03</pdfrwt>
<pdfrwt beam="2">  1       -2 0.68540149E-01 0.69152395E+03</pdfrwt>
<totfact> 0.48498747E+01</totfact>
</mgrwt>
</event>
<event>
 4    1  0.7595604E-007  0.6915942E+03  0.7818608E-02  0.1003404E+00
          2   -1    0    0  501    0  0.00000000000E+00  0.00000000000E+00  0.34856706331E+04  0.34856706331E+04  0.25500000000E-02 0. -1.
         -2   -1    0    0    0  501 -0.00000000000E+00 -0.00000000000E+00 -0.11749394334E+03  0.11749394337E+03  0.25500000000E-02 0.  1.
    8880023    1    1    2    0    0 -0.82388700356E+02 -0.19417621188E+03  0.97237616064E+03  0.11932384101E+04  0.65864270000E+03 0.  1.
    8880022    1    1    2    0    0  0.82388700356E+02  0.19417621188E+03  0.23958005291E+04  0.24099261664E+04  0.15294330000E+03 0.  0.
<mgrwt>
<rscale>  0 0.54182543E+03</rscale>
<asrwt>0</asrwt>
<pdfrwt beam="1">  1        2 0.53625699E+00 0.69159418E+03</pdfrwt>
<pdfrwt beam="2">  1       -2 0.18075992E-01 0.69159418E+03</pdfrwt>
<totfact> 0.23026309E+01</totfact>
</mgrwt>
</event>
<event>
 4    1  0.7595604E-007  0.6780665E+03  0.7818608E-02  0.1010439E+00
          2   -1    0    0  501    0  0.00000000000E+00  0.00000000000E+00  0.80354550166E+03  0.80354550166E+03  0.25500000000E-02 0. -1.
         -2   -1    0    0    0  501 -0.00000000000E+00 -0.00000000000E+00 -0.27412723191E+03  0.27412723192E+03  0.25500000000E-02 0.  1.
    8880023    1    1    2    0    0  0.12993955472E+03 -0.95287139061E+02  0.25460318010E+03  0.72429062698E+03  0.65864270000E+03 0.  1.
    8880022    1    1    2    0    0 -0.12993955472E+03  0.95287139061E+02  0.27481508965E+03  0.35338210660E+03  0.15294330000E+03 0.  0.
<mgrwt>
<rscale>  0 0.51300457E+03</rscale>
<asrwt>0</asrwt>
<pdfrwt beam="1">  1        2 0.12362238E+00 0.67806647E+03</pdfrwt>
<pdfrwt beam="2">  1       -2 0.42173420E-01 0.67806647E+03</pdfrwt>
<totfact> 0.18504091E+02</totfact>
</mgrwt>
</event>
<event>
 4    1  0.7595604E-007  0.1110654E+04  0.7818608E-02  0.9249286E-01
          2   -1    0    0  501    0  0.00000000000E+00  0.00000000000E+00  0.12584901376E+04  0.12584901376E+04  0.25500000000E-02 0. -1.
         -2   -1    0    0    0  501 -0.00000000000E+00 -0.00000000000E+00 -0.10098074456E+04  0.10098074456E+04  0.25500000000E-02 0.  1.
    8880023    1    1    2    0    0 -0.75024840696E+03 -0.48669178611E+03 -0.36943025134E+03  0.11704830130E+04  0.65864270000E+03 0.  1.
    8880022    1    1    2    0    0  0.75024840696E+03  0.48669178611E+03  0.61811294341E+03  0.10978145702E+04  0.15294330000E+03 0.  0.
<mgrwt>
<rscale>  0 0.10558878E+04</rscale>
<asrwt>0</asrwt>
<pdfrwt beam="1">  1        2 0.19361387E+00 0.11106538E+04</pdfrwt>
<pdfrwt beam="2">  1       -2 0.15535499E+00 0.11106538E+04</pdfrwt>
<totfact> 0.46769206E+00</totfact>
</mgrwt>
</event>
<event>
 4    1  0.7595604E-007  0.1752607E+04  0.7818608E-02  0.8749216E-01
          2   -1    0    0  501    0  0.00000000000E+00  0.00000000000E+00  0.16265272477E+04  0.16265272477E+04  0.25500000000E-02 0. -1.
         -2   -1    0    0    0  501 -0.00000000000E+00 -0.00000000000E+00 -0.20778469646E+04  0.20778469646E+04  0.25500000000E-02 0.  1.
    8880023    1    1    2    0    0 -0.13695991928E+04 -0.87293686458E+03 -0.95649161292E+03  0.19966239331E+04  0.65864270000E+03 0.  0.
    8880022    1    1    2    0    0  0.13695991928E+04  0.87293686458E+03  0.50517189610E+03  0.17077502792E+04  0.15294330000E+03 0.  0.
<mgrwt>
<rscale>  0 0.17214655E+04</rscale>
<asrwt>0</asrwt>
<pdfrwt beam="1">  1        2 0.25023496E+00 0.17526069E+04</pdfrwt>
<pdfrwt beam="2">  1       -2 0.31966876E+00 0.17526069E+04</pdfrwt>
<totfact> 0.23740565E-01</totfact>
</mgrwt>
</event>
<event>
 4    1  0.7595604E-007  0.1067275E+04  0.7818608E-02  0.9298397E-01
          2   -1    0    0  501    0  0.00000000000E+00  0.00000000000E+00  0.19309747667E+04  0.19309747667E+04  0.25500000000E-02 0. -1.
         -2   -1    0    0    0  501 -0.00000000000E+00 -0.00000000000E+00 -0.15835603584E+04  0.15835603584E+04  0.25500000000E-02 0.  1.
    8880023    1    1    2    0    0 -0.39848606700E+03  0.73923929110E+03 -0.12862007605E+04  0.16713433153E+04  0.65864270000E+03 0.  1.
    8880022    1    1    2    0    0  0.39848606700E+03 -0.73923929110E+03  0.16336151687E+04  0.18431918098E+04  0.15294330000E+03 0.  0.
<mgrwt>
<rscale>  0 0.10093057E+04</rscale>
<asrwt>0</asrwt>
<pdfrwt beam="1">  1        2 0.29707304E+00 0.10672751E+04</pdfrwt>
<pdfrwt beam="2">  1       -2 0.24362467E+00 0.10672751E+04</pdfrwt>
<totfact> 0.50880123E-01</totfact>
</mgrwt>
</event>
<event>
 4    1  0.7595604E-007  0.7783250E+03  0.7818608E-02  0.9759786E-01
         -2   -1    0    0    0  501 -0.00000000000E+00  0.00000000000E+00  0.36307248576E+03  0.36307248577E+03  0.25500000000E-02 0.  1.
          2   -1    0    0  501    0  0.00000000000E+00 -0.00000000000E+00 -0.18679070939E+04  0.18679070939E+04  0.25500000000E-02 0. -1.
    8880023    1    1    2    0    0 -0.40932501850E+03 -0.66577543795E+02 -0.13288736224E+03  0.78958773890E+03  0.65864270000E+03 0.  1.
    8880022    1    1    2    0    0  0.40932501850E+03  0.66577543795E+02 -0.13719472459E+04  0.14413918408E+04  0.15294330000E+03 0.  0.
<mgrwt>
<rscale>  0 0.67566012E+03</rscale>
<asrwt>0</asrwt>
<pdfrwt beam="1">  1        2 0.28737032E+00 0.77832496E+03</pdfrwt>
<pdfrwt beam="2">  1       -2 0.55857306E-01 0.77832496E+03</pdfrwt>
<totfact> 0.24456692E+01</totfact>
</mgrwt>
</event>
<event>
 4    1  0.7595604E-007  0.6712659E+03  0.7818608E-02  0.1014771E+00
          2   -1    0    0  501    0  0.00000000000E+00  0.00000000000E+00  0.58210252290E+03  0.58210252291E+03  0.25500000000E-02 0. -1.
         -2   -1    0    0    0  501 -0.00000000000E+00 -0.00000000000E+00 -0.71795217724E+03  0.71795217725E+03  0.25500000000E-02 0.  1.
    8880023    1    1    2    0    0 -0.32429372252E+02 -0.12544323942E+03 -0.53171035954E+03  0.85633742369E+03  0.65864270000E+03 0.  1.
    8880022    1    1    2    0    0  0.32429372252E+02  0.12544323942E+03  0.39586070520E+03  0.44371727647E+03  0.15294330000E+03 0.  0.
<mgrwt>
<rscale>  0 0.49621656E+03</rscale>
<asrwt>0</asrwt>
<pdfrwt beam="1">  1        2 0.89554234E-01 0.67126588E+03</pdfrwt>
<pdfrwt beam="2">  1       -2 0.11045418E+00 0.67126588E+03</pdfrwt>
<totfact> 0.34104360E+01</totfact>
</mgrwt>
</event>
<event>
 4    1  0.7595604E-007  0.9781684E+03  0.7818608E-02  0.9410694E-01
         -2   -1    0    0    0  501 -0.00000000000E+00  0.00000000000E+00  0.41782289015E+03  0.41782289015E+03  0.25500000000E-02 0.  1.
          2   -1    0    0  501    0  0.00000000000E+00 -0.00000000000E+00 -0.25533302945E+04  0.25533302945E+04  0.25500000000E-02 0. -1.
    8880023    1    1    2    0    0  0.25948877847E+03 -0.67503248944E+03 -0.35036584395E+03  0.10390234448E+04  0.65864270000E+03 0.  1.
    8880022    1    1    2    0    0 -0.25948877847E+03  0.67503248944E+03 -0.17851415604E+04  0.19321297399E+04  0.15294330000E+03 0.  0.
<mgrwt>
<rscale>  0 0.91200783E+03</rscale>
<asrwt>0</asrwt>
<pdfrwt beam="1">  1        2 0.39282003E+00 0.97816844E+03</pdfrwt>
<pdfrwt beam="2">  1       -2 0.64280447E-01 0.97816844E+03</pdfrwt>
<totfact> 0.73586181E+00</totfact>
</mgrwt>
</event>
<event>
 4    1  0.7595604E-007  0.6625732E+03  0.7818608E-02  0.1021662E+00
         -2   -1    0    0    0  501 -0.00000000000E+00  0.00000000000E+00  0.12169765862E+04  0.12169765862E+04  0.25500000000E-02 0.  1.
          2   -1    0    0  501    0  0.00000000000E+00 -0.00000000000E+00 -0.16385409161E+03  0.16385409163E+03  0.25500000000E-02 0. -1.
    8880023    1    1    2    0    0 -0.69062050752E+02 -0.20577757211E+02  0.10072727463E+04  0.12056540145E+04  0.65864270000E+03 0.  1.
    8880022    1    1    2    0    0  0.69062050752E+02  0.20577757211E+02  0.45849748290E+02  0.17517666334E+03  0.15294330000E+03 0.  0.
<mgrwt>
<rscale>  0 0.47091446E+03</rscale>
<asrwt>0</asrwt>
<pdfrwt beam="1">  1        2 0.25208321E-01 0.66257318E+03</pdfrwt>
<pdfrwt beam="2">  1       -2 0.18722717E+00 0.66257318E+03</pdfrwt>
<totfact> 0.35849579E+01</totfact>
</mgrwt>
</event>
<event>
 4    1  0.7595604E-007  0.7136524E+03  0.7818608E-02  0.9944680E-01
          2   -1    0    0  501    0  0.00000000000E+00  0.00000000000E+00  0.24091021096E+03  0.24091021097E+03  0.25500000000E-02 0. -1.
         -2   -1    0    0    0  501 -0.00000000000E+00 -0.00000000000E+00 -0.12741556551E+04  0.12741556551E+04  0.25500000000E-02 0.  1.
    8880023    1    1    2    0    0  0.28744014546E+02  0.27324588556E+03 -0.95289671140E+03  0.11905090849E+04  0.65864270000E+03 0.  0.
    8880022    1    1    2    0    0 -0.28744014546E+02 -0.27324588556E+03 -0.80348732740E+02  0.32455678119E+03  0.15294330000E+03 0.  0.
<mgrwt>
<rscale>  0 0.58143913E+03</rscale>
<asrwt>0</asrwt>
<pdfrwt beam="1">  1        2 0.37063110E-01 0.71365239E+03</pdfrwt>
<pdfrwt beam="2">  1       -2 0.19602394E+00 0.71365239E+03</pdfrwt>
<totfact> 0.20199383E+01</totfact>
</mgrwt>
</event>
<event>
 4    1  0.7595604E-007  0.7664249E+03  0.7818608E-02  0.9788749E-01
          2   -1    0    0  501    0  0.00000000000E+00  0.00000000000E+00  0.15878845219E+04  0.15878845219E+04  0.25500000000E-02 0. -1.
         -2   -1    0    0    0  501 -0.00000000000E+00 -0.00000000000E+00 -0.40305032858E+03  0.40305032859E+03  0.25500000000E-02 0.  1.
    8880023    1    1    2    0    0  0.36210397522E+03  0.14992536888E+03  0.35749332368E+02  0.76725818740E+03  0.65864270000E+03 0.  0.
    8880022    1    1    2    0    0 -0.36210397522E+03 -0.14992536888E+03  0.11490848609E+04  0.12236766631E+04  0.15294330000E+03 0.  0.
<mgrwt>
<rscale>  0 0.65969828E+03</rscale>
<asrwt>0</asrwt>
<pdfrwt beam="1">  1        2 0.24428992E+00 0.76642489E+03</pdfrwt>
<pdfrwt beam="2">  1       -2 0.62007743E-01 0.76642489E+03</pdfrwt>
<totfact> 0.27984765E+01</totfact>
</mgrwt>
</event>
<event>
 4    1  0.7595604E-007  0.7836260E+03  0.7818608E-02  0.9747387E-01
          2   -1    0    0  501    0  0.00000000000E+00  0.00000000000E+00  0.19698773231E+04  0.19698773231E+04  0.25500000000E-02 0. -1.
         -2   -1    0    0    0  501 -0.00000000000E+00 -0.00000000000E+00 -0.24800730631E+03  0.24800730632E+03  0.25500000000E-02 0.  1.
    8880023    1    1    2    0    0  0.29575506833E+03  0.30461188918E+03  0.53695171156E+03  0.94994042460E+03  0.65864270000E+03 0.  1.
    8880022    1    1    2    0    0 -0.29575506833E+03 -0.30461188918E+03  0.11849183052E+04  0.12679442048E+04  0.15294330000E+03 0. -1.
<mgrwt>
<rscale>  0 0.68264115E+03</rscale>
<asrwt>0</asrwt>
<pdfrwt beam="1">  1        2 0.30305805E+00 0.78362598E+03</pdfrwt>
<pdfrwt beam="2">  1       -2 0.38154971E-01 0.78362598E+03</pdfrwt>
<totfact> 0.46192962E+01</totfact>
</mgrwt>
</event>
<event>
 4    1  0.7595604E-007  0.7346378E+03  0.7818608E-02  0.9875851E-01
         -2   -1    0    0    0  501 -0.00000000000E+00  0.00000000000E+00  0.63998959814E+03  0.63998959814E+03  0.25500000000E-02 0.  1.
          2   -1    0    0  501    0  0.00000000000E+00 -0.00000000000E+00 -0.10917696158E+04  0.10917696158E+04  0.25500000000E-02 0. -1.
    8880023    1    1    2    0    0 -0.30703745885E+03 -0.10775198671E+03  0.37890816288E+03  0.82659790342E+03  0.65864270000E+03 0.  1.
    8880022    1    1    2    0    0  0.30703745885E+03  0.10775198671E+03 -0.83068818055E+03  0.90516131054E+03  0.15294330000E+03 0.  0.
<mgrwt>
<rscale>  0 0.61446042E+03</rscale>
<asrwt>0</asrwt>
<pdfrwt beam="1">  1        2 0.16796456E+00 0.73463780E+03</pdfrwt>
<pdfrwt beam="2">  1       -2 0.98459938E-01 0.73463780E+03</pdfrwt>
<totfact> 0.19254550E+01</totfact>
</mgrwt>
</event>
<event>
 4    1  0.7595604E-007  0.7658670E+03  0.7818608E-02  0.9790149E-01
          2   -1    0    0  501    0  0.00000000000E+00  0.00000000000E+00  0.37203626975E+04  0.37203626976E+04  0.25500000000E-02 0. -1.
         -2   -1    0    0    0  501 -0.00000000000E+00 -0.00000000000E+00 -0.43483768185E+03  0.43483768186E+03  0.25500000000E-02 0.  1.
    8880023    1    1    2    0    0 -0.12767329327E+03  0.36938001779E+03 -0.74118535077E+02  0.76944514480E+03  0.65864270000E+03 0.  1.
    8880022    1    1    2    0    0  0.12767329327E+03 -0.36938001779E+03  0.33596435508E+04  0.33857552346E+04  0.15294330000E+03 0.  0.
<mgrwt>
<rscale>  0 0.65893919E+03</rscale>
<asrwt>0</asrwt>
<pdfrwt beam="1">  1        2 0.57236349E+00 0.76586701E+03</pdfrwt>
<pdfrwt beam="2">  1       -2 0.66898105E-01 0.76586701E+03</pdfrwt>
<totfact> 0.12655047E+00</totfact>
</mgrwt>
</event>
<event>
 4    1  0.7595604E-007  0.6712245E+03  0.7818608E-02  0.1014800E+00
          2   -1    0    0  501    0  0.00000000000E+00  0.00000000000E+00  0.19944017119E+04  0.19944017119E+04  0.25500000000E-02 0. -1.
         -2   -1    0    0    0  501 -0.00000000000E+00 -0.00000000000E+00 -0.34152210395E+03  0.34152210396E+03  0.25500000000E-02 0.  1.
    8880023    1    1    2    0    0  0.70885117045E+02  0.10820100245E+03  0.27568365186E+00  0.67122458165E+03  0.65864270000E+03 0.  1.
    8880022    1    1    2    0    0 -0.70885117045E+02 -0.10820100245E+03  0.16526039243E+04  0.16646992342E+04  0.15294330000E+03 0.  0.
<mgrwt>
<rscale>  0 0.49610789E+03</rscale>
<asrwt>0</asrwt>
<pdfrwt beam="1">  1        2 0.30683104E+00 0.67122453E+03</pdfrwt>
<pdfrwt beam="2">  1       -2 0.52541861E-01 0.67122453E+03</pdfrwt>
<totfact> 0.24036494E+01</totfact>
</mgrwt>
</event>
<event>
 4    1  0.7595604E-007  0.1068931E+04  0.7818608E-02  0.9296463E-01
         -2   -1    0    0    0  501 -0.00000000000E+00  0.00000000000E+00  0.78767262560E+03  0.78767262560E+03  0.25500000000E-02 0.  1.
          2   -1    0    0  501    0  0.00000000000E+00 -0.00000000000E+00 -0.22783086006E+04  0.22783086006E+04  0.25500000000E-02 0. -1.
    8880023    1    1    2    0    0  0.22183381407E+03  0.81215305056E+03  0.27516250316E+03  0.11037787043E+04  0.65864270000E+03 0.  0.
    8880022    1    1    2    0    0 -0.22183381407E+03 -0.81215305056E+03 -0.17657984781E+04  0.19622025219E+04  0.15294330000E+03 0.  0.
<mgrwt>
<rscale>  0 0.10110916E+04</rscale>
<asrwt>0</asrwt>
<pdfrwt beam="1">  1        2 0.35050901E+00 0.10689308E+04</pdfrwt>
<pdfrwt beam="2">  1       -2 0.12118040E+00 0.10689308E+04</pdfrwt>
<totfact> 0.24021110E+00</totfact>
</mgrwt>
</event>
<event>
 4    1  0.7595604E-007  0.8178532E+03  0.7818608E-02  0.9673445E-01
         -2   -1    0    0    0  501 -0.00000000000E+00  0.00000000000E+00  0.28380565762E+03  0.28380565763E+03  0.25500000000E-02 0.  1.
          2   -1    0    0  501    0  0.00000000000E+00 -0.00000000000E+00 -0.24742542453E+04  0.24742542453E+04  0.25500000000E-02 0. -1.
    8880023    1    1    2    0    0  0.37156060334E+02  0.48341814797E+03 -0.42664304905E+03  0.92244684192E+03  0.65864270000E+03 0.  0.
    8880022    1    1    2    0    0 -0.37156060334E+02 -0.48341814797E+03 -0.17638055386E+04  0.18356130610E+04  0.15294330000E+03 0.  0.
<mgrwt>
<rscale>  0 0.72620095E+03</rscale>
<asrwt>0</asrwt>
<pdfrwt beam="1">  1        2 0.38065448E+00 0.81785322E+03</pdfrwt>
<pdfrwt beam="2">  1       -2 0.43662411E-01 0.81785322E+03</pdfrwt>
<totfact> 0.18549774E+01</totfact>
</mgrwt>
</event>
<event>
 4    1  0.7595604E-007  0.7890212E+03  0.7818608E-02  0.9735057E-01
         -2   -1    0    0    0  501 -0.00000000000E+00  0.00000000000E+00  0.97405342196E+03  0.97405342196E+03  0.25500000000E-02 0.  1.
          2   -1    0    0  501    0  0.00000000000E+00 -0.00000000000E+00 -0.14001824152E+04  0.14001824152E+04  0.25500000000E-02 0. -1.
    8880023    1    1    2    0    0 -0.17574161378E+03 -0.39731486584E+03  0.76387578479E+03  0.10982079212E+04  0.65864270000E+03 0.  1.
    8880022    1    1    2    0    0  0.17574161378E+03  0.39731486584E+03 -0.11900047781E+04  0.12760279160E+04  0.15294330000E+03 0.  0.
<mgrwt>
<rscale>  0 0.68967306E+03</rscale>
<asrwt>0</asrwt>
<pdfrwt beam="1">  1        2 0.21541268E+00 0.78902118E+03</pdfrwt>
<pdfrwt beam="2">  1       -2 0.14985437E+00 0.78902118E+03</pdfrwt>
<totfact> 0.44277929E+00</totfact>
</mgrwt>
</event>
<event>
 4    1  0.8714054E-007  0.6673928E+03  0.7818608E-02  0.1017605E+00
          2   -1    0    0  501    0  0.00000000000E+00  0.00000000000E+00  0.13837655739E+04  0.13837655739E+04  0.25500000000E-02 0. -1.
         -2   -1    0    0    0  501 -0.00000000000E+00 -0.00000000000E+00 -0.49853672708E+03  0.49853672709E+03  0.25500000000E-02 0.  1.
    8880023    1    1    2    0    0 -0.85724908009E+02 -0.65223924163E+02 -0.26417470681E+03  0.71777531451E+03  0.65864270000E+03 0.  1.
    8880022    1    1    2    0    0  0.85724908009E+02  0.65223924163E+02  0.11494035537E+04  0.11645269865E+04  0.15294330000E+03 0.  0.
<mgrwt>
<rscale>  0 0.48560843E+03</rscale>
<asrwt>0</asrwt>
<pdfrwt beam="1">  1        2 0.21288701E+00 0.66739278E+03</pdfrwt>
<pdfrwt beam="2">  1       -2 0.76697960E-01 0.66739278E+03</pdfrwt>
<totfact> 0.23184407E+01</totfact>
</mgrwt>
</event>
<event>
 4    1  0.7595604E-007  0.1280033E+04  0.7818608E-02  0.9082997E-01
          2   -1    0    0  501    0  0.00000000000E+00  0.00000000000E+00  0.12877885832E+04  0.12877885832E+04  0.25500000000E-02 0. -1.
         -2   -1    0    0    0  501 -0.00000000000E+00 -0.00000000000E+00 -0.17192251545E+04  0.17192251545E+04  0.25500000000E-02 0.  1.
    8880023    1    1    2    0    0 -0.94504032069E+03 -0.55818679123E+03 -0.11212534716E+04  0.17016736631E+04  0.65864270000E+03 0.  0.
    8880022    1    1    2    0    0  0.94504032069E+03  0.55818679123E+03  0.68981690035E+03  0.13053400747E+04  0.15294330000E+03 0.  0.
<mgrwt>
<rscale>  0 0.12347201E+04</rscale>
<asrwt>0</asrwt>
<pdfrwt beam="1">  1        2 0.19812132E+00 0.12800328E+04</pdfrwt>
<pdfrwt beam="2">  1       -2 0.26449618E+00 0.12800328E+04</pdfrwt>
<totfact> 0.84862907E-01</totfact>
</mgrwt>
</event>
<event>
 4    1  0.7595604E-007  0.8605780E+03  0.7818608E-02  0.9592536E-01
         -2   -1    0    0    0  501 -0.00000000000E+00  0.00000000000E+00  0.10571529191E+04  0.10571529191E+04  0.25500000000E-02 0.  1.
          2   -1    0    0  501    0  0.00000000000E+00 -0.00000000000E+00 -0.13580281796E+04  0.13580281796E+04  0.25500000000E-02 0. -1.
    8880023    1    1    2    0    0 -0.32951255670E+03 -0.44520314483E+03  0.79896614397E+03  0.11742833860E+04  0.65864270000E+03 0.  0.
    8880022    1    1    2    0    0  0.32951255670E+03  0.44520314483E+03 -0.10998414045E+04  0.12408977127E+04  0.15294330000E+03 0. -1.
<mgrwt>
<rscale>  0 0.77792170E+03</rscale>
<asrwt>0</asrwt>
<pdfrwt beam="1">  1        2 0.20892741E+00 0.86057804E+03</pdfrwt>
<pdfrwt beam="2">  1       -2 0.16263891E+00 0.86057804E+03</pdfrwt>
<totfact> 0.37176023E+00</totfact>
</mgrwt>
</event>
<event>
 4    1  0.7595604E-007  0.8163595E+03  0.7818608E-02  0.9676479E-01
          2   -1    0    0  501    0  0.00000000000E+00  0.00000000000E+00  0.28636209960E+04  0.28636209960E+04  0.25500000000E-02 0. -1.
         -2   -1    0    0    0  501 -0.00000000000E+00 -0.00000000000E+00 -0.82932384668E+03  0.82932384668E+03  0.25500000000E-02 0.  1.
    8880023    1    1    2    0    0 -0.44624225531E+03  0.18303130279E+03 -0.59832134085E+03  0.10121419077E+04  0.65864270000E+03 0.  0.
    8880022    1    1    2    0    0  0.44624225531E+03 -0.18303130279E+03  0.26326184902E+04  0.26808029350E+04  0.15294330000E+03 0.  0.
<mgrwt>
<rscale>  0 0.72434626E+03</rscale>
<asrwt>0</asrwt>
<pdfrwt beam="1">  1        2 0.44055708E+00 0.81635949E+03</pdfrwt>
<pdfrwt beam="2">  1       -2 0.12758828E+00 0.81635949E+03</pdfrwt>
<totfact> 0.10100554E+00</totfact>
</mgrwt>
</event>
<event>
 4    1  0.7595604E-007  0.6825549E+03  0.7818608E-02  0.1007914E+00
          2   -1    0    0  501    0  0.00000000000E+00  0.00000000000E+00  0.11417974636E+04  0.11417974636E+04  0.25500000000E-02 0. -1.
         -2   -1    0    0    0  501 -0.00000000000E+00 -0.00000000000E+00 -0.22978117211E+03  0.22978117213E+03  0.25500000000E-02 0.  1.
    8880023    1    1    2    0    0 -0.65643611745E+02  0.16661904621E+03  0.36055083001E+03  0.77193140732E+03  0.65864270000E+03 0.  1.
    8880022    1    1    2    0    0  0.65643611745E+02 -0.16661904621E+03  0.55146546149E+03  0.59964722843E+03  0.15294330000E+03 0.  0.
<mgrwt>
<rscale>  0 0.52312234E+03</rscale>
<asrwt>0</asrwt>
<pdfrwt beam="1">  1        2 0.17566115E+00 0.68255490E+03</pdfrwt>
<pdfrwt beam="2">  1       -2 0.35350948E-01 0.68255490E+03</pdfrwt>
<totfact> 0.15700392E+02</totfact>
</mgrwt>
</event>
<event>
 4    1  0.7595604E-007  0.6934287E+03  0.7818608E-02  0.1002564E+00
          2   -1    0    0  501    0  0.00000000000E+00  0.00000000000E+00  0.73241184609E+03  0.73241184609E+03  0.25500000000E-02 0. -1.
         -2   -1    0    0    0  501 -0.00000000000E+00 -0.00000000000E+00 -0.57730381667E+03  0.57730381668E+03  0.25500000000E-02 0.  1.
    8880023    1    1    2    0    0  0.20578127506E+03 -0.68463290573E+02 -0.32140207690E+03  0.76429225864E+03  0.65864270000E+03 0.  1.
    8880022    1    1    2    0    0 -0.20578127506E+03  0.68463290573E+02  0.47651010633E+03  0.54542340413E+03  0.15294330000E+03 0.  0.
<mgrwt>
<rscale>  0 0.54540243E+03</rscale>
<asrwt>0</asrwt>
<pdfrwt beam="1">  1        2 0.11267875E+00 0.69342870E+03</pdfrwt>
<pdfrwt beam="2">  1       -2 0.88815972E-01 0.69342870E+03</pdfrwt>
<totfact> 0.42894151E+01</totfact>
</mgrwt>
</event>
<event>
 4    1  0.7595604E-007  0.6891893E+03  0.7818608E-02  0.1004540E+00
         -2   -1    0    0    0  501 -0.00000000000E+00  0.00000000000E+00  0.57222573246E+03  0.57222573247E+03  0.25500000000E-02 0.  1.
          2   -1    0    0  501    0  0.00000000000E+00 -0.00000000000E+00 -0.44816914642E+03  0.44816914643E+03  0.25500000000E-02 0. -1.
    8880023    1    1    2    0    0  0.19786562546E+03 -0.44954699924E+02  0.25462005260E+03  0.73471988420E+03  0.65864270000E+03 0.  1.
    8880022    1    1    2    0    0 -0.19786562546E+03  0.44954699924E+02 -0.13056346656E+03  0.28567499470E+03  0.15294330000E+03 0.  0.
<mgrwt>
<rscale>  0 0.53703451E+03</rscale>
<asrwt>0</asrwt>
<pdfrwt beam="1">  1        2 0.68949099E-01 0.68918933E+03</pdfrwt>
<pdfrwt beam="2">  1       -2 0.88034729E-01 0.68918933E+03</pdfrwt>
<totfact> 0.78829892E+01</totfact>
</mgrwt>
</event>
<event>
 4    1  0.7595604E-007  0.7168590E+03  0.7818608E-02  0.9933361E-01
         -2   -1    0    0    0  501 -0.00000000000E+00  0.00000000000E+00  0.13701070378E+04  0.13701070378E+04  0.25500000000E-02 0.  1.
          2   -1    0    0  501    0  0.00000000000E+00 -0.00000000000E+00 -0.73597463682E+03  0.73597463682E+03  0.25500000000E-02 0. -1.
    8880023    1    1    2    0    0  0.18488195564E+03  0.21423190985E+03  0.12330281049E+04  0.14262696668E+04  0.65864270000E+03 0.  0.
    8880022    1    1    2    0    0 -0.18488195564E+03 -0.21423190985E+03 -0.59889570394E+03  0.67981200779E+03  0.15294330000E+03 0.  0.
<mgrwt>
<rscale>  0 0.58671370E+03</rscale>
<asrwt>0</asrwt>
<pdfrwt beam="1">  1        2 0.11322687E+00 0.71685902E+03</pdfrwt>
<pdfrwt beam="2">  1       -2 0.21078570E+00 0.71685902E+03</pdfrwt>
<totfact> 0.44700804E+00</totfact>
</mgrwt>
</event>
<event>
 4    1  0.7595604E-007  0.1284149E+04  0.7818608E-02  0.9079370E-01
         -2   -1    0    0    0  501 -0.00000000000E+00  0.00000000000E+00  0.10436896199E+04  0.10436896199E+04  0.25500000000E-02 0.  1.
          2   -1    0    0  501    0  0.00000000000E+00 -0.00000000000E+00 -0.24351985186E+04  0.24351985186E+04  0.25500000000E-02 0. -1.
    8880023    1    1    2    0    0 -0.57232202652E+03 -0.94216606862E+03  0.42148434805E+03  0.13515504670E+04  0.65864270000E+03 0.  0.
    8880022    1    1    2    0    0  0.57232202652E+03  0.94216606862E+03 -0.18129932468E+04  0.21273376716E+04  0.15294330000E+03 0.  0.
<mgrwt>
<rscale>  0 0.12390218E+04</rscale>
<asrwt>0</asrwt>
<pdfrwt beam="1">  1        2 0.37464592E+00 0.12841494E+04</pdfrwt>
<pdfrwt beam="2">  1       -2 0.16056764E+00 0.12841494E+04</pdfrwt>
<totfact> 0.91451251E-01</totfact>
</mgrwt>
</event>
<event>
 4    1  0.7595604E-007  0.6622213E+03  0.7818608E-02  0.1021988E+00
          2   -1    0    0  501    0  0.00000000000E+00  0.00000000000E+00  0.11210942169E+04  0.11210942169E+04  0.25500000000E-02 0. -1.
         -2   -1    0    0    0  501 -0.00000000000E+00 -0.00000000000E+00 -0.17364279144E+03  0.17364279146E+03  0.25500000000E-02 0.  1.
    8880023    1    1    2    0    0  0.88980158850E+01 -0.68174102532E+02  0.54120257231E+03  0.85524108500E+03  0.65864270000E+03 0.  1.
    8880022    1    1    2    0    0 -0.88980158850E+01  0.68174102532E+02  0.40624885314E+03  0.43949592334E+03  0.15294330000E+03 0.  0.
<mgrwt>
<rscale>  0 0.46976046E+03</rscale>
<asrwt>0</asrwt>
<pdfrwt beam="1">  1        2 0.17247604E+00 0.66222133E+03</pdfrwt>
<pdfrwt beam="2">  1       -2 0.26714275E-01 0.66222133E+03</pdfrwt>
<totfact> 0.27250434E+02</totfact>
</mgrwt>
</event>
<event>
 4    1  0.7595604E-007  0.7575182E+03  0.7818608E-02  0.9811575E-01
          2   -1    0    0  501    0  0.00000000000E+00  0.00000000000E+00  0.20386065943E+04  0.20386065943E+04  0.25500000000E-02 0. -1.
         -2   -1    0    0    0  501 -0.00000000000E+00 -0.00000000000E+00 -0.25105691258E+03  0.25105691259E+03  0.25500000000E-02 0.  1.
    8880023    1    1    2    0    0  0.36787011826E+03  0.68521753876E+02  0.42539277968E+03  0.86878816631E+03  0.65864270000E+03 0.  1.
    8880022    1    1    2    0    0 -0.36787011826E+03 -0.68521753876E+02  0.13621569020E+04  0.14208753406E+04  0.15294330000E+03 0.  0.
<mgrwt>
<rscale>  0 0.64745026E+03</rscale>
<asrwt>0</asrwt>
<pdfrwt beam="1">  1        2 0.31363177E+00 0.75751822E+03</pdfrwt>
<pdfrwt beam="2">  1       -2 0.38624142E-01 0.75751822E+03</pdfrwt>
<totfact> 0.41504271E+01</totfact>
</mgrwt>
</event>
<event>
 4    1  0.7595604E-007  0.1045608E+04  0.7818608E-02  0.9324180E-01
          2   -1    0    0  501    0  0.00000000000E+00  0.00000000000E+00  0.48651485675E+04  0.48651485675E+04  0.25500000000E-02 0. -1.
         -2   -1    0    0    0  501 -0.00000000000E+00 -0.00000000000E+00 -0.38824479861E+03  0.38824479861E+03  0.25500000000E-02 0.  1.
    8880023    1    1    2    0    0 -0.48412841253E+03 -0.65200040466E+03  0.44276871083E+03  0.11354907243E+04  0.65864270000E+03 0.  1.
    8880022    1    1    2    0    0  0.48412841253E+03  0.65200040466E+03  0.40341350581E+04  0.41179026418E+04  0.15294330000E+03 0.  0.
<mgrwt>
<rscale>  0 0.98586918E+03</rscale>
<asrwt>0</asrwt>
<pdfrwt beam="1">  1        2 0.74848436E+00 0.10456075E+04</pdfrwt>
<pdfrwt beam="2">  1       -2 0.59729972E-01 0.10456075E+04</pdfrwt>
<totfact> 0.14205710E-01</totfact>
</mgrwt>
</event>
<event>
 4    1  0.7595604E-007  0.9064945E+03  0.7818608E-02  0.9515685E-01
          2   -1    0    0  501    0  0.00000000000E+00  0.00000000000E+00  0.55009178083E+03  0.55009178083E+03  0.25500000000E-02 0. -1.
         -2   -1    0    0    0  501 -0.00000000000E+00 -0.00000000000E+00 -0.13772673329E+04  0.13772673329E+04  0.25500000000E-02 0.  1.
    8880023    1    1    2    0    0 -0.37047256035E+03  0.50067162966E+03 -0.33720253120E+02  0.90712141439E+03  0.65864270000E+03 0. -1.
    8880022    1    1    2    0    0  0.37047256035E+03 -0.50067162966E+03 -0.79345529898E+03  0.10202376994E+04  0.15294330000E+03 0.  0.
<mgrwt>
<rscale>  0 0.83137222E+03</rscale>
<asrwt>0</asrwt>
<pdfrwt beam="1">  1        2 0.84629505E-01 0.90649446E+03</pdfrwt>
<pdfrwt beam="2">  1       -2 0.21188728E+00 0.90649446E+03</pdfrwt>
<totfact> 0.61560940E+00</totfact>
</mgrwt>
</event>
<event>
 4    1  0.7595604E-007  0.1021011E+04  0.7818608E-02  0.9354570E-01
         -2   -1    0    0    0  501 -0.00000000000E+00  0.00000000000E+00  0.70270062250E+03  0.70270062251E+03  0.25500000000E-02 0.  1.
          2   -1    0    0  501    0  0.00000000000E+00 -0.00000000000E+00 -0.19410975066E+04  0.19410975066E+04  0.25500000000E-02 0. -1.
    8880023    1    1    2    0    0 -0.59283206299E+03 -0.50715286581E+03  0.16169451969E+03  0.10337355601E+04  0.65864270000E+03 0.  1.
    8880022    1    1    2    0    0  0.59283206299E+03  0.50715286581E+03 -0.14000914038E+04  0.16100625690E+04  0.15294330000E+03 0.  0.
<mgrwt>
<rscale>  0 0.95910567E+03</rscale>
<asrwt>0</asrwt>
<pdfrwt beam="1">  1        2 0.29863038E+00 0.10210113E+04</pdfrwt>
<pdfrwt beam="2">  1       -2 0.10810779E+00 0.10210113E+04</pdfrwt>
<totfact> 0.49198800E+00</totfact>
</mgrwt>
</event>
<event>
 4    1  0.7595604E-007  0.8320920E+03  0.7818608E-02  0.9645276E-01
         -2   -1    0    0    0  501 -0.00000000000E+00  0.00000000000E+00  0.23320681670E+03  0.23320681671E+03  0.25500000000E-02 0.  1.
          2   -1    0    0  501    0  0.00000000000E+00 -0.00000000000E+00 -0.22274112866E+04  0.22274112866E+04  0.25500000000E-02 0. -1.
    8880023    1    1    2    0    0 -0.43125633746E+03  0.26941570273E+03 -0.15853625404E+04  0.17904612367E+04  0.65864270000E+03 0.  0.
    8880022    1    1    2    0    0  0.43125633746E+03 -0.26941570273E+03 -0.40884192950E+03  0.67015686657E+03  0.15294330000E+03 0.  0.
<mgrwt>
<rscale>  0 0.74370662E+03</rscale>
<asrwt>0</asrwt>
<pdfrwt beam="1">  1        2 0.34267865E+00 0.83209198E+03</pdfrwt>
<pdfrwt beam="2">  1       -2 0.35877973E-01 0.83209198E+03</pdfrwt>
<totfact> 0.37327403E+01</totfact>
</mgrwt>
</event>
<event>
 4    1  0.7595604E-007  0.1038418E+04  0.7818608E-02  0.9332936E-01
          2   -1    0    0  501    0  0.00000000000E+00  0.00000000000E+00  0.78177062281E+03  0.78177062281E+03  0.25500000000E-02 0. -1.
         -2   -1    0    0    0  501 -0.00000000000E+00 -0.00000000000E+00 -0.13296901248E+04  0.13296901248E+04  0.25500000000E-02 0.  1.
    8880023    1    1    2    0    0  0.57464188966E+01  0.80278819920E+03 -0.73606814267E+03  0.12728348011E+04  0.65864270000E+03 0.  0.
    8880022    1    1    2    0    0 -0.57464188966E+01 -0.80278819920E+03  0.18814864067E+03  0.83862594648E+03  0.15294330000E+03 0.  0.
<mgrwt>
<rscale>  0 0.97806471E+03</rscale>
<asrwt>0</asrwt>
<pdfrwt beam="1">  1        2 0.12027240E+00 0.10384181E+04</pdfrwt>
<pdfrwt beam="2">  1       -2 0.20456771E+00 0.10384181E+04</pdfrwt>
<totfact> 0.43633194E+00</totfact>
</mgrwt>
</event>
<event>
 4    1  0.7595604E-007  0.7316338E+03  0.7818608E-02  0.9885024E-01
          2   -1    0    0  501    0  0.00000000000E+00  0.00000000000E+00  0.68668245589E+03  0.68668245589E+03  0.25500000000E-02 0. -1.
         -2   -1    0    0    0  501 -0.00000000000E+00 -0.00000000000E+00 -0.53212987395E+03  0.53212987395E+03  0.25500000000E-02 0.  1.
    8880023    1    1    2    0    0  0.31851064275E+03 -0.53601365885E+01 -0.15633795109E+03  0.74815073470E+03  0.65864270000E+03 0.  0.
    8880022    1    1    2    0    0 -0.31851064275E+03  0.53601365885E+01  0.31089053303E+03  0.47066159515E+03  0.15294330000E+03 0.  0.
<mgrwt>
<rscale>  0 0.60992624E+03</rscale>
<asrwt>0</asrwt>
<pdfrwt beam="1">  1        2 0.10564345E+00 0.73163377E+03</pdfrwt>
<pdfrwt beam="2">  1       -2 0.81866135E-01 0.73163377E+03</pdfrwt>
<totfact> 0.55862606E+01</totfact>
</mgrwt>
</event>
<event>
 4    1  0.7595604E-007  0.1119064E+04  0.7818608E-02  0.9240122E-01
         -2   -1    0    0    0  501 -0.00000000000E+00  0.00000000000E+00  0.73151840167E+03  0.73151840168E+03  0.25500000000E-02 0.  1.
          2   -1    0    0  501    0  0.00000000000E+00 -0.00000000000E+00 -0.14186892226E+04  0.14186892226E+04  0.25500000000E-02 0. -1.
    8880023    1    1    2    0    0 -0.77489521992E+03  0.46693830601E+03 -0.40826243652E+03  0.11912104796E+04  0.65864270000E+03 0.  0.
    8880022    1    1    2    0    0  0.77489521992E+03 -0.46693830601E+03 -0.27890838437E+03  0.95899714460E+03  0.15294330000E+03 0.  0.
<mgrwt>
<rscale>  0 0.10648730E+04</rscale>
<asrwt>0</asrwt>
<pdfrwt beam="1">  1        2 0.21825988E+00 0.11190640E+04</pdfrwt>
<pdfrwt beam="2">  1       -2 0.11254129E+00 0.11190640E+04</pdfrwt>
<totfact> 0.86256111E+00</totfact>
</mgrwt>
</event>
<event>
 4    1  0.1762688E-006  0.9310569E+03  0.7818608E-02  0.9477909E-01
          2   -1    0    0  501    0  0.00000000000E+00  0.00000000000E+00  0.22346075349E+04  0.22346075349E+04  0.25500000000E-02 0. -1.
         -2   -1    0    0    0  501 -0.00000000000E+00 -0.00000000000E+00 -0.12054166680E+04  0.12054166680E+04  0.25500000000E-02 0.  1.
    8880023    1    1    2    0    0 -0.55150714987E+02  0.65575541947E+03 -0.96113878202E+03  0.13381534800E+04  0.65864270000E+03 0.  0.
    8880022    1    1    2    0    0  0.55150714987E+02 -0.65575541947E+03  0.19903296489E+04  0.21018707229E+04  0.15294330000E+03 0.  0.
<mgrwt>
<rscale>  0 0.85932241E+03</rscale>
<asrwt>0</asrwt>
<pdfrwt beam="1">  1        2 0.34378578E+00 0.93105691E+03</pdfrwt>
<pdfrwt beam="2">  1       -2 0.18544872E+00 0.93105691E+03</pdfrwt>
<totfact> 0.83184888E-01</totfact>
</mgrwt>
</event>
<event>
 4    1  0.7595604E-007  0.7082701E+03  0.7818608E-02  0.9964482E-01
          2   -1    0    0  501    0  0.00000000000E+00  0.00000000000E+00  0.12831055042E+04  0.12831055042E+04  0.25500000000E-02 0. -1.
         -2   -1    0    0    0  501 -0.00000000000E+00 -0.00000000000E+00 -0.21981448081E+03  0.21981448083E+03  0.25500000000E-02 0.  1.
    8880023    1    1    2    0    0  0.44313400004E+02 -0.25665659735E+03  0.51076804398E+03  0.87322991669E+03  0.65864270000E+03 0.  0.
    8880022    1    1    2    0    0 -0.44313400004E+02  0.25665659735E+03  0.55252297946E+03  0.62969006839E+03  0.15294330000E+03 0.  0.
<mgrwt>
<rscale>  0 0.57235456E+03</rscale>
<asrwt>0</asrwt>
<pdfrwt beam="1">  1        2 0.19740085E+00 0.70827007E+03</pdfrwt>
<pdfrwt beam="2">  1       -2 0.33817612E-01 0.70827007E+03</pdfrwt>
<totfact> 0.14073860E+02</totfact>
</mgrwt>
</event>
<event>
 4    1  0.7858367E-007  0.7697020E+03  0.7818608E-02  0.9780608E-01
         -2   -1    0    0    0  501 -0.00000000000E+00  0.00000000000E+00  0.12036209880E+04  0.12036209880E+04  0.25500000000E-02 0.  1.
          2   -1    0    0  501    0  0.00000000000E+00 -0.00000000000E+00 -0.10271264192E+04  0.10271264192E+04  0.25500000000E-02 0. -1.
    8880023    1    1    2    0    0 -0.76283412945E+02 -0.39091146831E+03  0.10245260217E+04  0.12814424335E+04  0.65864270000E+03 0.  1.
    8880022    1    1    2    0    0  0.76283412945E+02  0.39091146831E+03 -0.84803145277E+03  0.94930497368E+03  0.15294330000E+03 0.  0.
<mgrwt>
<rscale>  0 0.66413691E+03</rscale>
<asrwt>0</asrwt>
<pdfrwt beam="1">  1        2 0.15801945E+00 0.76970198E+03</pdfrwt>
<pdfrwt beam="2">  1       -2 0.18517246E+00 0.76970198E+03</pdfrwt>
<totfact> 0.41232120E+00</totfact>
</mgrwt>
</event>
<event>
 4    1  0.7595604E-007  0.6709699E+03  0.7818608E-02  0.1014977E+00
          2   -1    0    0  501    0  0.00000000000E+00  0.00000000000E+00  0.23725107994E+04  0.23725107994E+04  0.25500000000E-02 0. -1.
         -2   -1    0    0    0  501 -0.00000000000E+00 -0.00000000000E+00 -0.21590508294E+03  0.21590508296E+03  0.25500000000E-02 0.  1.
    8880023    1    1    2    0    0  0.12773297877E+03 -0.86444435592E+01  0.32420319008E+03  0.74519014687E+03  0.65864270000E+03 0.  1.
    8880022    1    1    2    0    0 -0.12773297877E+03  0.86444435592E+01  0.18324025264E+04  0.18432257355E+04  0.15294330000E+03 0.  0.
<mgrwt>
<rscale>  0 0.49543678E+03</rscale>
<asrwt>0</asrwt>
<pdfrwt beam="1">  1        2 0.36500164E+00 0.67096993E+03</pdfrwt>
<pdfrwt beam="2">  1       -2 0.33216169E-01 0.67096993E+03</pdfrwt>
<totfact> 0.36682315E+01</totfact>
</mgrwt>
</event>
<event>
 4    1  0.7595604E-007  0.8245158E+03  0.7818608E-02  0.9660099E-01
         -2   -1    0    0    0  501 -0.00000000000E+00  0.00000000000E+00  0.36644918624E+03  0.36644918625E+03  0.25500000000E-02 0.  1.
          2   -1    0    0  501    0  0.00000000000E+00 -0.00000000000E+00 -0.12345710965E+04  0.12345710965E+04  0.25500000000E-02 0. -1.
    8880023    1    1    2    0    0  0.27924663910E+03 -0.40992375171E+03 -0.49373986129E+03  0.96104392436E+03  0.65864270000E+03 0.  0.
    8880022    1    1    2    0    0 -0.27924663910E+03  0.40992375171E+03 -0.37438204893E+03  0.63997635834E+03  0.15294330000E+03 0.  1.
<mgrwt>
<rscale>  0 0.73443020E+03</rscale>
<asrwt>0</asrwt>
<pdfrwt beam="1">  1        2 0.18993401E+00 0.82451584E+03</pdfrwt>
<pdfrwt beam="2">  1       -2 0.56376798E-01 0.82451584E+03</pdfrwt>
<totfact> 0.53929170E+01</totfact>
</mgrwt>
</event>
<event>
 4    1  0.7595604E-007  0.6873609E+03  0.7818608E-02  0.1005433E+00
         -2   -1    0    0    0  501 -0.00000000000E+00  0.00000000000E+00  0.32794041676E+03  0.32794041677E+03  0.25500000000E-02 0.  1.
          2   -1    0    0  501    0  0.00000000000E+00 -0.00000000000E+00 -0.15486779366E+04  0.15486779366E+04  0.25500000000E-02 0. -1.
    8880023    1    1    2    0    0 -0.19622439922E+03  0.12276690346E+02 -0.60584125449E+02  0.69002563322E+03  0.65864270000E+03 0.  1.
    8880022    1    1    2    0    0  0.19622439922E+03 -0.12276690346E+02 -0.11601533944E+04  0.11865927201E+04  0.15294330000E+03 0.  0.
<mgrwt>
<rscale>  0 0.53330807E+03</rscale>
<asrwt>0</asrwt>
<pdfrwt beam="1">  1        2 0.23825814E+00 0.68736085E+03</pdfrwt>
<pdfrwt beam="2">  1       -2 0.50452373E-01 0.68736085E+03</pdfrwt>
<totfact> 0.45603951E+01</totfact>
</mgrwt>
</event>
<event>
 4    1  0.7595604E-007  0.7943743E+03  0.7818608E-02  0.9723095E-01
         -2   -1    0    0    0  501 -0.00000000000E+00  0.00000000000E+00  0.88841091990E+03  0.88841091991E+03  0.25500000000E-02 0.  1.
          2   -1    0    0  501    0  0.00000000000E+00 -0.00000000000E+00 -0.78970258877E+03  0.78970258877E+03  0.25500000000E-02 0. -1.
    8880023    1    1    2    0    0 -0.34928011526E+03 -0.27426952343E+03  0.59673349608E+03  0.99353985426E+03  0.65864270000E+03 0.  1.
    8880022    1    1    2    0    0  0.34928011526E+03  0.27426952343E+03 -0.49802516494E+03  0.68457365442E+03  0.15294330000E+03 0.  0.
<mgrwt>
<rscale>  0 0.69658248E+03</rscale>
<asrwt>0</asrwt>
<pdfrwt beam="1">  1        2 0.12149271E+00 0.79437433E+03</pdfrwt>
<pdfrwt beam="2">  1       -2 0.13667860E+00 0.79437433E+03</pdfrwt>
<totfact> 0.13537313E+01</totfact>
</mgrwt>
</event>
<event>
 4    1  0.7595604E-007  0.6656037E+03  0.7818608E-02  0.1019032E+00
         -2   -1    0    0    0  501 -0.00000000000E+00  0.00000000000E+00  0.13090145512E+04  0.13090145512E+04  0.25500000000E-02 0.  1.
          2   -1    0    0  501    0  0.00000000000E+00 -0.00000000000E+00 -0.41979388747E+03  0.41979388748E+03  0.25500000000E-02 0. -1.
    8880023    1    1    2    0    0  0.49655820764E+02  0.82173191307E+02  0.11983539736E+04  0.13707956034E+04  0.65864270000E+03 0.  1.
    8880022    1    1    2    0    0 -0.49655820764E+02 -0.82173191307E+02 -0.30913330991E+03  0.35801283527E+03  0.15294330000E+03 0.  0.
<mgrwt>
<rscale>  0 0.48037490E+03</rscale>
<asrwt>0</asrwt>
<pdfrwt beam="1">  1        2 0.64583675E-01 0.66560374E+03</pdfrwt>
<pdfrwt beam="2">  1       -2 0.20138685E+00 0.66560374E+03</pdfrwt>
<totfact> 0.10084646E+01</totfact>
</mgrwt>
</event>
<event>
 4    1  0.7595604E-007  0.7690983E+03  0.7818608E-02  0.9782098E-01
          2   -1    0    0  501    0  0.00000000000E+00  0.00000000000E+00  0.31765954707E+04  0.31765954707E+04  0.25500000000E-02 0. -1.
         -2   -1    0    0    0  501 -0.00000000000E+00 -0.00000000000E+00 -0.37237862093E+03  0.37237862094E+03  0.25500000000E-02 0.  1.
    8880023    1    1    2    0    0 -0.15754842219E+03  0.36452767884E+03  0.59426161622E+02  0.77139069797E+03  0.65864270000E+03 0.  1.
    8880022    1    1    2    0    0  0.15754842219E+03 -0.36452767884E+03  0.27447906881E+04  0.27775833936E+04  0.15294330000E+03 0.  0.
<mgrwt>
<rscale>  0 0.66332178E+03</rscale>
<asrwt>0</asrwt>
<pdfrwt beam="1">  1        2 0.48870701E+00 0.76909826E+03</pdfrwt>
<pdfrwt beam="2">  1       -2 0.57289017E-01 0.76909826E+03</pdfrwt>
<totfact> 0.40981625E+00</totfact>
</mgrwt>
</event>
<event>
 4    1  0.7595604E-007  0.7469125E+03  0.7818608E-02  0.9840250E-01
          2   -1    0    0  501    0  0.00000000000E+00  0.00000000000E+00  0.16251881709E+04  0.16251881709E+04  0.25500000000E-02 0. -1.
         -2   -1    0    0    0  501 -0.00000000000E+00 -0.00000000000E+00 -0.32446211873E+03  0.32446211874E+03  0.25500000000E-02 0.  1.
    8880023    1    1    2    0    0 -0.35223159678E+03  0.10118149303E+01  0.18470468936E+03  0.76941156092E+03  0.65864270000E+03 0.  1.
    8880022    1    1    2    0    0  0.35223159678E+03 -0.10118149303E+01  0.11160213628E+04  0.11802387287E+04  0.15294330000E+03 0. -1.
<mgrwt>
<rscale>  0 0.63246501E+03</rscale>
<asrwt>0</asrwt>
<pdfrwt beam="1">  1        2 0.25002895E+00 0.74691253E+03</pdfrwt>
<pdfrwt beam="2">  1       -2 0.49917248E-01 0.74691253E+03</pdfrwt>
<totfact> 0.42004079E+01</totfact>
</mgrwt>
</event>
<event>
 4    1  0.7595604E-007  0.1057116E+04  0.7818608E-02  0.9310375E-01
         -2   -1    0    0    0  501 -0.00000000000E+00  0.00000000000E+00  0.19902200555E+04  0.19902200555E+04  0.25500000000E-02 0.  1.
          2   -1    0    0  501    0  0.00000000000E+00 -0.00000000000E+00 -0.88630990037E+03  0.88630990038E+03  0.25500000000E-02 0. -1.
    8880023    1    1    2    0    0  0.78890281792E+03 -0.24762233018E+03  0.15869356739E+04  0.19067929919E+04  0.65864270000E+03 0.  0.
    8880022    1    1    2    0    0 -0.78890281792E+03  0.24762233018E+03 -0.48302551878E+03  0.96973696399E+03  0.15294330000E+03 0.  0.
<mgrwt>
<rscale>  0 0.99833276E+03</rscale>
<asrwt>0</asrwt>
<pdfrwt beam="1">  1        2 0.13635537E+00 0.10571162E+04</pdfrwt>
<pdfrwt beam="2">  1       -2 0.30618770E+00 0.10571162E+04</pdfrwt>
<totfact> 0.87015442E-01</totfact>
</mgrwt>
</event>
<event>
 4    1  0.7595604E-007  0.6667882E+03  0.7818608E-02  0.1018078E+00
         -2   -1    0    0    0  501 -0.00000000000E+00  0.00000000000E+00  0.15006491508E+03  0.15006491510E+03  0.25500000000E-02 0.  1.
          2   -1    0    0  501    0  0.00000000000E+00 -0.00000000000E+00 -0.14371440842E+04  0.14371440842E+04  0.25500000000E-02 0. -1.
    8880023    1    1    2    0    0 -0.34083110319E+02  0.98155906252E+02 -0.67906281751E+03  0.95169992998E+03  0.65864270000E+03 0.  0.
    8880022    1    1    2    0    0  0.34083110319E+02 -0.98155906252E+02 -0.60801635163E+03  0.63550906933E+03  0.15294330000E+03 0.  0.
<mgrwt>
<rscale>  0 0.48386583E+03</rscale>
<asrwt>0</asrwt>
<pdfrwt beam="1">  1        2 0.22109908E+00 0.66678816E+03</pdfrwt>
<pdfrwt beam="2">  1       -2 0.23086911E-01 0.66678816E+03</pdfrwt>
<totfact> 0.23245191E+02</totfact>
</mgrwt>
</event>
<event>
 4    1  0.7595604E-007  0.7173412E+03  0.7818608E-02  0.9931687E-01
          2   -1    0    0  501    0  0.00000000000E+00  0.00000000000E+00  0.28834399025E+04  0.28834399025E+04  0.25500000000E-02 0. -1.
         -2   -1    0    0    0  501 -0.00000000000E+00 -0.00000000000E+00 -0.16733899464E+03  0.16733899466E+03  0.25500000000E-02 0.  1.
    8880023    1    1    2    0    0  0.19964730917E+03  0.20226019365E+03  0.67721698795E+03  0.98650964974E+03  0.65864270000E+03 0.  1.
    8880022    1    1    2    0    0 -0.19964730917E+03 -0.20226019365E+03  0.20388839199E+04  0.20642692474E+04  0.15294330000E+03 0.  0.
<mgrwt>
<rscale>  0 0.58749870E+03</rscale>
<asrwt>0</asrwt>
<pdfrwt beam="1">  1        2 0.44360615E+00 0.71734123E+03</pdfrwt>
<pdfrwt beam="2">  1       -2 0.25744460E-01 0.71734123E+03</pdfrwt>
<totfact> 0.29605616E+01</totfact>
</mgrwt>
</event>
<event>
 4    1  0.7595604E-007  0.8063630E+03  0.7818608E-02  0.9697203E-01
         -2   -1    0    0    0  501 -0.00000000000E+00  0.00000000000E+00  0.62099182145E+03  0.62099182146E+03  0.25500000000E-02 0.  1.
          2   -1    0    0  501    0  0.00000000000E+00 -0.00000000000E+00 -0.94763629207E+03  0.94763629207E+03  0.25500000000E-02 0. -1.
    8880023    1    1    2    0    0  0.41136799982E+03 -0.21722673240E+03  0.21889096050E+03  0.83554445926E+03  0.65864270000E+03 0.  1.
    8880022    1    1    2    0    0 -0.41136799982E+03  0.21722673240E+03 -0.54553543111E+03  0.73308365427E+03  0.15294330000E+03 0.  0.
<mgrwt>
<rscale>  0 0.71183561E+03</rscale>
<asrwt>0</asrwt>
<pdfrwt beam="1">  1        2 0.14579020E+00 0.80636300E+03</pdfrwt>
<pdfrwt beam="2">  1       -2 0.95537204E-01 0.80636300E+03</pdfrwt>
<totfact> 0.25320930E+01</totfact>
</mgrwt>
</event>
<event>
 4    1  0.7595604E-007  0.1017676E+04  0.7818608E-02  0.9358789E-01
         -2   -1    0    0    0  501 -0.00000000000E+00  0.00000000000E+00  0.14322280672E+04  0.14322280672E+04  0.25500000000E-02 0.  1.
          2   -1    0    0  501    0  0.00000000000E+00 -0.00000000000E+00 -0.10778449323E+04  0.10778449323E+04  0.25500000000E-02 0. -1.
    8880023    1    1    2    0    0 -0.73728405257E+03 -0.24138355854E+03  0.10461327659E+04  0.14594717424E+04  0.65864270000E+03 0.  1.
    8880022    1    1    2    0    0  0.73728405257E+03  0.24138355854E+03 -0.69174963100E+03  0.10506012571E+04  0.15294330000E+03 0.  0.
<mgrwt>
<rscale>  0 0.95546195E+03</rscale>
<asrwt>0</asrwt>
<pdfrwt beam="1">  1        2 0.16582230E+00 0.10176758E+04</pdfrwt>
<pdfrwt beam="2">  1       -2 0.22034278E+00 0.10176758E+04</pdfrwt>
<totfact> 0.21926685E+00</totfact>
</mgrwt>
</event>
<event>
 4    1  0.7595604E-007  0.8302363E+03  0.7818608E-02  0.9648873E-01
         -2   -1    0    0    0  501 -0.00000000000E+00  0.00000000000E+00  0.53750211670E+03  0.53750211670E+03  0.25500000000E-02 0.  1.
          2   -1    0    0  501    0  0.00000000000E+00 -0.00000000000E+00 -0.34747681607E+04  0.34747681607E+04  0.25500000000E-02 0. -1.
    8880023    1    1    2    0    0  0.38278418886E+03  0.33008831474E+03 -0.32795182472E+04  0.33829768209E+04  0.65864270000E+03 0. -1.
    8880022    1    1    2    0    0 -0.38278418886E+03 -0.33008831474E+03  0.34225220321E+03  0.62929345650E+03  0.15294330000E+03 0.  0.
<mgrwt>
<rscale>  0 0.74144205E+03</rscale>
<asrwt>0</asrwt>
<pdfrwt beam="1">  1        2 0.53457970E+00 0.83023625E+03</pdfrwt>
<pdfrwt beam="2">  1       -2 0.82692636E-01 0.83023625E+03</pdfrwt>
<totfact> 0.11598594E+00</totfact>
</mgrwt>
</event>
<event>
 4    1  0.7595604E-007  0.1177867E+04  0.7818608E-02  0.9178943E-01
         -2   -1    0    0    0  501 -0.00000000000E+00  0.00000000000E+00  0.61224570408E+03  0.61224570409E+03  0.25500000000E-02 0.  1.
          2   -1    0    0  501    0  0.00000000000E+00 -0.00000000000E+00 -0.28383013720E+04  0.28383013720E+04  0.25500000000E-02 0. -1.
    8880023    1    1    2    0    0  0.68743702652E+03  0.69353529062E+03 -0.19791896536E+03  0.11943797503E+04  0.65864270000E+03 0.  0.
    8880022    1    1    2    0    0 -0.68743702652E+03 -0.69353529062E+03 -0.20281367026E+04  0.22561673258E+04  0.15294330000E+03 0.  0.
<mgrwt>
<rscale>  0 0.11273439E+04</rscale>
<asrwt>0</asrwt>
<pdfrwt beam="1">  1        2 0.43666174E+00 0.11778672E+04</pdfrwt>
<pdfrwt beam="2">  1       -2 0.94191648E-01 0.11778672E+04</pdfrwt>
<totfact> 0.20663206E+00</totfact>
</mgrwt>
</event>
<event>
 4    1  0.7639633E-007  0.7213416E+03  0.7818608E-02  0.9918072E-01
         -2   -1    0    0    0  501 -0.00000000000E+00  0.00000000000E+00  0.19545363290E+04  0.19545363290E+04  0.25500000000E-02 0.  1.
          2   -1    0    0  501    0  0.00000000000E+00 -0.00000000000E+00 -0.11206206115E+04  0.11206206115E+04  0.25500000000E-02 0. -1.
    8880023    1    1    2    0    0  0.68998447839E+02  0.28594190930E+03  0.18609895939E+04  0.19958998062E+04  0.65864270000E+03 0.  1.
    8880022    1    1    2    0    0 -0.68998447839E+02 -0.28594190930E+03 -0.10270738764E+04  0.10792571343E+04  0.15294330000E+03 0.  0.
<mgrwt>
<rscale>  0 0.59393372E+03</rscale>
<asrwt>0</asrwt>
<pdfrwt beam="1">  1        2 0.17240317E+00 0.72134164E+03</pdfrwt>
<pdfrwt beam="2">  1       -2 0.30069790E+00 0.72134164E+03</pdfrwt>
<totfact> 0.70217020E-01</totfact>
</mgrwt>
</event>
<event>
 4    1  0.9727568E-007  0.7348078E+03  0.7818608E-02  0.9875338E-01
          2   -1    0    0  501    0  0.00000000000E+00  0.00000000000E+00  0.21460913719E+04  0.21460913719E+04  0.25500000000E-02 0. -1.
         -2   -1    0    0    0  501 -0.00000000000E+00 -0.00000000000E+00 -0.97947828212E+03  0.97947828213E+03  0.25500000000E-02 0.  1.
    8880023    1    1    2    0    0 -0.26630281915E+03 -0.18765684459E+03 -0.82321285991E+03  0.11034590621E+04  0.65864270000E+03 0.  1.
    8880022    1    1    2    0    0  0.26630281915E+03  0.18765684459E+03  0.19898259497E+04  0.20221105919E+04  0.15294330000E+03 0.  0.
<mgrwt>
<rscale>  0 0.61471536E+03</rscale>
<asrwt>0</asrwt>
<pdfrwt beam="1">  1        2 0.33016790E+00 0.73480779E+03</pdfrwt>
<pdfrwt beam="2">  1       -2 0.15068897E+00 0.73480779E+03</pdfrwt>
<totfact> 0.17126088E+00</totfact>
</mgrwt>
</event>
<event>
 4    1  0.7595604E-007  0.9174388E+03  0.7818608E-02  0.9498597E-01
          2   -1    0    0  501    0  0.00000000000E+00  0.00000000000E+00  0.59039631445E+03  0.59039631446E+03  0.25500000000E-02 0. -1.
         -2   -1    0    0    0  501 -0.00000000000E+00 -0.00000000000E+00 -0.13486849253E+04  0.13486849253E+04  0.25500000000E-02 0.  1.
    8880023    1    1    2    0    0 -0.62897711297E+02 -0.63555297468E+03 -0.87991474624E+03  0.12711978102E+04  0.65864270000E+03 0.  1.
    8880022    1    1    2    0    0  0.62897711297E+02  0.63555297468E+03  0.12162613537E+03  0.66788342959E+03  0.15294330000E+03 0.  0.
<mgrwt>
<rscale>  0 0.84387311E+03</rscale>
<asrwt>0</asrwt>
<pdfrwt beam="1">  1        2 0.90830203E-01 0.91743878E+03</pdfrwt>
<pdfrwt beam="2">  1       -2 0.20748999E+00 0.91743878E+03</pdfrwt>
<totfact> 0.60275639E+00</totfact>
</mgrwt>
</event>
<event>
 4    1  0.7595604E-007  0.6649788E+03  0.7818608E-02  0.1019551E+00
          2   -1    0    0  501    0  0.00000000000E+00  0.00000000000E+00  0.29221913407E+04  0.29221913407E+04  0.25500000000E-02 0. -1.
         -2   -1    0    0    0  501 -0.00000000000E+00 -0.00000000000E+00 -0.13290621797E+03  0.13290621800E+03  0.25500000000E-02 0.  1.
    8880023    1    1    2    0    0 -0.49888086362E+01  0.91442450413E+02  0.72751121057E+03  0.98563146141E+03  0.65864270000E+03 0.  1.
    8880022    1    1    2    0    0  0.49888086362E+01 -0.91442450413E+02  0.20617739121E+04  0.20694660973E+04  0.15294330000E+03 0.  0.
<mgrwt>
<rscale>  0 0.47848918E+03</rscale>
<asrwt>0</asrwt>
<pdfrwt beam="1">  1        2 0.44956789E+00 0.66497881E+03</pdfrwt>
<pdfrwt beam="2">  1       -2 0.20447111E-01 0.66497881E+03</pdfrwt>
<totfact> 0.42660557E+01</totfact>
</mgrwt>
</event>
<event>
 4    1  0.7595604E-007  0.6912545E+03  0.7818608E-02  0.1003562E+00
          2   -1    0    0  501    0  0.00000000000E+00  0.00000000000E+00  0.51491786669E+03  0.51491786670E+03  0.25500000000E-02 0. -1.
         -2   -1    0    0    0  501 -0.00000000000E+00 -0.00000000000E+00 -0.44214831907E+03  0.44214831908E+03  0.25500000000E-02 0.  1.
    8880023    1    1    2    0    0  0.17075568247E+03  0.12192244360E+03  0.88770305570E+02  0.69693110044E+03  0.65864270000E+03 0.  1.
    8880022    1    1    2    0    0 -0.17075568247E+03 -0.12192244360E+03 -0.16000757949E+02  0.26013508533E+03  0.15294330000E+03 0. -1.
<mgrwt>
<rscale>  0 0.54115595E+03</rscale>
<asrwt>0</asrwt>
<pdfrwt beam="1">  1        2 0.79218133E-01 0.69125451E+03</pdfrwt>
<pdfrwt beam="2">  1       -2 0.68022818E-01 0.69125451E+03</pdfrwt>
<totfact> 0.11937451E+02</totfact>
</mgrwt>
</event>
<event>
 4    1  0.7595604E-007  0.6587751E+03  0.7818608E-02  0.1025448E+00
         -2   -1    0    0    0  501 -0.00000000000E+00  0.00000000000E+00  0.18672904374E+03  0.18672904375E+03  0.25500000000E-02 0.  1.
          2   -1    0    0  501    0  0.00000000000E+00 -0.00000000000E+00 -0.25365731191E+04  0.25365731191E+04  0.25500000000E-02 0. -1.
    8880023    1    1    2    0    0  0.37748453288E+01  0.12656169654E+02 -0.40690975102E+03  0.77431271449E+03  0.65864270000E+03 0.  1.
    8880022    1    1    2    0    0 -0.37748453288E+01 -0.12656169654E+02 -0.19429343243E+04  0.19489894484E+04  0.15294330000E+03 0.  0.
<mgrwt>
<rscale>  0 0.45770832E+03</rscale>
<asrwt>0</asrwt>
<pdfrwt beam="1">  1        2 0.39024199E+00 0.65877510E+03</pdfrwt>
<pdfrwt beam="2">  1       -2 0.28727547E-01 0.65877510E+03</pdfrwt>
<totfact> 0.38944998E+01</totfact>
</mgrwt>
</event>
<event>
 4    1  0.7595604E-007  0.7564739E+03  0.7818608E-02  0.9814323E-01
         -2   -1    0    0    0  501 -0.00000000000E+00  0.00000000000E+00  0.22816510750E+03  0.22816510751E+03  0.25500000000E-02 0.  1.
          2   -1    0    0  501    0  0.00000000000E+00 -0.00000000000E+00 -0.15696135757E+04  0.15696135757E+04  0.25500000000E-02 0. -1.
    8880023    1    1    2    0    0 -0.36386011094E+03  0.77771079172E+02 -0.64791035082E+03  0.99601232425E+03  0.65864270000E+03 0.  1.
    8880022    1    1    2    0    0  0.36386011094E+03 -0.77771079172E+02 -0.69353811735E+03  0.80176635894E+03  0.15294330000E+03 0. -1.
<mgrwt>
<rscale>  0 0.64599511E+03</rscale>
<asrwt>0</asrwt>
<pdfrwt beam="1">  1        2 0.24147901E+00 0.75647388E+03</pdfrwt>
<pdfrwt beam="2">  1       -2 0.35102325E-01 0.75647388E+03</pdfrwt>
<totfact> 0.90039361E+01</totfact>
</mgrwt>
</event>
<event>
 4    1  0.7595604E-007  0.8035961E+03  0.7818608E-02  0.9703074E-01
          2   -1    0    0  501    0  0.00000000000E+00  0.00000000000E+00  0.11498872272E+04  0.11498872272E+04  0.25500000000E-02 0. -1.
         -2   -1    0    0    0  501 -0.00000000000E+00 -0.00000000000E+00 -0.52207134809E+03  0.52207134809E+03  0.25500000000E-02 0.  1.
    8880023    1    1    2    0    0 -0.49976113624E+02  0.45766677135E+03 -0.86758744028E+02  0.80826590393E+03  0.65864270000E+03 0.  1.
    8880022    1    1    2    0    0  0.49976113624E+02 -0.45766677135E+03  0.71457462318E+03  0.86369267140E+03  0.15294330000E+03 0.  0.
<mgrwt>
<rscale>  0 0.70834072E+03</rscale>
<asrwt>0</asrwt>
<pdfrwt beam="1">  1        2 0.17690572E+00 0.80359610E+03</pdfrwt>
<pdfrwt beam="2">  1       -2 0.80318670E-01 0.80359610E+03</pdfrwt>
<totfact> 0.28169694E+01</totfact>
</mgrwt>
</event>
<event>
 4    1  0.7595604E-007  0.1358996E+04  0.7818608E-02  0.9016217E-01
          2   -1    0    0  501    0  0.00000000000E+00  0.00000000000E+00  0.11906706969E+04  0.11906706969E+04  0.25500000000E-02 0. -1.
         -2   -1    0    0    0  501 -0.00000000000E+00 -0.00000000000E+00 -0.17400677037E+04  0.17400677037E+04  0.25500000000E-02 0.  1.
    8880023    1    1    2    0    0 -0.22115516840E+03  0.11679679863E+04 -0.95995880143E+03  0.16638479294E+04  0.65864270000E+03 0. -1.
    8880022    1    1    2    0    0  0.22115516840E+03 -0.11679679863E+04  0.41056179463E+03  0.12668904711E+04  0.15294330000E+03 0.  0.
<mgrwt>
<rscale>  0 0.13169669E+04</rscale>
<asrwt>0</asrwt>
<pdfrwt beam="1">  1        2 0.18318011E+00 0.13589956E+04</pdfrwt>
<pdfrwt beam="2">  1       -2 0.26770272E+00 0.13589956E+04</pdfrwt>
<totfact> 0.91937247E-01</totfact>
</mgrwt>
</event>
<event>
 4    1  0.7595604E-007  0.6941103E+03  0.7818608E-02  0.1002257E+00
         -2   -1    0    0    0  501 -0.00000000000E+00  0.00000000000E+00  0.30183663480E+03  0.30183663481E+03  0.25500000000E-02 0.  1.
          2   -1    0    0  501    0  0.00000000000E+00 -0.00000000000E+00 -0.13149049754E+04  0.13149049754E+04  0.25500000000E-02 0. -1.
    8880023    1    1    2    0    0  0.19913246418E+03 -0.91242452711E+02 -0.14579872789E+03  0.70925763922E+03  0.65864270000E+03 0.  1.
    8880022    1    1    2    0    0 -0.19913246418E+03  0.91242452711E+02 -0.86726961270E+03  0.90748397098E+03  0.15294330000E+03 0.  0.
<mgrwt>
<rscale>  0 0.54671536E+03</rscale>
<asrwt>0</asrwt>
<pdfrwt beam="1">  1        2 0.20229307E+00 0.69411032E+03</pdfrwt>
<pdfrwt beam="2">  1       -2 0.46436406E-01 0.69411032E+03</pdfrwt>
<totfact> 0.72894605E+01</totfact>
</mgrwt>
</event>
<event>
 4    1  0.7595604E-007  0.7135430E+03  0.7818608E-02  0.9945072E-01
         -2   -1    0    0    0  501 -0.00000000000E+00  0.00000000000E+00  0.46282029056E+03  0.46282029057E+03  0.25500000000E-02 0.  1.
          2   -1    0    0  501    0  0.00000000000E+00 -0.00000000000E+00 -0.32012280382E+04  0.32012280383E+04  0.25500000000E-02 0. -1.
    8880023    1    1    2    0    0 -0.20284671669E+03 -0.18489628442E+03  0.17423441973E+03  0.73450749877E+03  0.65864270000E+03 0.  1.
    8880022    1    1    2    0    0  0.20284671669E+03  0.18489628442E+03 -0.29126421674E+04  0.29295408301E+04  0.15294330000E+03 0.  0.
<mgrwt>
<rscale>  0 0.58125748E+03</rscale>
<asrwt>0</asrwt>
<pdfrwt beam="1">  1        2 0.49249661E+00 0.71354301E+03</pdfrwt>
<pdfrwt beam="2">  1       -2 0.71203124E-01 0.71354301E+03</pdfrwt>
<totfact> 0.25112367E+00</totfact>
</mgrwt>
</event>
<event>
 4    1  0.7595604E-007  0.7235909E+03  0.7818608E-02  0.9910618E-01
          2   -1    0    0  501    0  0.00000000000E+00  0.00000000000E+00  0.45489265961E+03  0.45489265961E+03  0.25500000000E-02 0. -1.
         -2   -1    0    0    0  501 -0.00000000000E+00 -0.00000000000E+00 -0.72433901925E+03  0.72433901925E+03  0.25500000000E-02 0.  1.
    8880023    1    1    2    0    0 -0.19878437971E+03 -0.22418364237E+03 -0.38985552710E+03  0.82193130698E+03  0.65864270000E+03 0.  0.
    8880022    1    1    2    0    0  0.19878437971E+03  0.22418364237E+03  0.12040916746E+03  0.35730037188E+03  0.15294330000E+03 0.  0.
<mgrwt>
<rscale>  0 0.59749450E+03</rscale>
<asrwt>0</asrwt>
<pdfrwt beam="1">  1        2 0.69983486E-01 0.72359087E+03</pdfrwt>
<pdfrwt beam="2">  1       -2 0.11143677E+00 0.72359087E+03</pdfrwt>
<totfact> 0.44320819E+01</totfact>
</mgrwt>
</event>
<event>
 4    1  0.7595604E-007  0.7068788E+03  0.7818608E-02  0.9969779E-01
         -2   -1    0    0    0  501 -0.00000000000E+00  0.00000000000E+00  0.20556113674E+03  0.20556113676E+03  0.25500000000E-02 0.  1.
          2   -1    0    0  501    0  0.00000000000E+00 -0.00000000000E+00 -0.16500839365E+04  0.16500839365E+04  0.25500000000E-02 0. -1.
    8880023    1    1    2    0    0  0.24814918841E+03 -0.65493926142E+02 -0.50224455609E+03  0.86713740229E+03  0.65864270000E+03 0.  0.
    8880022    1    1    2    0    0 -0.24814918841E+03  0.65493926142E+02 -0.94227824370E+03  0.98850767100E+03  0.15294330000E+03 0.  0.
<mgrwt>
<rscale>  0 0.56995466E+03</rscale>
<asrwt>0</asrwt>
<pdfrwt beam="1">  1        2 0.25385906E+00 0.70687883E+03</pdfrwt>
<pdfrwt beam="2">  1       -2 0.31624791E-01 0.70687883E+03</pdfrwt>
<totfact> 0.99489894E+01</totfact>
</mgrwt>
</event>
<event>
 4    1  0.7595604E-007  0.7341484E+03  0.7818608E-02  0.9877332E-01
          2   -1    0    0  501    0  0.00000000000E+00  0.00000000000E+00  0.37794089602E+03  0.37794089603E+03  0.25500000000E-02 0. -1.
         -2   -1    0    0    0  501 -0.00000000000E+00 -0.00000000000E+00 -0.23973141747E+04  0.23973141748E+04  0.25500000000E-02 0.  1.
    8880023    1    1    2    0    0  0.20516857215E+03 -0.25113650096E+03 -0.22379815606E+04  0.23553206485E+04  0.65864270000E+03 0.  0.
    8880022    1    1    2    0    0 -0.20516857215E+03  0.25113650096E+03  0.21860828190E+03  0.41993442231E+03  0.15294330000E+03 0.  0.
<mgrwt>
<rscale>  0 0.61372549E+03</rscale>
<asrwt>0</asrwt>
<pdfrwt beam="1">  1        2 0.58144755E-01 0.73414841E+03</pdfrwt>
<pdfrwt beam="2">  1       -2 0.36881756E+00 0.73414841E+03</pdfrwt>
<totfact> 0.10616844E+00</totfact>
</mgrwt>
</event>
<event>
 4    1  0.7595604E-007  0.7790064E+03  0.7818608E-02  0.9758176E-01
         -2   -1    0    0    0  501 -0.00000000000E+00  0.00000000000E+00  0.43892415168E+03  0.43892415169E+03  0.25500000000E-02 0.  1.
          2   -1    0    0  501    0  0.00000000000E+00 -0.00000000000E+00 -0.92967030143E+03  0.92967030144E+03  0.25500000000E-02 0. -1.
    8880023    1    1    2    0    0 -0.78756978068E+01 -0.41590704748E+03 -0.49933672377E+03  0.92530431142E+03  0.65864270000E+03 0.  0.
    8880022    1    1    2    0    0  0.78756978068E+01  0.41590704748E+03  0.85905740231E+01  0.44329014171E+03  0.15294330000E+03 0.  0.
<mgrwt>
<rscale>  0 0.67656165E+03</rscale>
<asrwt>0</asrwt>
<pdfrwt beam="1">  1        2 0.14302620E+00 0.77900636E+03</pdfrwt>
<pdfrwt beam="2">  1       -2 0.67526793E-01 0.77900636E+03</pdfrwt>
<totfact> 0.56990661E+01</totfact>
</mgrwt>
</event>
<event>
 4    1  0.7595604E-007  0.1051721E+04  0.7818608E-02  0.9316815E-01
          2   -1    0    0  501    0  0.00000000000E+00  0.00000000000E+00  0.13094806347E+04  0.13094806347E+04  0.25500000000E-02 0. -1.
         -2   -1    0    0    0  501 -0.00000000000E+00 -0.00000000000E+00 -0.10721167811E+04  0.10721167812E+04  0.25500000000E-02 0.  1.
    8880023    1    1    2    0    0 -0.78410946772E+03  0.23974983357E+03 -0.59071687419E+03  0.12062604494E+04  0.65864270000E+03 0.  1.
    8880022    1    1    2    0    0  0.78410946772E+03 -0.23974983357E+03  0.82808072776E+03  0.11753369665E+04  0.15294330000E+03 0.  0.
<mgrwt>
<rscale>  0 0.99249475E+03</rscale>
<asrwt>0</asrwt>
<pdfrwt beam="1">  1        2 0.20145856E+00 0.10517214E+04</pdfrwt>
<pdfrwt beam="2">  1       -2 0.16494104E+00 0.10517214E+04</pdfrwt>
<totfact> 0.37293784E+00</totfact>
</mgrwt>
</event>
<event>
 4    1  0.9110048E-007  0.6797751E+03  0.7818608E-02  0.1009451E+00
         -2   -1    0    0    0  501 -0.00000000000E+00  0.00000000000E+00  0.73373061563E+03  0.73373061564E+03  0.25500000000E-02 0.  1.
          2   -1    0    0  501    0  0.00000000000E+00 -0.00000000000E+00 -0.16210025363E+04  0.16210025363E+04  0.25500000000E-02 0. -1.
    8880023    1    1    2    0    0 -0.36745140638E+02 -0.16411520291E+03  0.56552536478E+03  0.88425853101E+03  0.65864270000E+03 0.  1.
    8880022    1    1    2    0    0  0.36745140638E+02  0.16411520291E+03 -0.14527972854E+04  0.14704746209E+04  0.15294330000E+03 0.  0.
<mgrwt>
<rscale>  0 0.51693353E+03</rscale>
<asrwt>0</asrwt>
<pdfrwt beam="1">  1        2 0.24938500E+00 0.67977512E+03</pdfrwt>
<pdfrwt beam="2">  1       -2 0.11288163E+00 0.67977512E+03</pdfrwt>
<totfact> 0.69558635E+00</totfact>
</mgrwt>
</event>
<event>
 4    1  0.7595604E-007  0.6997872E+03  0.7818608E-02  0.9998085E-01
         -2   -1    0    0    0  501 -0.00000000000E+00  0.00000000000E+00  0.21607443314E+03  0.21607443316E+03  0.25500000000E-02 0.  1.
          2   -1    0    0  501    0  0.00000000000E+00 -0.00000000000E+00 -0.19221853406E+04  0.19221853406E+04  0.25500000000E-02 0. -1.
    8880023    1    1    2    0    0  0.62253600909E+02 -0.22807097048E+03 -0.40816678227E+03  0.81012480941E+03  0.65864270000E+03 0.  1.
    8880022    1    1    2    0    0 -0.62253600909E+02  0.22807097048E+03 -0.12979441252E+04  0.13281349643E+04  0.15294330000E+03 0.  0.
<mgrwt>
<rscale>  0 0.55734275E+03</rscale>
<asrwt>0</asrwt>
<pdfrwt beam="1">  1        2 0.29572081E+00 0.69978717E+03</pdfrwt>
<pdfrwt beam="2">  1       -2 0.33242222E-01 0.69978717E+03</pdfrwt>
<totfact> 0.64443758E+01</totfact>
</mgrwt>
</event>
<event>
 4    1  0.7595604E-007  0.7735220E+03  0.7818608E-02  0.9771280E-01
         -2   -1    0    0    0  501 -0.00000000000E+00  0.00000000000E+00  0.28110405219E+03  0.28110405220E+03  0.25500000000E-02 0.  1.
          2   -1    0    0  501    0  0.00000000000E+00 -0.00000000000E+00 -0.24889222868E+04  0.24889222868E+04  0.25500000000E-02 0. -1.
    8880023    1    1    2    0    0 -0.74745706728E+02  0.39867167436E+03 -0.22047660957E+04  0.23365208682E+04  0.65864270000E+03 0.  0.
    8880022    1    1    2    0    0  0.74745706728E+02 -0.39867167436E+03 -0.30521388870E+01  0.43350547076E+03  0.15294330000E+03 0.  0.
<mgrwt>
<rscale>  0 0.66926859E+03</rscale>
<asrwt>0</asrwt>
<pdfrwt beam="1">  1        2 0.38291111E+00 0.77352197E+03</pdfrwt>
<pdfrwt beam="2">  1       -2 0.43246779E-01 0.77352197E+03</pdfrwt>
<totfact> 0.18665495E+01</totfact>
</mgrwt>
</event>
<event>
 4    1  0.7595604E-007  0.1076722E+04  0.7818608E-02  0.9287426E-01
         -2   -1    0    0    0  501 -0.00000000000E+00  0.00000000000E+00  0.20028633658E+04  0.20028633658E+04  0.25500000000E-02 0.  1.
          2   -1    0    0  501    0  0.00000000000E+00 -0.00000000000E+00 -0.66056376905E+03  0.66056376906E+03  0.25500000000E-02 0. -1.
    8880023    1    1    2    0    0 -0.38525610678E+03  0.75966987144E+03  0.14339463966E+04  0.17931907473E+04  0.65864270000E+03 0.  0.
    8880022    1    1    2    0    0  0.38525610678E+03 -0.75966987144E+03 -0.91646799876E+02  0.87023638761E+03  0.15294330000E+03 0. -1.
<mgrwt>
<rscale>  0 0.10194869E+04</rscale>
<asrwt>0</asrwt>
<pdfrwt beam="1">  1        2 0.10162520E+00 0.10767222E+04</pdfrwt>
<pdfrwt beam="2">  1       -2 0.30813282E+00 0.10767222E+04</pdfrwt>
<totfact> 0.12453080E+00</totfact>
</mgrwt>
</event>
<event>
 4    1  0.7595604E-007  0.7541594E+03  0.7818608E-02  0.9820470E-01
         -2   -1    0    0    0  501 -0.00000000000E+00  0.00000000000E+00  0.84960421896E+03  0.84960421896E+03  0.25500000000E-02 0.  1.
          2   -1    0    0  501    0  0.00000000000E+00 -0.00000000000E+00 -0.12574271677E+04  0.12574271677E+04  0.25500000000E-02 0. -1.
    8880023    1    1    2    0    0  0.33384712674E+03  0.15327180450E+03  0.63815182421E+03  0.98792414035E+03  0.65864270000E+03 0.  1.
    8880022    1    1    2    0    0 -0.33384712674E+03 -0.15327180450E+03 -0.10459747730E+04  0.11191072463E+04  0.15294330000E+03 0.  0.
<mgrwt>
<rscale>  0 0.64275494E+03</rscale>
<asrwt>0</asrwt>
<pdfrwt beam="1">  1        2 0.19345033E+00 0.75415937E+03</pdfrwt>
<pdfrwt beam="2">  1       -2 0.13070834E+00 0.75415937E+03</pdfrwt>
<totfact> 0.76547798E+00</totfact>
</mgrwt>
</event>
<event>
 4    1  0.7595604E-007  0.7099788E+03  0.7818608E-02  0.9958080E-01
         -2   -1    0    0    0  501 -0.00000000000E+00  0.00000000000E+00  0.31937362117E+04  0.31937362117E+04  0.25500000000E-02 0.  1.
          2   -1    0    0  501    0  0.00000000000E+00 -0.00000000000E+00 -0.10396769588E+04  0.10396769588E+04  0.25500000000E-02 0. -1.
    8880023    1    1    2    0    0  0.23401085006E+03  0.12449355776E+03  0.31305725625E+04  0.32100707934E+04  0.65864270000E+03 0.  1.
    8880022    1    1    2    0    0 -0.23401085006E+03 -0.12449355776E+03 -0.97651330954E+03  0.10233423770E+04  0.15294330000E+03 0.  0.
<mgrwt>
<rscale>  0 0.57527211E+03</rscale>
<asrwt>0</asrwt>
<pdfrwt beam="1">  1        2 0.15995030E+00 0.70997882E+03</pdfrwt>
<pdfrwt beam="2">  1       -2 0.49134403E+00 0.70997882E+03</pdfrwt>
<totfact> 0.47827399E-02</totfact>
</mgrwt>
</event>
<event>
 4    1  0.7595604E-007  0.8211460E+03  0.7818608E-02  0.9666811E-01
         -2   -1    0    0    0  501 -0.00000000000E+00  0.00000000000E+00  0.85549234356E+03  0.85549234357E+03  0.25500000000E-02 0.  1.
          2   -1    0    0  501    0  0.00000000000E+00 -0.00000000000E+00 -0.60510608070E+03  0.60510608070E+03  0.25500000000E-02 0. -1.
    8880023    1    1    2    0    0 -0.11100524262E+03  0.47764884247E+03  0.41649567768E+03  0.92073309726E+03  0.65864270000E+03 0.  1.
    8880022    1    1    2    0    0  0.11100524262E+03 -0.47764884247E+03 -0.16610941481E+03  0.53986532701E+03  0.15294330000E+03 0.  0.
<mgrwt>
<rscale>  0 0.73027671E+03</rscale>
<asrwt>0</asrwt>
<pdfrwt beam="1">  1        2 0.93093243E-01 0.82114602E+03</pdfrwt>
<pdfrwt beam="2">  1       -2 0.13161421E+00 0.82114602E+03</pdfrwt>
<totfact> 0.20812342E+01</totfact>
</mgrwt>
</event>
<event>
 4    1  0.7595604E-007  0.7028838E+03  0.7818608E-02  0.9985442E-01
         -2   -1    0    0    0  501 -0.00000000000E+00  0.00000000000E+00  0.53162892357E+03  0.53162892358E+03  0.25500000000E-02 0.  1.
          2   -1    0    0  501    0  0.00000000000E+00 -0.00000000000E+00 -0.68717290056E+03  0.68717290057E+03  0.25500000000E-02 0. -1.
    8880023    1    1    2    0    0 -0.87341478578E+02  0.22936194290E+03  0.22756335895E+03  0.73880357561E+03  0.65864270000E+03 0.  1.
    8880022    1    1    2    0    0  0.87341478578E+02 -0.22936194290E+03 -0.38310733594E+03  0.47999824854E+03  0.15294330000E+03 0.  0.
<mgrwt>
<rscale>  0 0.56293211E+03</rscale>
<asrwt>0</asrwt>
<pdfrwt beam="1">  1        2 0.10571891E+00 0.70288380E+03</pdfrwt>
<pdfrwt beam="2">  1       -2 0.81789065E-01 0.70288380E+03</pdfrwt>
<totfact> 0.56053290E+01</totfact>
</mgrwt>
</event>
<event>
 4    1  0.7595604E-007  0.7962565E+03  0.7818608E-02  0.9718949E-01
          2   -1    0    0  501    0  0.00000000000E+00  0.00000000000E+00  0.15507700329E+04  0.15507700330E+04  0.25500000000E-02 0. -1.
         -2   -1    0    0    0  501 -0.00000000000E+00 -0.00000000000E+00 -0.27042671655E+03  0.27042671656E+03  0.25500000000E-02 0.  1.
    8880023    1    1    2    0    0 -0.44555850902E+03  0.41131998817E+02  0.62084481617E+03  0.10096894168E+04  0.65864270000E+03 0.  0.
    8880022    1    1    2    0    0  0.44555850902E+03 -0.41131998817E+02  0.65949850023E+03  0.81150733275E+03  0.15294330000E+03 0.  0.
<mgrwt>
<rscale>  0 0.69899674E+03</rscale>
<asrwt>0</asrwt>
<pdfrwt beam="1">  1        2 0.23858001E+00 0.79625651E+03</pdfrwt>
<pdfrwt beam="2">  1       -2 0.41604109E-01 0.79625651E+03</pdfrwt>
<totfact> 0.66131517E+01</totfact>
</mgrwt>
</event>
<event>
 4    1  0.7595604E-007  0.9891999E+03  0.7818608E-02  0.9395826E-01
          2   -1    0    0  501    0  0.00000000000E+00  0.00000000000E+00  0.13844451194E+04  0.13844451194E+04  0.25500000000E-02 0. -1.
         -2   -1    0    0    0  501 -0.00000000000E+00 -0.00000000000E+00 -0.19081122360E+04  0.19081122360E+04  0.25500000000E-02 0.  1.
    8880023    1    1    2    0    0 -0.44034060222E+03 -0.59228919351E+03 -0.16579853289E+04  0.19306558191E+04  0.65864270000E+03 0.  0.
    8880022    1    1    2    0    0  0.44034060222E+03  0.59228919351E+03  0.11343182123E+04  0.13619015363E+04  0.15294330000E+03 0. -1.
<mgrwt>
<rscale>  0 0.92420001E+03</rscale>
<asrwt>0</asrwt>
<pdfrwt beam="1">  1        2 0.21299156E+00 0.98919995E+03</pdfrwt>
<pdfrwt beam="2">  1       -2 0.29355573E+00 0.98919995E+03</pdfrwt>
<totfact> 0.51686286E-01</totfact>
</mgrwt>
</event>
<event>
 4    1  0.7595604E-007  0.9734150E+03  0.7818608E-02  0.9417196E-01
          2   -1    0    0  501    0  0.00000000000E+00  0.00000000000E+00  0.38930365757E+03  0.38930365757E+03  0.25500000000E-02 0. -1.
         -2   -1    0    0    0  501 -0.00000000000E+00 -0.00000000000E+00 -0.24286457042E+04  0.24286457042E+04  0.25500000000E-02 0.  1.
    8880023    1    1    2    0    0  0.55786451366E+03 -0.45001519114E+03 -0.18011002376E+04  0.20473150124E+04  0.65864270000E+03 0.  1.
    8880022    1    1    2    0    0 -0.55786451366E+03  0.45001519114E+03 -0.23824180905E+03  0.77063434939E+03  0.15294330000E+03 0.  0.
<mgrwt>
<rscale>  0 0.90673889E+03</rscale>
<asrwt>0</asrwt>
<pdfrwt beam="1">  1        2 0.59892872E-01 0.97341497E+03</pdfrwt>
<pdfrwt beam="2">  1       -2 0.37363779E+00 0.97341497E+03</pdfrwt>
<totfact> 0.92253487E-01</totfact>
</mgrwt>
</event>
<event>
 4    1  0.7595604E-007  0.6602901E+03  0.7818608E-02  0.1023861E+00
          2   -1    0    0  501    0  0.00000000000E+00  0.00000000000E+00  0.35172699212E+04  0.35172699212E+04  0.25500000000E-02 0. -1.
         -2   -1    0    0    0  501 -0.00000000000E+00 -0.00000000000E+00 -0.86351522365E+02  0.86351522402E+02  0.25500000000E-02 0.  1.
    8880023    1    1    2    0    0  0.15187750973E+02 -0.44069669926E+02  0.12224814724E+04  0.13894041745E+04  0.65864270000E+03 0.  1.
    8880022    1    1    2    0    0 -0.15187750973E+02  0.44069669926E+02  0.22084369264E+04  0.22142172691E+04  0.15294330000E+03 0.  0.
<mgrwt>
<rscale>  0 0.46318625E+03</rscale>
<asrwt>0</asrwt>
<pdfrwt beam="1">  1        2 0.54111830E+00 0.66029010E+03</pdfrwt>
<pdfrwt beam="2">  1       -2 0.13284853E-01 0.66029010E+03</pdfrwt>
<totfact> 0.37152072E+01</totfact>
</mgrwt>
</event>
<event>
 4    1  0.7595604E-007  0.9126215E+03  0.7818608E-02  0.9506066E-01
         -2   -1    0    0    0  501 -0.00000000000E+00  0.00000000000E+00  0.53235359098E+03  0.53235359099E+03  0.25500000000E-02 0.  1.
          2   -1    0    0  501    0  0.00000000000E+00 -0.00000000000E+00 -0.13198120419E+04  0.13198120419E+04  0.25500000000E-02 0. -1.
    8880023    1    1    2    0    0 -0.63170958785E+03  0.32905664847E+01 -0.11992371965E+03  0.92046712924E+03  0.65864270000E+03 0.  1.
    8880022    1    1    2    0    0  0.63170958785E+03 -0.32905664847E+01 -0.66753473122E+03  0.93169850360E+03  0.15294330000E+03 0.  0.
<mgrwt>
<rscale>  0 0.83838049E+03</rscale>
<asrwt>0</asrwt>
<pdfrwt beam="1">  1        2 0.20304801E+00 0.91262152E+03</pdfrwt>
<pdfrwt beam="2">  1       -2 0.81900552E-01 0.91262152E+03</pdfrwt>
<totfact> 0.21183704E+01</totfact>
</mgrwt>
</event>
<event>
 4    1  0.7595604E-007  0.9262281E+03  0.7818608E-02  0.9485175E-01
         -2   -1    0    0    0  501 -0.00000000000E+00  0.00000000000E+00  0.52802857806E+03  0.52802857807E+03  0.25500000000E-02 0.  1.
          2   -1    0    0  501    0  0.00000000000E+00 -0.00000000000E+00 -0.15993599446E+04  0.15993599446E+04  0.25500000000E-02 0. -1.
    8880023    1    1    2    0    0  0.13630320229E+03 -0.63679640178E+03 -0.77589073180E+02  0.92947215710E+03  0.65864270000E+03 0. -1.
    8880022    1    1    2    0    0 -0.13630320229E+03  0.63679640178E+03 -0.99374229333E+03  0.11979163655E+04  0.15294330000E+03 0.  0.
<mgrwt>
<rscale>  0 0.85385699E+03</rscale>
<asrwt>0</asrwt>
<pdfrwt beam="1">  1        2 0.24605537E+00 0.92622806E+03</pdfrwt>
<pdfrwt beam="2">  1       -2 0.81235166E-01 0.92622806E+03</pdfrwt>
<totfact> 0.14981790E+01</totfact>
</mgrwt>
</event>
<event>
 4    1  0.7595604E-007  0.1461760E+04  0.7818608E-02  0.8937121E-01
         -2   -1    0    0    0  501 -0.00000000000E+00  0.00000000000E+00  0.67371856470E+03  0.67371856470E+03  0.25500000000E-02 0.  1.
          2   -1    0    0  501    0  0.00000000000E+00 -0.00000000000E+00 -0.35558321348E+04  0.35558321348E+04  0.25500000000E-02 0. -1.
    8880023    1    1    2    0    0 -0.11824624578E+04 -0.55200961772E+03 -0.56757542546E+03  0.15680829544E+04  0.65864270000E+03 0.  1.
    8880022    1    1    2    0    0  0.11824624578E+04  0.55200961772E+03 -0.23145381446E+04  0.26614677451E+04  0.15294330000E+03 0.  0.
<mgrwt>
<rscale>  0 0.14233029E+04</rscale>
<asrwt>0</asrwt>
<pdfrwt beam="1">  1        2 0.54705109E+00 0.14617600E+04</pdfrwt>
<pdfrwt beam="2">  1       -2 0.10364901E+00 0.14617600E+04</pdfrwt>
<totfact> 0.54411896E-01</totfact>
</mgrwt>
</event>
<event>
 4    1  0.7595604E-007  0.1755253E+04  0.7818608E-02  0.8747701E-01
          2   -1    0    0  501    0  0.00000000000E+00  0.00000000000E+00  0.35113661175E+04  0.35113661175E+04  0.25500000000E-02 0. -1.
         -2   -1    0    0    0  501 -0.00000000000E+00 -0.00000000000E+00 -0.15936435742E+04  0.15936435742E+04  0.25500000000E-02 0.  1.
    8880023    1    1    2    0    0  0.14771262147E+04  0.68205611960E+03  0.27566907053E+04  0.32680661339E+04  0.65864270000E+03 0.  0.
    8880022    1    1    2    0    0 -0.14771262147E+04 -0.68205611960E+03 -0.83896816202E+03  0.18369435578E+04  0.15294330000E+03 0.  0.
<mgrwt>
<rscale>  0 0.17241646E+04</rscale>
<asrwt>0</asrwt>
<pdfrwt beam="1">  1        2 0.54021016E+00 0.17552529E+04</pdfrwt>
<pdfrwt beam="2">  1       -2 0.24517594E+00 0.17552529E+04</pdfrwt>
<totfact> 0.50217386E-02</totfact>
</mgrwt>
</event>
<event>
 4    1  0.7595604E-007  0.7745276E+03  0.7818608E-02  0.9768852E-01
         -2   -1    0    0    0  501 -0.00000000000E+00  0.00000000000E+00  0.21350448134E+03  0.21350448136E+03  0.25500000000E-02 0.  1.
          2   -1    0    0  501    0  0.00000000000E+00 -0.00000000000E+00 -0.31130813223E+04  0.31130813223E+04  0.25500000000E-02 0. -1.
    8880023    1    1    2    0    0 -0.24497383046E+02  0.40679557009E+03 -0.58288246819E+03  0.96935284371E+03  0.65864270000E+03 0.  1.
    8880022    1    1    2    0    0  0.24497383046E+02 -0.40679557009E+03 -0.23166943727E+04  0.23572329599E+04  0.15294330000E+03 0.  0.
<mgrwt>
<rscale>  0 0.67061225E+03</rscale>
<asrwt>0</asrwt>
<pdfrwt beam="1">  1        2 0.47893556E+00 0.77452757E+03</pdfrwt>
<pdfrwt beam="2">  1       -2 0.32846846E-01 0.77452757E+03</pdfrwt>
<totfact> 0.13532272E+01</totfact>
</mgrwt>
</event>
<event>
 4    1  0.7595604E-007  0.6939770E+03  0.7818608E-02  0.1002317E+00
         -2   -1    0    0    0  501 -0.00000000000E+00  0.00000000000E+00  0.16910128694E+03  0.16910128696E+03  0.25500000000E-02 0.  1.
          2   -1    0    0  501    0  0.00000000000E+00 -0.00000000000E+00 -0.18528283219E+04  0.18528283219E+04  0.25500000000E-02 0. -1.
    8880023    1    1    2    0    0 -0.85236137293E+02  0.20131747315E+03 -0.63792675827E+03  0.94263178351E+03  0.65864270000E+03 0.  1.
    8880022    1    1    2    0    0  0.85236137293E+02 -0.20131747315E+03 -0.10458002767E+04  0.10792978254E+04  0.15294330000E+03 0.  0.
<mgrwt>
<rscale>  0 0.54645931E+03</rscale>
<asrwt>0</asrwt>
<pdfrwt beam="1">  1        2 0.28505050E+00 0.69397704E+03</pdfrwt>
<pdfrwt beam="2">  1       -2 0.26015584E-01 0.69397704E+03</pdfrwt>
<totfact> 0.11064922E+02</totfact>
</mgrwt>
</event>
<event>
 4    1  0.7595604E-007  0.1070507E+04  0.7818608E-02  0.9294626E-01
         -2   -1    0    0    0  501 -0.00000000000E+00  0.00000000000E+00  0.10241030874E+04  0.10241030874E+04  0.25500000000E-02 0.  1.
          2   -1    0    0  501    0  0.00000000000E+00 -0.00000000000E+00 -0.18210754097E+04  0.18210754097E+04  0.25500000000E-02 0. -1.
    8880023    1    1    2    0    0  0.82032323340E+03  0.19810228462E+03  0.58408459302E+03  0.12194833908E+04  0.65864270000E+03 0.  1.
    8880022    1    1    2    0    0 -0.82032323340E+03 -0.19810228462E+03 -0.13810569152E+04  0.16256951063E+04  0.15294330000E+03 0.  0.
<mgrwt>
<rscale>  0 0.10127910E+04</rscale>
<asrwt>0</asrwt>
<pdfrwt beam="1">  1        2 0.28016545E+00 0.10705069E+04</pdfrwt>
<pdfrwt beam="2">  1       -2 0.15755432E+00 0.10705069E+04</pdfrwt>
<totfact> 0.21765285E+00</totfact>
</mgrwt>
</event>
<event>
 4    1  0.7595604E-007  0.7372273E+03  0.7818608E-02  0.9868099E-01
          2   -1    0    0  501    0  0.00000000000E+00  0.00000000000E+00  0.20367577735E+04  0.20367577735E+04  0.25500000000E-02 0. -1.
         -2   -1    0    0    0  501 -0.00000000000E+00 -0.00000000000E+00 -0.40683835310E+03  0.40683835311E+03  0.25500000000E-02 0.  1.
    8880023    1    1    2    0    0  0.31528220417E+03 -0.10144469577E+03 -0.36092712531E+02  0.73811027952E+03  0.65864270000E+03 0.  1.
    8880022    1    1    2    0    0 -0.31528220417E+03  0.10144469577E+03  0.16660121329E+04  0.17054858471E+04  0.15294330000E+03 0.  0.
<mgrwt>
<rscale>  0 0.61832588E+03</rscale>
<asrwt>0</asrwt>
<pdfrwt beam="1">  1        2 0.31334735E+00 0.73722731E+03</pdfrwt>
<pdfrwt beam="2">  1       -2 0.62590516E-01 0.73722731E+03</pdfrwt>
<totfact> 0.15652737E+01</totfact>
</mgrwt>
</event>
<event>
 4    1  0.7595604E-007  0.1141015E+04  0.7818608E-02  0.9216708E-01
          2   -1    0    0  501    0  0.00000000000E+00  0.00000000000E+00  0.16679029898E+04  0.16679029898E+04  0.25500000000E-02 0. -1.
         -2   -1    0    0    0  501 -0.00000000000E+00 -0.00000000000E+00 -0.75549239569E+03  0.75549239570E+03  0.25500000000E-02 0.  1.
    8880023    1    1    2    0    0 -0.89181046427E+03  0.26977661149E+03  0.94067957725E+03  0.14787811189E+04  0.65864270000E+03 0. -1.
    8880022    1    1    2    0    0  0.89181046427E+03 -0.26977661149E+03 -0.28268983112E+02  0.94461426663E+03  0.15294330000E+03 0.  0.
<mgrwt>
<rscale>  0 0.10882622E+04</rscale>
<asrwt>0</asrwt>
<pdfrwt beam="1">  1        2 0.25660046E+00 0.11410151E+04</pdfrwt>
<pdfrwt beam="2">  1       -2 0.11622960E+00 0.11410151E+04</pdfrwt>
<totfact> 0.57595520E+00</totfact>
</mgrwt>
</event>
<event>
 4    1  0.7595604E-007  0.7073884E+03  0.7818608E-02  0.9967830E-01
         -2   -1    0    0    0  501 -0.00000000000E+00  0.00000000000E+00  0.11601804511E+04  0.11601804511E+04  0.25500000000E-02 0.  1.
          2   -1    0    0  501    0  0.00000000000E+00 -0.00000000000E+00 -0.24089923793E+03  0.24089923794E+03  0.25500000000E-02 0. -1.
    8880023    1    1    2    0    0 -0.21731807564E+03 -0.13914397717E+03  0.82477469728E+03  0.10865779769E+04  0.65864270000E+03 0.  1.
    8880022    1    1    2    0    0  0.21731807564E+03  0.13914397717E+03  0.94506515932E+02  0.31450171216E+03  0.15294330000E+03 0. -1.
<mgrwt>
<rscale>  0 0.57083635E+03</rscale>
<asrwt>0</asrwt>
<pdfrwt beam="1">  1        2 0.37061420E-01 0.70738844E+03</pdfrwt>
<pdfrwt beam="2">  1       -2 0.17848930E+00 0.70738844E+03</pdfrwt>
<totfact> 0.26500979E+01</totfact>
</mgrwt>
</event>
<event>
 4    1  0.7595604E-007  0.8049752E+03  0.7818608E-02  0.9700140E-01
         -2   -1    0    0    0  501 -0.00000000000E+00  0.00000000000E+00  0.36789402238E+03  0.36789402239E+03  0.25500000000E-02 0.  1.
          2   -1    0    0  501    0  0.00000000000E+00 -0.00000000000E+00 -0.11458040919E+04  0.11458040919E+04  0.25500000000E-02 0. -1.
    8880023    1    1    2    0    0 -0.44435034413E+03 -0.12933547066E+03 -0.41240264199E+03  0.90446726733E+03  0.65864270000E+03 0.  1.
    8880022    1    1    2    0    0  0.44435034413E+03  0.12933547066E+03 -0.36550742756E+03  0.60923084698E+03  0.15294330000E+03 0. -1.
<mgrwt>
<rscale>  0 0.71008452E+03</rscale>
<asrwt>0</asrwt>
<pdfrwt beam="1">  1        2 0.17627755E+00 0.80497522E+03</pdfrwt>
<pdfrwt beam="2">  1       -2 0.56599081E-01 0.80497522E+03</pdfrwt>
<totfact> 0.60509466E+01</totfact>
</mgrwt>
</event>
<event>
 4    1  0.7595604E-007  0.6678190E+03  0.7818608E-02  0.1017277E+00
          2   -1    0    0  501    0  0.00000000000E+00  0.00000000000E+00  0.12907380532E+04  0.12907380532E+04  0.25500000000E-02 0. -1.
         -2   -1    0    0    0  501 -0.00000000000E+00 -0.00000000000E+00 -0.25243136773E+03  0.25243136775E+03  0.25500000000E-02 0.  1.
    8880023    1    1    2    0    0 -0.10252907793E+03 -0.40741208545E+02  0.21956100401E+03  0.70298598751E+03  0.65864270000E+03 0.  1.
    8880022    1    1    2    0    0  0.10252907793E+03  0.40741208545E+02  0.81874568142E+03  0.84018343340E+03  0.15294330000E+03 0.  0.
<mgrwt>
<rscale>  0 0.48682176E+03</rscale>
<asrwt>0</asrwt>
<pdfrwt beam="1">  1        2 0.19857509E+00 0.66781904E+03</pdfrwt>
<pdfrwt beam="2">  1       -2 0.38835595E-01 0.66781904E+03</pdfrwt>
<totfact> 0.10728876E+02</totfact>
</mgrwt>
</event>
<event>
 4    1  0.7595604E-007  0.1201174E+04  0.7818608E-02  0.9155982E-01
         -2   -1    0    0    0  501 -0.00000000000E+00  0.00000000000E+00  0.67876978757E+03  0.67876978757E+03  0.25500000000E-02 0.  1.
          2   -1    0    0  501    0  0.00000000000E+00 -0.00000000000E+00 -0.26645484349E+04  0.26645484349E+04  0.25500000000E-02 0. -1.
    8880023    1    1    2    0    0  0.22247243768E+03 -0.97954783863E+03 -0.10516168503E+03  0.12057682779E+04  0.65864270000E+03 0.  0.
    8880022    1    1    2    0    0 -0.22247243768E+03  0.97954783863E+03 -0.18806169623E+04  0.21375499446E+04  0.15294330000E+03 0.  0.
<mgrwt>
<rscale>  0 0.11519545E+04</rscale>
<asrwt>0</asrwt>
<pdfrwt beam="1">  1        2 0.40993052E+00 0.12011737E+04</pdfrwt>
<pdfrwt beam="2">  1       -2 0.10442612E+00 0.12011737E+04</pdfrwt>
<totfact> 0.20444849E+00</totfact>
</mgrwt>
</event>
<event>
 4    1  0.7595604E-007  0.7086702E+03  0.7818608E-02  0.9962973E-01
         -2   -1    0    0    0  501 -0.00000000000E+00  0.00000000000E+00  0.83777152286E+03  0.83777152286E+03  0.25500000000E-02 0.  1.
          2   -1    0    0  501    0  0.00000000000E+00 -0.00000000000E+00 -0.74962227920E+03  0.74962227920E+03  0.25500000000E-02 0. -1.
    8880023    1    1    2    0    0 -0.25763288006E+03 -0.45038721904E+02  0.64190854861E+03  0.95616942976E+03  0.65864270000E+03 0.  0.
    8880022    1    1    2    0    0  0.25763288006E+03  0.45038721904E+02 -0.55375930495E+03  0.63122437231E+03  0.15294330000E+03 0.  0.
<mgrwt>
<rscale>  0 0.57304060E+03</rscale>
<asrwt>0</asrwt>
<pdfrwt beam="1">  1        2 0.11532650E+00 0.70867016E+03</pdfrwt>
<pdfrwt beam="2">  1       -2 0.12888793E+00 0.70867016E+03</pdfrwt>
<totfact> 0.16968614E+01</totfact>
</mgrwt>
</event>
<event>
 4    1  0.7595604E-007  0.9982845E+03  0.7818608E-02  0.9383806E-01
         -2   -1    0    0    0  501 -0.00000000000E+00  0.00000000000E+00  0.24554267375E+04  0.24554267375E+04  0.25500000000E-02 0.  1.
          2   -1    0    0  501    0  0.00000000000E+00 -0.00000000000E+00 -0.66599904345E+03  0.66599904345E+03  0.25500000000E-02 0. -1.
    8880023    1    1    2    0    0 -0.72441572826E+03 -0.19489375089E+03  0.20763134925E+04  0.23038336847E+04  0.65864270000E+03 0.  1.
    8880022    1    1    2    0    0  0.72441572826E+03  0.19489375089E+03 -0.28688579843E+03  0.81759209624E+03  0.15294330000E+03 0.  0.
<mgrwt>
<rscale>  0 0.93420492E+03</rscale>
<asrwt>0</asrwt>
<pdfrwt beam="1">  1        2 0.10246139E+00 0.99828449E+03</pdfrwt>
<pdfrwt beam="2">  1       -2 0.37775796E+00 0.99828449E+03</pdfrwt>
<totfact> 0.45911695E-01</totfact>
</mgrwt>
</event>
<event>
 4    1  0.7595604E-007  0.1053744E+04  0.7818608E-02  0.9314395E-01
         -2   -1    0    0    0  501 -0.00000000000E+00  0.00000000000E+00  0.63499045695E+03  0.63499045695E+03  0.25500000000E-02 0.  1.
          2   -1    0    0  501    0  0.00000000000E+00 -0.00000000000E+00 -0.22182576826E+04  0.22182576826E+04  0.25500000000E-02 0. -1.
    8880023    1    1    2    0    0  0.47649073442E+03 -0.67046390516E+03  0.98722554456E+01  0.10537897968E+04  0.65864270000E+03 0.  1.
    8880022    1    1    2    0    0 -0.47649073442E+03  0.67046390516E+03 -0.15931394810E+04  0.17994583427E+04  0.15294330000E+03 0.  0.
<mgrwt>
<rscale>  0 0.99468395E+03</rscale>
<asrwt>0</asrwt>
<pdfrwt beam="1">  1        2 0.34127041E+00 0.10537436E+04</pdfrwt>
<pdfrwt beam="2">  1       -2 0.97690841E-01 0.10537436E+04</pdfrwt>
<totfact> 0.43891720E+00</totfact>
</mgrwt>
</event>
<event>
 4    1  0.7595604E-007  0.9810899E+03  0.7818608E-02  0.9406727E-01
          2   -1    0    0  501    0  0.00000000000E+00  0.00000000000E+00  0.12004143825E+04  0.12004143825E+04  0.25500000000E-02 0. -1.
         -2   -1    0    0    0  501 -0.00000000000E+00 -0.00000000000E+00 -0.65787566863E+03  0.65787566864E+03  0.25500000000E-02 0.  1.
    8880023    1    1    2    0    0 -0.60646130527E+03  0.40116304077E+03  0.82936061251E+02  0.98458910038E+03  0.65864270000E+03 0.  0.
    8880022    1    1    2    0    0  0.60646130527E+03 -0.40116304077E+03  0.45960265264E+03  0.87370095079E+03  0.15294330000E+03 0.  0.
<mgrwt>
<rscale>  0 0.91524139E+03</rscale>
<asrwt>0</asrwt>
<pdfrwt beam="1">  1        2 0.18467913E+00 0.98108986E+03</pdfrwt>
<pdfrwt beam="2">  1       -2 0.10121164E+00 0.98108986E+03</pdfrwt>
<totfact> 0.15129324E+01</totfact>
</mgrwt>
</event>
<event>
 4    1  0.7595604E-007  0.6708653E+03  0.7818608E-02  0.1015050E+00
          2   -1    0    0  501    0  0.00000000000E+00  0.00000000000E+00  0.64997861837E+03  0.64997861838E+03  0.25500000000E-02 0. -1.
         -2   -1    0    0    0  501 -0.00000000000E+00 -0.00000000000E+00 -0.79717590750E+03  0.79717590751E+03  0.25500000000E-02 0.  1.
    8880023    1    1    2    0    0 -0.12592800242E+03  0.19802278656E+02 -0.63285972145E+03  0.92226440099E+03  0.65864270000E+03 0.  1.
    8880022    1    1    2    0    0  0.12592800242E+03 -0.19802278656E+02  0.48566243232E+03  0.52489012490E+03  0.15294330000E+03 0.  0.
<mgrwt>
<rscale>  0 0.49515987E+03</rscale>
<asrwt>0</asrwt>
<pdfrwt beam="1">  1        2 0.99996711E-01 0.67086526E+03</pdfrwt>
<pdfrwt beam="2">  1       -2 0.12264245E+00 0.67086526E+03</pdfrwt>
<totfact> 0.23087995E+01</totfact>
</mgrwt>
</event>
<event>
 4    1  0.7595604E-007  0.7263031E+03  0.7818608E-02  0.9901808E-01
          2   -1    0    0  501    0  0.00000000000E+00  0.00000000000E+00  0.32403216447E+04  0.32403216447E+04  0.25500000000E-02 0. -1.
         -2   -1    0    0    0  501 -0.00000000000E+00 -0.00000000000E+00 -0.18192924426E+03  0.18192924428E+03  0.25500000000E-02 0.  1.
    8880023    1    1    2    0    0 -0.62692501654E+02 -0.29962575343E+03  0.60546836782E+03  0.94557289120E+03  0.65864270000E+03 0.  1.
    8880022    1    1    2    0    0  0.62692501654E+02  0.29962575343E+03  0.24529240326E+04  0.24766779978E+04  0.15294330000E+03 0.  0.
<mgrwt>
<rscale>  0 0.60173726E+03</rscale>
<asrwt>0</asrwt>
<pdfrwt beam="1">  1        2 0.49851099E+00 0.72630307E+03</pdfrwt>
<pdfrwt beam="2">  1       -2 0.27989116E-01 0.72630307E+03</pdfrwt>
<totfact> 0.15263936E+01</totfact>
</mgrwt>
</event>
<event>
 4    1  0.7595604E-007  0.6623858E+03  0.7818608E-02  0.1021835E+00
         -2   -1    0    0    0  501 -0.00000000000E+00  0.00000000000E+00  0.40148876408E+03  0.40148876409E+03  0.25500000000E-02 0.  1.
          2   -1    0    0  501    0  0.00000000000E+00 -0.00000000000E+00 -0.78531382486E+03  0.78531382487E+03  0.25500000000E-02 0. -1.
    8880023    1    1    2    0    0  0.70049562868E+02  0.61528479242E+01  0.10422710658E+03  0.67053582664E+03  0.65864270000E+03 0.  1.
    8880022    1    1    2    0    0 -0.70049562868E+02 -0.61528479242E+01 -0.48805216736E+03  0.51626676232E+03  0.15294330000E+03 0.  0.
<mgrwt>
<rscale>  0 0.47030161E+03</rscale>
<asrwt>0</asrwt>
<pdfrwt beam="1">  1        2 0.12081751E+00 0.66238584E+03</pdfrwt>
<pdfrwt beam="2">  1       -2 0.61767502E-01 0.66238584E+03</pdfrwt>
<totfact> 0.87604891E+01</totfact>
</mgrwt>
</event>
<event>
 4    1  0.7595604E-007  0.6789973E+03  0.7818608E-02  0.1009897E+00
          2   -1    0    0  501    0  0.00000000000E+00  0.00000000000E+00  0.15300496319E+04  0.15300496319E+04  0.25500000000E-02 0. -1.
         -2   -1    0    0    0  501 -0.00000000000E+00 -0.00000000000E+00 -0.18878317680E+03  0.18878317682E+03  0.25500000000E-02 0.  1.
    8880023    1    1    2    0    0  0.94814705924E+02  0.13504539685E+03  0.48739421807E+03  0.83581721551E+03  0.65864270000E+03 0.  1.
    8880022    1    1    2    0    0 -0.94814705924E+02 -0.13504539685E+03  0.85387223707E+03  0.88301559325E+03  0.15294330000E+03 0.  0.
<mgrwt>
<rscale>  0 0.51515740E+03</rscale>
<asrwt>0</asrwt>
<pdfrwt beam="1">  1        2 0.23539225E+00 0.67899727E+03</pdfrwt>
<pdfrwt beam="2">  1       -2 0.29043566E-01 0.67899727E+03</pdfrwt>
<totfact> 0.13604290E+02</totfact>
</mgrwt>
</event>
<event>
 4    1  0.7595604E-007  0.7393960E+03  0.7818608E-02  0.9861710E-01
         -2   -1    0    0    0  501 -0.00000000000E+00  0.00000000000E+00  0.83115708539E+03  0.83115708540E+03  0.25500000000E-02 0.  1.
          2   -1    0    0  501    0  0.00000000000E+00 -0.00000000000E+00 -0.38851235770E+03  0.38851235771E+03  0.25500000000E-02 0. -1.
    8880023    1    1    2    0    0  0.67433603772E+02 -0.32916393593E+03  0.41871540948E+03  0.84972288897E+03  0.65864270000E+03 0. -1.
    8880022    1    1    2    0    0 -0.67433603772E+02  0.32916393593E+03  0.23929318214E+02  0.36994655414E+03  0.15294330000E+03 0.  1.
<mgrwt>
<rscale>  0 0.62153408E+03</rscale>
<asrwt>0</asrwt>
<pdfrwt beam="1">  1        2 0.59771133E-01 0.73939597E+03</pdfrwt>
<pdfrwt beam="2">  1       -2 0.12787032E+00 0.73939597E+03</pdfrwt>
<totfact> 0.37670323E+01</totfact>
</mgrwt>
</event>
<event>
 4    1  0.7595604E-007  0.7589431E+03  0.7818608E-02  0.9807851E-01
          2   -1    0    0  501    0  0.00000000000E+00  0.00000000000E+00  0.62397375030E+03  0.62397375031E+03  0.25500000000E-02 0. -1.
         -2   -1    0    0    0  501 -0.00000000000E+00 -0.00000000000E+00 -0.93078556600E+03  0.93078556600E+03  0.25500000000E-02 0.  1.
    8880023    1    1    2    0    0  0.36456426771E+03 -0.96319224381E+02 -0.66771441694E+03  0.10108596575E+04  0.65864270000E+03 0.  1.
    8880022    1    1    2    0    0 -0.36456426771E+03  0.96319224381E+02  0.36090260124E+03  0.54389965883E+03  0.15294330000E+03 0.  0.
<mgrwt>
<rscale>  0 0.64942897E+03</rscale>
<asrwt>0</asrwt>
<pdfrwt beam="1">  1        2 0.95995962E-01 0.75894315E+03</pdfrwt>
<pdfrwt beam="2">  1       -2 0.14319778E+00 0.75894315E+03</pdfrwt>
<totfact> 0.16223693E+01</totfact>
</mgrwt>
</event>
<event>
 4    1  0.7595604E-007  0.8107012E+03  0.7818608E-02  0.9688118E-01
         -2   -1    0    0    0  501 -0.00000000000E+00  0.00000000000E+00  0.23639180377E+04  0.23639180377E+04  0.25500000000E-02 0.  1.
          2   -1    0    0  501    0  0.00000000000E+00 -0.00000000000E+00 -0.40138484277E+03  0.40138484278E+03  0.25500000000E-02 0. -1.
    8880023    1    1    2    0    0  0.48673739238E+02  0.47016703815E+03  0.20989781089E+04  0.22500989944E+04  0.65864270000E+03 0.  0.
    8880022    1    1    2    0    0 -0.48673739238E+02 -0.47016703815E+03 -0.13644491399E+03  0.51520388607E+03  0.15294330000E+03 0.  0.
<mgrwt>
<rscale>  0 0.71728651E+03</rscale>
<asrwt>0</asrwt>
<pdfrwt beam="1">  1        2 0.61751513E-01 0.81070117E+03</pdfrwt>
<pdfrwt beam="2">  1       -2 0.36367971E+00 0.81070117E+03</pdfrwt>
<totfact> 0.10553354E+00</totfact>
</mgrwt>
</event>
<event>
 4    1  0.7595604E-007  0.1013046E+04  0.7818608E-02  0.9364684E-01
          2   -1    0    0  501    0  0.00000000000E+00  0.00000000000E+00  0.22776159688E+04  0.22776159688E+04  0.25500000000E-02 0. -1.
         -2   -1    0    0    0  501 -0.00000000000E+00 -0.00000000000E+00 -0.67501815014E+03  0.67501815014E+03  0.25500000000E-02 0.  1.
    8880023    1    1    2    0    0 -0.45524694648E+02  0.76836220359E+03 -0.15777926554E+03  0.10252597118E+04  0.65864270000E+03 0.  1.
    8880022    1    1    2    0    0  0.45524694648E+02 -0.76836220359E+03  0.17603770842E+04  0.19273744071E+04  0.15294330000E+03 0. -1.
<mgrwt>
<rscale>  0 0.95039890E+03</rscale>
<asrwt>0</asrwt>
<pdfrwt beam="1">  1        2 0.35040246E+00 0.10130465E+04</pdfrwt>
<pdfrwt beam="2">  1       -2 0.10384894E+00 0.10130465E+04</pdfrwt>
<totfact> 0.35326216E+00</totfact>
</mgrwt>
</event>
<event>
 4    1  0.7595604E-007  0.8836856E+03  0.7818608E-02  0.9552746E-01
          2   -1    0    0  501    0  0.00000000000E+00  0.00000000000E+00  0.11687460440E+04  0.11687460440E+04  0.25500000000E-02 0. -1.
         -2   -1    0    0    0  501 -0.00000000000E+00 -0.00000000000E+00 -0.97688794440E+03  0.97688794440E+03  0.25500000000E-02 0.  1.
    8880023    1    1    2    0    0  0.46981961871E+03  0.35547088346E+03 -0.65696197981E+03  0.11011354468E+04  0.65864270000E+03 0.  0.
    8880022    1    1    2    0    0 -0.46981961871E+03 -0.35547088346E+03  0.84882007941E+03  0.10444985416E+04  0.15294330000E+03 0.  0.
<mgrwt>
<rscale>  0 0.80504318E+03</rscale>
<asrwt>0</asrwt>
<pdfrwt beam="1">  1        2 0.17980708E+00 0.88368559E+03</pdfrwt>
<pdfrwt beam="2">  1       -2 0.15029045E+00 0.88368559E+03</pdfrwt>
<totfact> 0.59183093E+00</totfact>
</mgrwt>
</event>
<event>
 4    1  0.7595604E-007  0.7141084E+03  0.7818608E-02  0.9943050E-01
         -2   -1    0    0    0  501 -0.00000000000E+00  0.00000000000E+00  0.48045560553E+03  0.48045560553E+03  0.25500000000E-02 0.  1.
          2   -1    0    0  501    0  0.00000000000E+00 -0.00000000000E+00 -0.25686996911E+04  0.25686996911E+04  0.25500000000E-02 0. -1.
    8880023    1    1    2    0    0  0.25800506639E+03 -0.97846847329E+02  0.19815614092E+03  0.74109154783E+03  0.65864270000E+03 0.  1.
    8880022    1    1    2    0    0 -0.25800506639E+03  0.97846847329E+02 -0.22864002265E+04  0.23080637488E+04  0.15294330000E+03 0.  0.
<mgrwt>
<rscale>  0 0.58219518E+03</rscale>
<asrwt>0</asrwt>
<pdfrwt beam="1">  1        2 0.39518456E+00 0.71410841E+03</pdfrwt>
<pdfrwt beam="2">  1       -2 0.73916248E-01 0.71410841E+03</pdfrwt>
<totfact> 0.55429992E+00</totfact>
</mgrwt>
</event>
<event>
 4    1  0.7595604E-007  0.7684914E+03  0.7818608E-02  0.9783600E-01
          2   -1    0    0  501    0  0.00000000000E+00  0.00000000000E+00  0.11998618680E+04  0.11998618680E+04  0.25500000000E-02 0. -1.
         -2   -1    0    0    0  501 -0.00000000000E+00 -0.00000000000E+00 -0.30725997891E+03  0.30725997892E+03  0.25500000000E-02 0.  1.
    8880023    1    1    2    0    0 -0.37160717642E+02  0.39419279337E+03  0.43537772086E+03  0.88325129118E+03  0.65864270000E+03 0.  0.
    8880022    1    1    2    0    0  0.37160717642E+02 -0.39419279337E+03  0.45722416820E+03  0.62387055571E+03  0.15294330000E+03 0.  1.
<mgrwt>
<rscale>  0 0.66250129E+03</rscale>
<asrwt>0</asrwt>
<pdfrwt beam="1">  1        2 0.18459413E+00 0.76849143E+03</pdfrwt>
<pdfrwt beam="2">  1       -2 0.47270767E-01 0.76849143E+03</pdfrwt>
<totfact> 0.81517160E+01</totfact>
</mgrwt>
</event>
<event>
 4    1  0.7595604E-007  0.1018675E+04  0.7818608E-02  0.9357523E-01
          2   -1    0    0  501    0  0.00000000000E+00  0.00000000000E+00  0.75079688641E+03  0.75079688642E+03  0.25500000000E-02 0. -1.
         -2   -1    0    0    0  501 -0.00000000000E+00 -0.00000000000E+00 -0.13814206556E+04  0.13814206556E+04  0.25500000000E-02 0.  1.
    8880023    1    1    2    0    0 -0.35021520964E+03 -0.69371273502E+03 -0.83170698176E+03  0.13150797548E+04  0.65864270000E+03 0.  0.
    8880022    1    1    2    0    0  0.35021520964E+03  0.69371273502E+03  0.20108321260E+03  0.81713778716E+03  0.15294330000E+03 0.  0.
<mgrwt>
<rscale>  0 0.95655360E+03</rscale>
<asrwt>0</asrwt>
<pdfrwt beam="1">  1        2 0.11550721E+00 0.10186748E+04</pdfrwt>
<pdfrwt beam="2">  1       -2 0.21252625E+00 0.10186748E+04</pdfrwt>
<totfact> 0.40981457E+00</totfact>
</mgrwt>
</event>
<event>
 4    1  0.1237842E-006  0.8553806E+03  0.7818608E-02  0.9601834E-01
          2   -1    0    0  501    0  0.00000000000E+00  0.00000000000E+00  0.36026026691E+04  0.36026026691E+04  0.25500000000E-02 0. -1.
         -2   -1    0    0    0  501 -0.00000000000E+00 -0.00000000000E+00 -0.10753552428E+04  0.10753552428E+04  0.25500000000E-02 0.  1.
    8880023    1    1    2    0    0 -0.31188598511E+02  0.54487889282E+03 -0.87804246313E+03  0.12258199337E+04  0.65864270000E+03 0.  1.
    8880022    1    1    2    0    0  0.31188598511E+02 -0.54487889282E+03  0.34052898895E+04  0.34521379782E+04  0.15294330000E+03 0.  0.
<mgrwt>
<rscale>  0 0.77174919E+03</rscale>
<asrwt>0</asrwt>
<pdfrwt beam="1">  1        2 0.55424656E+00 0.85538058E+03</pdfrwt>
<pdfrwt beam="2">  1       -2 0.16543927E+00 0.85538058E+03</pdfrwt>
<totfact> 0.16864824E-01</totfact>
</mgrwt>
</event>
<event>
 4    1  0.7595604E-007  0.7876439E+03  0.7818608E-02  0.9738178E-01
         -2   -1    0    0    0  501 -0.00000000000E+00  0.00000000000E+00  0.25351324964E+03  0.25351324965E+03  0.25500000000E-02 0.  1.
          2   -1    0    0  501    0  0.00000000000E+00 -0.00000000000E+00 -0.37358200016E+04  0.37358200016E+04  0.25500000000E-02 0. -1.
    8880023    1    1    2    0    0 -0.43064994245E+03 -0.33366343944E+02 -0.41940767665E+03  0.89234841365E+03  0.65864270000E+03 0.  1.
    8880022    1    1    2    0    0  0.43064994245E+03  0.33366343944E+02 -0.30628990753E+04  0.30969848376E+04  0.15294330000E+03 0.  0.
<mgrwt>
<rscale>  0 0.68788466E+03</rscale>
<asrwt>0</asrwt>
<pdfrwt beam="1">  1        2 0.57474150E+00 0.78764389E+03</pdfrwt>
<pdfrwt beam="2">  1       -2 0.39002041E-01 0.78764389E+03</pdfrwt>
<totfact> 0.37048188E+00</totfact>
</mgrwt>
</event>
<event>
 4    1  0.7595604E-007  0.8344102E+03  0.7818608E-02  0.9640812E-01
         -2   -1    0    0    0  501 -0.00000000000E+00  0.00000000000E+00  0.88565983511E+03  0.88565983512E+03  0.25500000000E-02 0.  1.
          2   -1    0    0  501    0  0.00000000000E+00 -0.00000000000E+00 -0.13460499681E+04  0.13460499681E+04  0.25500000000E-02 0. -1.
    8880023    1    1    2    0    0 -0.50955309915E+03 -0.52781530150E+02  0.61109569804E+03  0.10342525848E+04  0.65864270000E+03 0.  1.
    8880022    1    1    2    0    0  0.50955309915E+03  0.52781530150E+02 -0.10714858310E+04  0.11974572184E+04  0.15294330000E+03 0.  0.
<mgrwt>
<rscale>  0 0.74652896E+03</rscale>
<asrwt>0</asrwt>
<pdfrwt beam="1">  1        2 0.20708461E+00 0.83441025E+03</pdfrwt>
<pdfrwt beam="2">  1       -2 0.13625536E+00 0.83441025E+03</pdfrwt>
<totfact> 0.60566513E+00</totfact>
</mgrwt>
</event>
<event>
 4    1  0.7595604E-007  0.7159275E+03  0.7818608E-02  0.9936615E-01
          2   -1    0    0  501    0  0.00000000000E+00  0.00000000000E+00  0.11356120603E+04  0.11356120603E+04  0.25500000000E-02 0. -1.
         -2   -1    0    0    0  501 -0.00000000000E+00 -0.00000000000E+00 -0.25952580612E+03  0.25952580613E+03  0.25500000000E-02 0.  1.
    8880023    1    1    2    0    0 -0.24574098534E+02 -0.27953197321E+03  0.39525639329E+03  0.81778960195E+03  0.65864270000E+03 0.  1.
    8880022    1    1    2    0    0  0.24574098534E+02  0.27953197321E+03  0.48082986092E+03  0.57734826451E+03  0.15294330000E+03 0.  0.
<mgrwt>
<rscale>  0 0.58519136E+03</rscale>
<asrwt>0</asrwt>
<pdfrwt beam="1">  1        2 0.17470955E+00 0.71592752E+03</pdfrwt>
<pdfrwt beam="2">  1       -2 0.39927047E-01 0.71592752E+03</pdfrwt>
<totfact> 0.12493754E+02</totfact>
</mgrwt>
</event>
<event>
 4    1  0.7595604E-007  0.6843459E+03  0.7818608E-02  0.1006965E+00
          2   -1    0    0  501    0  0.00000000000E+00  0.00000000000E+00  0.17100080346E+04  0.17100080346E+04  0.25500000000E-02 0. -1.
         -2   -1    0    0    0  501 -0.00000000000E+00 -0.00000000000E+00 -0.15137938344E+03  0.15137938347E+03  0.25500000000E-02 0.  1.
    8880023    1    1    2    0    0 -0.15127972848E+03  0.10785922554E+03  0.73916740637E+03  0.10073221082E+04  0.65864270000E+03 0.  1.
    8880022    1    1    2    0    0  0.15127972848E+03 -0.10785922554E+03  0.81946124482E+03  0.85406530989E+03  0.15294330000E+03 0.  0.
<mgrwt>
<rscale>  0 0.52698923E+03</rscale>
<asrwt>0</asrwt>
<pdfrwt beam="1">  1        2 0.26307816E+00 0.68434595E+03</pdfrwt>
<pdfrwt beam="2">  1       -2 0.23289136E-01 0.68434595E+03</pdfrwt>
<totfact> 0.16163405E+02</totfact>
</mgrwt>
</event>
<event>
 4    1  0.7595604E-007  0.7401017E+03  0.7818608E-02  0.9859651E-01
         -2   -1    0    0    0  501 -0.00000000000E+00  0.00000000000E+00  0.51909933631E+03  0.51909933632E+03  0.25500000000E-02 0.  1.
          2   -1    0    0  501    0  0.00000000000E+00 -0.00000000000E+00 -0.18872816147E+04  0.18872816147E+04  0.25500000000E-02 0. -1.
    8880023    1    1    2    0    0  0.46174232682E+01 -0.33751887032E+03  0.22271990914E+03  0.77288723150E+03  0.65864270000E+03 0.  1.
    8880022    1    1    2    0    0 -0.46174232682E+01  0.33751887032E+03 -0.15909021875E+04  0.16334937195E+04  0.15294330000E+03 0.  0.
<mgrwt>
<rscale>  0 0.62257260E+03</rscale>
<asrwt>0</asrwt>
<pdfrwt beam="1">  1        2 0.29035101E+00 0.74010169E+03</pdfrwt>
<pdfrwt beam="2">  1       -2 0.79861437E-01 0.74010169E+03</pdfrwt>
<totfact> 0.11075559E+01</totfact>
</mgrwt>
</event>
<event>
 4    1  0.7595604E-007  0.9424010E+03  0.7818608E-02  0.9461133E-01
         -2   -1    0    0    0  501 -0.00000000000E+00  0.00000000000E+00  0.40252982341E+04  0.40252982341E+04  0.25500000000E-02 0.  1.
          2   -1    0    0  501    0  0.00000000000E+00 -0.00000000000E+00 -0.76175558541E+03  0.76175558541E+03  0.25500000000E-02 0. -1.
    8880023    1    1    2    0    0  0.26536135672E+03 -0.61959084432E+03  0.37981163527E+04  0.39132860231E+04  0.65864270000E+03 0.  0.
    8880022    1    1    2    0    0 -0.26536135672E+03  0.61959084432E+03 -0.53457370399E+03  0.87376779639E+03  0.15294330000E+03 0.  0.
<mgrwt>
<rscale>  0 0.87211015E+03</rscale>
<asrwt>0</asrwt>
<pdfrwt beam="1">  1        2 0.11719317E+00 0.94240101E+03</pdfrwt>
<pdfrwt beam="2">  1       -2 0.61927666E+00 0.94240101E+03</pdfrwt>
<totfact> 0.15613772E-02</totfact>
</mgrwt>
</event>
<event>
 4    1  0.7595604E-007  0.6868067E+03  0.7818608E-02  0.1005709E+00
         -2   -1    0    0    0  501 -0.00000000000E+00  0.00000000000E+00  0.93562266015E+03  0.93562266015E+03  0.25500000000E-02 0.  1.
          2   -1    0    0  501    0  0.00000000000E+00 -0.00000000000E+00 -0.38956188647E+03  0.38956188648E+03  0.25500000000E-02 0. -1.
    8880023    1    1    2    0    0  0.18776980892E+03 -0.51339957216E+02  0.74081398895E+03  0.10102023881E+04  0.65864270000E+03 0.  1.
    8880022    1    1    2    0    0 -0.18776980892E+03  0.51339957216E+02 -0.19475321527E+03  0.31498215858E+03  0.15294330000E+03 0.  0.
<mgrwt>
<rscale>  0 0.53216357E+03</rscale>
<asrwt>0</asrwt>
<pdfrwt beam="1">  1        2 0.59932599E-01 0.68680674E+03</pdfrwt>
<pdfrwt beam="2">  1       -2 0.14394195E+00 0.68680674E+03</pdfrwt>
<totfact> 0.27843615E+01</totfact>
</mgrwt>
</event>
<event>
 4    1  0.7595604E-007  0.8417203E+03  0.7818608E-02  0.9626945E-01
          2   -1    0    0  501    0  0.00000000000E+00  0.00000000000E+00  0.15918099435E+04  0.15918099435E+04  0.25500000000E-02 0. -1.
         -2   -1    0    0    0  501 -0.00000000000E+00 -0.00000000000E+00 -0.10021285168E+04  0.10021285168E+04  0.25500000000E-02 0.  1.
    8880023    1    1    2    0    0  0.52395141831E+03  0.12559592065E+02 -0.76247456922E+03  0.11357202592E+04  0.65864270000E+03 0.  1.
    8880022    1    1    2    0    0 -0.52395141831E+03 -0.12559592065E+02  0.13521559959E+04  0.14582182012E+04  0.15294330000E+03 0.  0.
<mgrwt>
<rscale>  0 0.75538168E+03</rscale>
<asrwt>0</asrwt>
<pdfrwt beam="1">  1        2 0.24489384E+00 0.84172029E+03</pdfrwt>
<pdfrwt beam="2">  1       -2 0.15417362E+00 0.84172029E+03</pdfrwt>
<totfact> 0.31835851E+00</totfact>
</mgrwt>
</event>
<event>
 4    1  0.7595604E-007  0.7030169E+03  0.7818608E-02  0.9984909E-01
         -2   -1    0    0    0  501 -0.00000000000E+00  0.00000000000E+00  0.29368118245E+03  0.29368118247E+03  0.25500000000E-02 0.  1.
          2   -1    0    0  501    0  0.00000000000E+00 -0.00000000000E+00 -0.12583366656E+04  0.12583366656E+04  0.25500000000E-02 0. -1.
    8880023    1    1    2    0    0 -0.19558092379E+03  0.14889794774E+03 -0.19476974770E+03  0.72949842870E+03  0.65864270000E+03 0.  0.
    8880022    1    1    2    0    0  0.19558092379E+03 -0.14889794774E+03 -0.76988573545E+03  0.82251941938E+03  0.15294330000E+03 0.  0.
<mgrwt>
<rscale>  0 0.56316930E+03</rscale>
<asrwt>0</asrwt>
<pdfrwt beam="1">  1        2 0.19359025E+00 0.70301686E+03</pdfrwt>
<pdfrwt beam="2">  1       -2 0.45181721E-01 0.70301686E+03</pdfrwt>
<totfact> 0.82937095E+01</totfact>
</mgrwt>
</event>
<event>
 4    1  0.7595604E-007  0.7155899E+03  0.7818608E-02  0.9937801E-01
          2   -1    0    0  501    0  0.00000000000E+00  0.00000000000E+00  0.11159282211E+04  0.11159282211E+04  0.25500000000E-02 0. -1.
         -2   -1    0    0    0  501 -0.00000000000E+00 -0.00000000000E+00 -0.38545199486E+03  0.38545199486E+03  0.25500000000E-02 0.  1.
    8880023    1    1    2    0    0 -0.27974039589E+03 -0.20031959670E+01  0.12390222683E+02  0.71569716065E+03  0.65864270000E+03 0.  1.
    8880022    1    1    2    0    0  0.27974039589E+03  0.20031959670E+01  0.71808600358E+03  0.78568305533E+03  0.15294330000E+03 0.  0.
<mgrwt>
<rscale>  0 0.58463763E+03</rscale>
<asrwt>0</asrwt>
<pdfrwt beam="1">  1        2 0.17168127E+00 0.71558990E+03</pdfrwt>
<pdfrwt beam="2">  1       -2 0.59300306E-01 0.71558990E+03</pdfrwt>
<totfact> 0.57654902E+01</totfact>
</mgrwt>
</event>
<event>
 4    1  0.7595604E-007  0.7560120E+03  0.7818608E-02  0.9815543E-01
          2   -1    0    0  501    0  0.00000000000E+00  0.00000000000E+00  0.14169395245E+04  0.14169395245E+04  0.25500000000E-02 0. -1.
         -2   -1    0    0    0  501 -0.00000000000E+00 -0.00000000000E+00 -0.33532330478E+03  0.33532330479E+03  0.25500000000E-02 0.  1.
    8880023    1    1    2    0    0 -0.28359919734E+03 -0.23940654648E+03  0.19764941345E+03  0.78142145871E+03  0.65864270000E+03 0.  1.
    8880022    1    1    2    0    0  0.28359919734E+03  0.23940654648E+03  0.88396680624E+03  0.97084137055E+03  0.15294330000E+03 0.  0.
<mgrwt>
<rscale>  0 0.64535026E+03</rscale>
<asrwt>0</asrwt>
<pdfrwt beam="1">  1        2 0.21799069E+00 0.75601204E+03</pdfrwt>
<pdfrwt beam="2">  1       -2 0.51588201E-01 0.75601204E+03</pdfrwt>
<totfact> 0.51223354E+01</totfact>
</mgrwt>
</event>
<event>
 4    1  0.7595604E-007  0.7606568E+03  0.7818608E-02  0.9803410E-01
          2   -1    0    0  501    0  0.00000000000E+00  0.00000000000E+00  0.31510076667E+04  0.31510076667E+04  0.25500000000E-02 0. -1.
         -2   -1    0    0    0  501 -0.00000000000E+00 -0.00000000000E+00 -0.27699457437E+03  0.27699457438E+03  0.25500000000E-02 0.  1.
    8880023    1    1    2    0    0 -0.12623640696E+03  0.35896092475E+03  0.29383591605E+03  0.81543750696E+03  0.65864270000E+03 0.  1.
    8880022    1    1    2    0    0  0.12623640696E+03 -0.35896092475E+03  0.25801771763E+04  0.26125647341E+04  0.15294330000E+03 0.  0.
<mgrwt>
<rscale>  0 0.65179862E+03</rscale>
<asrwt>0</asrwt>
<pdfrwt beam="1">  1        2 0.48477044E+00 0.76065681E+03</pdfrwt>
<pdfrwt beam="2">  1       -2 0.42614547E-01 0.76065681E+03</pdfrwt>
<totfact> 0.77734388E+00</totfact>
</mgrwt>
</event>
<event>
 4    1  0.7595604E-007  0.6800001E+03  0.7818608E-02  0.1009324E+00
         -2   -1    0    0    0  501 -0.00000000000E+00  0.00000000000E+00  0.15924130991E+03  0.15924130993E+03  0.25500000000E-02 0.  1.
          2   -1    0    0  501    0  0.00000000000E+00 -0.00000000000E+00 -0.26623766707E+04  0.26623766707E+04  0.25500000000E-02 0. -1.
    8880023    1    1    2    0    0 -0.14911651900E+03  0.79713501180E+02 -0.60603653456E+03  0.91086797397E+03  0.65864270000E+03 0.  1.
    8880022    1    1    2    0    0  0.14911651900E+03 -0.79713501180E+02 -0.18970988262E+04  0.19107500066E+04  0.15294330000E+03 0.  0.
<mgrwt>
<rscale>  0 0.51744356E+03</rscale>
<asrwt>0</asrwt>
<pdfrwt beam="1">  1        2 0.40959638E+00 0.68000014E+03</pdfrwt>
<pdfrwt beam="2">  1       -2 0.24498665E-01 0.68000014E+03</pdfrwt>
<totfact> 0.43923153E+01</totfact>
</mgrwt>
</event>
<event>
 4    1  0.7595604E-007  0.8467722E+03  0.7818608E-02  0.9617540E-01
         -2   -1    0    0    0  501 -0.00000000000E+00  0.00000000000E+00  0.85202026891E+03  0.85202026892E+03  0.25500000000E-02 0.  1.
          2   -1    0    0  501    0  0.00000000000E+00 -0.00000000000E+00 -0.80110841844E+03  0.80110841845E+03  0.25500000000E-02 0. -1.
    8880023    1    1    2    0    0  0.29106051463E+03  0.44552978744E+03  0.46096211946E+03  0.96411062462E+03  0.65864270000E+03 0.  0.
    8880022    1    1    2    0    0 -0.29106051463E+03 -0.44552978744E+03 -0.41005026899E+03  0.68901806274E+03  0.15294330000E+03 0.  0.
<mgrwt>
<rscale>  0 0.76146037E+03</rscale>
<asrwt>0</asrwt>
<pdfrwt beam="1">  1        2 0.12324745E+00 0.84677224E+03</pdfrwt>
<pdfrwt beam="2">  1       -2 0.13108004E+00 0.84677224E+03</pdfrwt>
<totfact> 0.14703477E+01</totfact>
</mgrwt>
</event>
<event>
 4    1  0.7595604E-007  0.1030092E+04  0.7818608E-02  0.9343205E-01
         -2   -1    0    0    0  501 -0.00000000000E+00  0.00000000000E+00  0.13773418680E+04  0.13773418680E+04  0.25500000000E-02 0.  1.
          2   -1    0    0  501    0  0.00000000000E+00 -0.00000000000E+00 -0.14455717031E+04  0.14455717031E+04  0.25500000000E-02 0. -1.
    8880023    1    1    2    0    0  0.77640704415E+03  0.15643563366E+03  0.10323590589E+04  0.14583742450E+04  0.65864270000E+03 0.  0.
    8880022    1    1    2    0    0 -0.77640704415E+03 -0.15643563366E+03 -0.11005888941E+04  0.13645393261E+04  0.15294330000E+03 0.  0.
<mgrwt>
<rscale>  0 0.96900798E+03</rscale>
<asrwt>0</asrwt>
<pdfrwt beam="1">  1        2 0.22239565E+00 0.10300923E+04</pdfrwt>
<pdfrwt beam="2">  1       -2 0.21189875E+00 0.10300923E+04</pdfrwt>
<totfact> 0.15023189E+00</totfact>
</mgrwt>
</event>
<event>
 4    1  0.7595604E-007  0.7938160E+03  0.7818608E-02  0.9724330E-01
          2   -1    0    0  501    0  0.00000000000E+00  0.00000000000E+00  0.21864469839E+04  0.21864469839E+04  0.25500000000E-02 0. -1.
         -2   -1    0    0    0  501 -0.00000000000E+00 -0.00000000000E+00 -0.38652062644E+03  0.38652062645E+03  0.25500000000E-02 0.  1.
    8880023    1    1    2    0    0  0.33986036258E+03 -0.28430357523E+03  0.88764328616E+02  0.79876335747E+03  0.65864270000E+03 0.  0.
    8880022    1    1    2    0    0 -0.33986036258E+03  0.28430357523E+03  0.17111620288E+04  0.17742042528E+04  0.15294330000E+03 0.  0.
<mgrwt>
<rscale>  0 0.69586480E+03</rscale>
<asrwt>0</asrwt>
<pdfrwt beam="1">  1        2 0.33637646E+00 0.79381597E+03</pdfrwt>
<pdfrwt beam="2">  1       -2 0.59464712E-01 0.79381597E+03</pdfrwt>
<totfact> 0.14324682E+01</totfact>
</mgrwt>
</event>
<event>
 4    1  0.7595604E-007  0.9585643E+03  0.7818608E-02  0.9437897E-01
          2   -1    0    0  501    0  0.00000000000E+00  0.00000000000E+00  0.28800372249E+04  0.28800372249E+04  0.25500000000E-02 0. -1.
         -2   -1    0    0    0  501 -0.00000000000E+00 -0.00000000000E+00 -0.39886123642E+03  0.39886123643E+03  0.25500000000E-02 0.  1.
    8880023    1    1    2    0    0  0.69409687537E+03 -0.57139231751E+02  0.33184734582E+03  0.10143807132E+04  0.65864270000E+03 0.  0.
    8880022    1    1    2    0    0 -0.69409687537E+03  0.57139231751E+02  0.21493286427E+04  0.22645177481E+04  0.15294330000E+03 0.  0.
<mgrwt>
<rscale>  0 0.89021421E+03</rscale>
<asrwt>0</asrwt>
<pdfrwt beam="1">  1        2 0.44308268E+00 0.95856433E+03</pdfrwt>
<pdfrwt beam="2">  1       -2 0.61363263E-01 0.95856433E+03</pdfrwt>
<totfact> 0.52351089E+00</totfact>
</mgrwt>
</event>
<event>
 4    1  0.7595604E-007  0.1082342E+04  0.7818608E-02  0.9280975E-01
          2   -1    0    0  501    0  0.00000000000E+00  0.00000000000E+00  0.18914686845E+04  0.18914686845E+04  0.25500000000E-02 0. -1.
         -2   -1    0    0    0  501 -0.00000000000E+00 -0.00000000000E+00 -0.76655995484E+03  0.76655995485E+03  0.25500000000E-02 0.  1.
    8880023    1    1    2    0    0  0.84264018369E+02  0.85472435398E+03 -0.17107668099E+03  0.10957789846E+04  0.65864270000E+03 0.  0.
    8880022    1    1    2    0    0 -0.84264018369E+02 -0.85472435398E+03  0.12959854107E+04  0.15622496548E+04  0.15294330000E+03 0.  0.
<mgrwt>
<rscale>  0 0.10255333E+04</rscale>
<asrwt>0</asrwt>
<pdfrwt beam="1">  1        2 0.29099518E+00 0.10823421E+04</pdfrwt>
<pdfrwt beam="2">  1       -2 0.11793230E+00 0.10823421E+04</pdfrwt>
<totfact> 0.42057442E+00</totfact>
</mgrwt>
</event>
<event>
 4    1  0.7595604E-007  0.8391897E+03  0.7818608E-02  0.9631710E-01
          2   -1    0    0  501    0  0.00000000000E+00  0.00000000000E+00  0.17041687757E+04  0.17041687757E+04  0.25500000000E-02 0. -1.
         -2   -1    0    0    0  501 -0.00000000000E+00 -0.00000000000E+00 -0.49001532544E+03  0.49001532544E+03  0.25500000000E-02 0.  1.
    8880023    1    1    2    0    0  0.39463039880E+03 -0.33866807237E+03 -0.27214156006E+02  0.83963089000E+03  0.65864270000E+03 0.  0.
    8880022    1    1    2    0    0 -0.39463039880E+03  0.33866807237E+03  0.12413676063E+04  0.13545532111E+04  0.15294330000E+03 0.  0.
<mgrwt>
<rscale>  0 0.75232493E+03</rscale>
<asrwt>0</asrwt>
<pdfrwt beam="1">  1        2 0.26217981E+00 0.83918974E+03</pdfrwt>
<pdfrwt beam="2">  1       -2 0.75386975E-01 0.83918974E+03</pdfrwt>
<totfact> 0.15656659E+01</totfact>
</mgrwt>
</event>
<event>
 4    1  0.7595604E-007  0.7400348E+03  0.7818608E-02  0.9859846E-01
          2   -1    0    0  501    0  0.00000000000E+00  0.00000000000E+00  0.50996326196E+03  0.50996326197E+03  0.25500000000E-02 0. -1.
         -2   -1    0    0    0  501 -0.00000000000E+00 -0.00000000000E+00 -0.23501820864E+04  0.23501820864E+04  0.25500000000E-02 0.  1.
    8880023    1    1    2    0    0  0.21824467271E+02 -0.33669727621E+03 -0.22136889767E+04  0.23341102062E+04  0.65864270000E+03 0.  1.
    8880022    1    1    2    0    0 -0.21824467271E+02  0.33669727621E+03  0.37347015221E+03  0.52603514216E+03  0.15294330000E+03 0.  0.
<mgrwt>
<rscale>  0 0.62247434E+03</rscale>
<asrwt>0</asrwt>
<pdfrwt beam="1">  1        2 0.78455888E-01 0.74003484E+03</pdfrwt>
<pdfrwt beam="2">  1       -2 0.36156647E+00 0.74003484E+03</pdfrwt>
<totfact> 0.83730755E-01</totfact>
</mgrwt>
</event>
<event>
 4    1  0.7595604E-007  0.7830693E+03  0.7818608E-02  0.9748676E-01
          2   -1    0    0  501    0  0.00000000000E+00  0.00000000000E+00  0.16622089761E+04  0.16622089761E+04  0.25500000000E-02 0. -1.
         -2   -1    0    0    0  501 -0.00000000000E+00 -0.00000000000E+00 -0.67223016623E+03  0.67223016624E+03  0.25500000000E-02 0.  1.
    8880023    1    1    2    0    0 -0.29447242324E+03 -0.30442291347E+03 -0.39574142244E+03  0.87738748452E+03  0.65864270000E+03 0.  0.
    8880022    1    1    2    0    0  0.29447242324E+03  0.30442291347E+03  0.13857202323E+04  0.14570516578E+04  0.15294330000E+03 0.  0.
<mgrwt>
<rscale>  0 0.68191150E+03</rscale>
<asrwt>0</asrwt>
<pdfrwt beam="1">  1        2 0.25572446E+00 0.78306930E+03</pdfrwt>
<pdfrwt beam="2">  1       -2 0.10342002E+00 0.78306930E+03</pdfrwt>
<totfact> 0.80296361E+00</totfact>
</mgrwt>
</event>
<event>
 4    1  0.7595604E-007  0.1012692E+04  0.7818608E-02  0.9365138E-01
          2   -1    0    0  501    0  0.00000000000E+00  0.00000000000E+00  0.92277347419E+03  0.92277347419E+03  0.25500000000E-02 0. -1.
         -2   -1    0    0    0  501 -0.00000000000E+00 -0.00000000000E+00 -0.99132536656E+03  0.99132536656E+03  0.25500000000E-02 0.  1.
    8880023    1    1    2    0    0  0.71676175754E+03  0.27926127332E+03 -0.36381699786E+03  0.10760610067E+04  0.65864270000E+03 0.  0.
    8880022    1    1    2    0    0 -0.71676175754E+03 -0.27926127332E+03  0.29526510549E+03  0.83803783410E+03  0.15294330000E+03 0.  0.
<mgrwt>
<rscale>  0 0.95001058E+03</rscale>
<asrwt>0</asrwt>
<pdfrwt beam="1">  1        2 0.14196515E+00 0.10126917E+04</pdfrwt>
<pdfrwt beam="2">  1       -2 0.15251159E+00 0.10126917E+04</pdfrwt>
<totfact> 0.80350431E+00</totfact>
</mgrwt>
</event>
<event>
 4    1  0.7595604E-007  0.6922983E+03  0.7818608E-02  0.1003079E+00
          2   -1    0    0  501    0  0.00000000000E+00  0.00000000000E+00  0.33220479229E+04  0.33220479229E+04  0.25500000000E-02 0. -1.
         -2   -1    0    0    0  501 -0.00000000000E+00 -0.00000000000E+00 -0.12679574002E+03  0.12679574005E+03  0.25500000000E-02 0.  1.
    8880023    1    1    2    0    0 -0.19751577523E+03 -0.80338226775E+02  0.88439172186E+03  0.11231320653E+04  0.65864270000E+03 0.  0.
    8880022    1    1    2    0    0  0.19751577523E+03  0.80338226775E+02  0.23108604610E+04  0.23257115976E+04  0.15294330000E+03 0.  0.
<mgrwt>
<rscale>  0 0.54320597E+03</rscale>
<asrwt>0</asrwt>
<pdfrwt beam="1">  1        2 0.51108434E+00 0.69229829E+03</pdfrwt>
<pdfrwt beam="2">  1       -2 0.19507035E-01 0.69229829E+03</pdfrwt>
<totfact> 0.25918963E+01</totfact>
</mgrwt>
</event>
<event>
 4    1  0.7595604E-007  0.7390854E+03  0.7818608E-02  0.9862619E-01
          2   -1    0    0  501    0  0.00000000000E+00  0.00000000000E+00  0.17704889756E+04  0.17704889756E+04  0.25500000000E-02 0. -1.
         -2   -1    0    0    0  501 -0.00000000000E+00 -0.00000000000E+00 -0.30064383740E+03  0.30064383741E+03  0.25500000000E-02 0.  1.
    8880023    1    1    2    0    0 -0.24861092008E+03 -0.22501021300E+03  0.22454784372E+03  0.77244347749E+03  0.65864270000E+03 0.  0.
    8880022    1    1    2    0    0  0.24861092008E+03  0.22501021300E+03  0.12452972945E+04  0.12986893355E+04  0.15294330000E+03 0.  0.
<mgrwt>
<rscale>  0 0.62107618E+03</rscale>
<asrwt>0</asrwt>
<pdfrwt beam="1">  1        2 0.27238291E+00 0.73908538E+03</pdfrwt>
<pdfrwt beam="2">  1       -2 0.46252899E-01 0.73908538E+03</pdfrwt>
<totfact> 0.40832542E+01</totfact>
</mgrwt>
</event>
<event>
 4    1  0.7595604E-007  0.8856964E+03  0.7818608E-02  0.9549395E-01
         -2   -1    0    0    0  501 -0.00000000000E+00  0.00000000000E+00  0.81748312185E+03  0.81748312186E+03  0.25500000000E-02 0.  1.
          2   -1    0    0  501    0  0.00000000000E+00 -0.00000000000E+00 -0.13420426380E+04  0.13420426380E+04  0.25500000000E-02 0. -1.
    8880023    1    1    2    0    0  0.42218177146E+03  0.41522336817E+03  0.46186728892E+03  0.99888912922E+03  0.65864270000E+03 0.  1.
    8880022    1    1    2    0    0 -0.42218177146E+03 -0.41522336817E+03 -0.98642680510E+03  0.11606366307E+04  0.15294330000E+03 0.  0.
<mgrwt>
<rscale>  0 0.80738067E+03</rscale>
<asrwt>0</asrwt>
<pdfrwt beam="1">  1        2 0.20646810E+00 0.88569639E+03</pdfrwt>
<pdfrwt beam="2">  1       -2 0.12576663E+00 0.88569639E+03</pdfrwt>
<totfact> 0.74161786E+00</totfact>
</mgrwt>
</event>
<event>
 4    1  0.7595604E-007  0.7725016E+03  0.7818608E-02  0.9773755E-01
         -2   -1    0    0    0  501 -0.00000000000E+00  0.00000000000E+00  0.66038109203E+03  0.66038109204E+03  0.25500000000E-02 0.  1.
          2   -1    0    0  501    0  0.00000000000E+00 -0.00000000000E+00 -0.32013910411E+04  0.32013910411E+04  0.25500000000E-02 0. -1.
    8880023    1    1    2    0    0 -0.40292419455E+03 -0.24507975325E+02  0.41328479673E+03  0.87610677254E+03  0.65864270000E+03 0.  0.
    8880022    1    1    2    0    0  0.40292419455E+03  0.24507975325E+02 -0.29542947458E+04  0.29856653606E+04  0.15294330000E+03 0.  0.
<mgrwt>
<rscale>  0 0.66790219E+03</rscale>
<asrwt>0</asrwt>
<pdfrwt beam="1">  1        2 0.49252169E+00 0.77250162E+03</pdfrwt>
<pdfrwt beam="2">  1       -2 0.10159709E+00 0.77250162E+03</pdfrwt>
<totfact> 0.11018215E+00</totfact>
</mgrwt>
</event>
<event>
 4    1  0.7595604E-007  0.8629159E+03  0.7818608E-02  0.9588397E-01
          2   -1    0    0  501    0  0.00000000000E+00  0.00000000000E+00  0.15877708118E+04  0.15877708118E+04  0.25500000000E-02 0. -1.
         -2   -1    0    0    0  501 -0.00000000000E+00 -0.00000000000E+00 -0.45219005870E+03  0.45219005870E+03  0.25500000000E-02 0.  1.
    8880023    1    1    2    0    0  0.31407106649E+02 -0.55662130832E+03  0.11979753607E+03  0.87119190947E+03  0.65864270000E+03 0.  1.
    8880022    1    1    2    0    0 -0.31407106649E+02  0.55662130832E+03  0.10157832170E+04  0.11687689610E+04  0.15294330000E+03 0.  0.
<mgrwt>
<rscale>  0 0.78068896E+03</rscale>
<asrwt>0</asrwt>
<pdfrwt beam="1">  1        2 0.24427243E+00 0.86291592E+03</pdfrwt>
<pdfrwt beam="2">  1       -2 0.69567701E-01 0.86291592E+03</pdfrwt>
<totfact> 0.21607750E+01</totfact>
</mgrwt>
</event>
<event>
 4    1  0.7595604E-007  0.1122292E+04  0.7818608E-02  0.9236633E-01
          2   -1    0    0  501    0  0.00000000000E+00  0.00000000000E+00  0.22709285522E+04  0.22709285522E+04  0.25500000000E-02 0. -1.
         -2   -1    0    0    0  501 -0.00000000000E+00 -0.00000000000E+00 -0.82642945760E+03  0.82642945761E+03  0.25500000000E-02 0.  1.
    8880023    1    1    2    0    0 -0.41305207274E+03  0.80939361415E+03 -0.26694985071E+03  0.11536041203E+04  0.65864270000E+03 0.  0.
    8880022    1    1    2    0    0  0.41305207274E+03 -0.80939361415E+03  0.17114489453E+04  0.19437538895E+04  0.15294330000E+03 0.  0.
<mgrwt>
<rscale>  0 0.10683185E+04</rscale>
<asrwt>0</asrwt>
<pdfrwt beam="1">  1        2 0.34937362E+00 0.11222924E+04</pdfrwt>
<pdfrwt beam="2">  1       -2 0.12714300E+00 0.11222924E+04</pdfrwt>
<totfact> 0.21344537E+00</totfact>
</mgrwt>
</event>
<event>
 4    1  0.7595604E-007  0.6603546E+03  0.7818608E-02  0.1023796E+00
         -2   -1    0    0    0  501 -0.00000000000E+00  0.00000000000E+00  0.18884449922E+03  0.18884449924E+03  0.25500000000E-02 0.  1.
          2   -1    0    0  501    0  0.00000000000E+00 -0.00000000000E+00 -0.21276009320E+04  0.21276009320E+04  0.25500000000E-02 0. -1.
    8880023    1    1    2    0    0 -0.27676520027E+02  0.38625742701E+02 -0.40565075384E+03  0.77499721168E+03  0.65864270000E+03 0.  1.
    8880022    1    1    2    0    0  0.27676520027E+02 -0.38625742701E+02 -0.15331056789E+04  0.15414482196E+04  0.15294330000E+03 0.  0.
<mgrwt>
<rscale>  0 0.46341271E+03</rscale>
<asrwt>0</asrwt>
<pdfrwt beam="1">  1        2 0.32732320E+00 0.66035456E+03</pdfrwt>
<pdfrwt beam="2">  1       -2 0.29053001E-01 0.66035456E+03</pdfrwt>
<totfact> 0.64346512E+01</totfact>
</mgrwt>
</event>
<event>
 4    1  0.7595604E-007  0.6631626E+03  0.7818608E-02  0.1021127E+00
          2   -1    0    0  501    0  0.00000000000E+00  0.00000000000E+00  0.38429472399E+04  0.38429472399E+04  0.25500000000E-02 0. -1.
         -2   -1    0    0    0  501 -0.00000000000E+00 -0.00000000000E+00 -0.72538178221E+02  0.72538178266E+02  0.25500000000E-02 0.  1.
    8880023    1    1    2    0    0 -0.66386924703E+02  0.39587757450E+02  0.15176059751E+04  0.16561740598E+04  0.65864270000E+03 0.  1.
    8880022    1    1    2    0    0  0.66386924703E+02 -0.39587757450E+02  0.22528030865E+04  0.22593113584E+04  0.15294330000E+03 0.  0.
<mgrwt>
<rscale>  0 0.47281989E+03</rscale>
<asrwt>0</asrwt>
<pdfrwt beam="1">  1        2 0.59122271E+00 0.66316259E+03</pdfrwt>
<pdfrwt beam="2">  1       -2 0.11159719E-01 0.66316259E+03</pdfrwt>
<totfact> 0.28999387E+01</totfact>
</mgrwt>
</event>
<event>
 4    1  0.7595604E-007  0.1328626E+04  0.7818608E-02  0.9041225E-01
         -2   -1    0    0    0  501 -0.00000000000E+00  0.00000000000E+00  0.48421714438E+03  0.48421714438E+03  0.25500000000E-02 0.  1.
          2   -1    0    0  501    0  0.00000000000E+00 -0.00000000000E+00 -0.39643857556E+04  0.39643857556E+04  0.25500000000E-02 0. -1.
    8880023    1    1    2    0    0  0.63661886079E+03 -0.96236907046E+03 -0.28030956272E+04  0.31020304807E+04  0.65864270000E+03 0. -1.
    8880022    1    1    2    0    0 -0.63661886079E+03  0.96236907046E+03 -0.67707298404E+03  0.13465724193E+04  0.15294330000E+03 0.  0.
<mgrwt>
<rscale>  0 0.12853983E+04</rscale>
<asrwt>0</asrwt>
<pdfrwt beam="1">  1        2 0.60990548E+00 0.13286264E+04</pdfrwt>
<pdfrwt beam="2">  1       -2 0.74494948E-01 0.13286264E+04</pdfrwt>
<totfact> 0.59082958E-01</totfact>
</mgrwt>
</event>
<event>
 4    1  0.7595604E-007  0.7500256E+03  0.7818608E-02  0.9831650E-01
          2   -1    0    0  501    0  0.00000000000E+00  0.00000000000E+00  0.33195319333E+04  0.33195319333E+04  0.25500000000E-02 0. -1.
         -2   -1    0    0    0  501 -0.00000000000E+00 -0.00000000000E+00 -0.52777839997E+03  0.52777839998E+03  0.25500000000E-02 0.  1.
    8880023    1    1    2    0    0 -0.16984936451E+03  0.31603706194E+03 -0.24237547697E+03  0.78821590268E+03  0.65864270000E+03 0.  1.
    8880022    1    1    2    0    0  0.16984936451E+03 -0.31603706194E+03  0.30341290103E+04  0.30590944306E+04  0.15294330000E+03 0.  0.
<mgrwt>
<rscale>  0 0.63691331E+03</rscale>
<asrwt>0</asrwt>
<pdfrwt beam="1">  1        2 0.51069721E+00 0.75002562E+03</pdfrwt>
<pdfrwt beam="2">  1       -2 0.81196678E-01 0.75002562E+03</pdfrwt>
<totfact> 0.15607782E+00</totfact>
</mgrwt>
</event>
<event>
 4    1  0.7595604E-007  0.7351528E+03  0.7818608E-02  0.9874298E-01
         -2   -1    0    0    0  501 -0.00000000000E+00  0.00000000000E+00  0.97313169008E+03  0.97313169008E+03  0.25500000000E-02 0.  1.
          2   -1    0    0  501    0  0.00000000000E+00 -0.00000000000E+00 -0.39226886228E+03  0.39226886229E+03  0.25500000000E-02 0. -1.
    8880023    1    1    2    0    0 -0.32652956751E+03  0.42202445552E+01  0.67772562098E+02  0.73827006939E+03  0.65864270000E+03 0. -1.
    8880022    1    1    2    0    0  0.32652956751E+03 -0.42202445552E+01  0.51309026570E+03  0.62713048299E+03  0.15294330000E+03 0.  0.
<mgrwt>
<rscale>  0 0.61523221E+03</rscale>
<asrwt>0</asrwt>
<pdfrwt beam="1">  1        2 0.60349055E-01 0.73515276E+03</pdfrwt>
<pdfrwt beam="2">  1       -2 0.14971257E+00 0.73515276E+03</pdfrwt>
<totfact> 0.24822345E+01</totfact>
</mgrwt>
</event>
<event>
 4    1  0.7595604E-007  0.6592085E+03  0.7818608E-02  0.1024982E+00
         -2   -1    0    0    0  501 -0.00000000000E+00  0.00000000000E+00  0.27657159016E+03  0.27657159017E+03  0.25500000000E-02 0.  1.
          2   -1    0    0  501    0  0.00000000000E+00 -0.00000000000E+00 -0.10772627739E+04  0.10772627739E+04  0.25500000000E-02 0. -1.
    8880023    1    1    2    0    0 -0.12867406779E+02 -0.24085290664E+02 -0.13842044214E+03  0.67358451322E+03  0.65864270000E+03 0.  1.
    8880022    1    1    2    0    0  0.12867406779E+02  0.24085290664E+02 -0.66227074157E+03  0.68024985081E+03  0.15294330000E+03 0.  0.
<mgrwt>
<rscale>  0 0.45930720E+03</rscale>
<asrwt>0</asrwt>
<pdfrwt beam="1">  1        2 0.16573273E+00 0.65920852E+03</pdfrwt>
<pdfrwt beam="2">  1       -2 0.42549476E-01 0.65920852E+03</pdfrwt>
<totfact> 0.12024453E+02</totfact>
</mgrwt>
</event>
<event>
 4    1  0.7595604E-007  0.6859078E+03  0.7818608E-02  0.1006162E+00
          2   -1    0    0  501    0  0.00000000000E+00  0.00000000000E+00  0.17269807832E+04  0.17269807832E+04  0.25500000000E-02 0. -1.
         -2   -1    0    0    0  501 -0.00000000000E+00 -0.00000000000E+00 -0.38030189243E+03  0.38030189244E+03  0.25500000000E-02 0.  1.
    8880023    1    1    2    0    0 -0.89340710539E+02 -0.16934452051E+03 -0.51455666125E+02  0.68783516995E+03  0.65864270000E+03 0.  1.
    8880022    1    1    2    0    0  0.89340710539E+02  0.16934452051E+03  0.13981345569E+04  0.14194475057E+04  0.15294330000E+03 0.  0.
<mgrwt>
<rscale>  0 0.53029109E+03</rscale>
<asrwt>0</asrwt>
<pdfrwt beam="1">  1        2 0.26568935E+00 0.68590782E+03</pdfrwt>
<pdfrwt beam="2">  1       -2 0.58507983E-01 0.68590782E+03</pdfrwt>
<totfact> 0.26813851E+01</totfact>
</mgrwt>
</event>
<event>
 4    1  0.7862989E-007  0.7052497E+03  0.7818608E-02  0.9976083E-01
          2   -1    0    0  501    0  0.00000000000E+00  0.00000000000E+00  0.15809946350E+04  0.15809946350E+04  0.25500000000E-02 0. -1.
         -2   -1    0    0    0  501 -0.00000000000E+00 -0.00000000000E+00 -0.51778783826E+03  0.51778783826E+03  0.25500000000E-02 0.  1.
    8880023    1    1    2    0    0  0.43059944358E+02  0.24842053902E+03 -0.25352465576E+03  0.74943437361E+03  0.65864270000E+03 0.  1.
    8880022    1    1    2    0    0 -0.43059944358E+02 -0.24842053902E+03  0.13167314525E+04  0.13493480996E+04  0.15294330000E+03 0.  0.
<mgrwt>
<rscale>  0 0.56711513E+03</rscale>
<asrwt>0</asrwt>
<pdfrwt beam="1">  1        2 0.24322994E+00 0.70524969E+03</pdfrwt>
<pdfrwt beam="2">  1       -2 0.79659668E-01 0.70524969E+03</pdfrwt>
<totfact> 0.16457868E+01</totfact>
</mgrwt>
</event>
<event>
 4    1  0.7595604E-007  0.8003105E+03  0.7818608E-02  0.9710125E-01
         -2   -1    0    0    0  501 -0.00000000000E+00  0.00000000000E+00  0.45259525935E+03  0.45259525935E+03  0.25500000000E-02 0.  1.
          2   -1    0    0  501    0  0.00000000000E+00 -0.00000000000E+00 -0.15827000255E+04  0.15827000255E+04  0.25500000000E-02 0. -1.
    8880023    1    1    2    0    0 -0.38528207589E+03 -0.24133879734E+03  0.78817059282E+01  0.80034931164E+03  0.65864270000E+03 0.  1.
    8880022    1    1    2    0    0  0.38528207589E+03  0.24133879734E+03 -0.11379864721E+04  0.12349459732E+04  0.15294330000E+03 0.  0.
<mgrwt>
<rscale>  0 0.70417136E+03</rscale>
<asrwt>0</asrwt>
<pdfrwt beam="1">  1        2 0.24349231E+00 0.80031050E+03</pdfrwt>
<pdfrwt beam="2">  1       -2 0.69630040E-01 0.80031050E+03</pdfrwt>
<totfact> 0.21857435E+01</totfact>
</mgrwt>
</event>
<event>
 4    1  0.7595604E-007  0.9062837E+03  0.7818608E-02  0.9516019E-01
          2   -1    0    0  501    0  0.00000000000E+00  0.00000000000E+00  0.20182486830E+04  0.20182486830E+04  0.25500000000E-02 0. -1.
         -2   -1    0    0    0  501 -0.00000000000E+00 -0.00000000000E+00 -0.51660608693E+03  0.51660608694E+03  0.25500000000E-02 0.  1.
    8880023    1    1    2    0    0  0.40094538366E+03  0.47621718684E+03  0.45538630309E+01  0.90629518020E+03  0.65864270000E+03 0.  0.
    8880022    1    1    2    0    0 -0.40094538366E+03 -0.47621718684E+03  0.14970887330E+04  0.16285595897E+04  0.15294330000E+03 0. -1.
<mgrwt>
<rscale>  0 0.83113073E+03</rscale>
<asrwt>0</asrwt>
<pdfrwt beam="1">  1        2 0.31049980E+00 0.90628374E+03</pdfrwt>
<pdfrwt beam="2">  1       -2 0.79477858E-01 0.90628374E+03</pdfrwt>
<totfact> 0.92812712E+00</totfact>
</mgrwt>
</event>
<event>
 4    1  0.7595604E-007  0.7126760E+03  0.7818608E-02  0.9948195E-01
          2   -1    0    0  501    0  0.00000000000E+00  0.00000000000E+00  0.67368947934E+03  0.67368947935E+03  0.25500000000E-02 0. -1.
         -2   -1    0    0    0  501 -0.00000000000E+00 -0.00000000000E+00 -0.40197942545E+03  0.40197942546E+03  0.25500000000E-02 0.  1.
    8880023    1    1    2    0    0  0.24079238987E+03  0.12694857265E+03  0.27371441968E+03  0.76343087763E+03  0.65864270000E+03 0.  0.
    8880022    1    1    2    0    0 -0.24079238987E+03 -0.12694857265E+03 -0.20043657863E+01  0.31223802717E+03  0.15294330000E+03 0. -1.
<mgrwt>
<rscale>  0 0.57981350E+03</rscale>
<asrwt>0</asrwt>
<pdfrwt beam="1">  1        2 0.10364454E+00 0.71267603E+03</pdfrwt>
<pdfrwt beam="2">  1       -2 0.61842989E-01 0.71267603E+03</pdfrwt>
<totfact> 0.10589323E+02</totfact>
</mgrwt>
</event>
<event>
 4    1  0.7595604E-007  0.7925012E+03  0.7818608E-02  0.9727251E-01
         -2   -1    0    0    0  501 -0.00000000000E+00  0.00000000000E+00  0.55130228205E+03  0.55130228206E+03  0.25500000000E-02 0.  1.
          2   -1    0    0  501    0  0.00000000000E+00 -0.00000000000E+00 -0.16800055588E+04  0.16800055588E+04  0.25500000000E-02 0. -1.
    8880023    1    1    2    0    0 -0.41959982363E+03 -0.13484761183E+03  0.20481595205E+03  0.81853996291E+03  0.65864270000E+03 0.  1.
    8880022    1    1    2    0    0  0.41959982363E+03  0.13484761183E+03 -0.13335192288E+04  0.14127678780E+04  0.15294330000E+03 0.  0.
<mgrwt>
<rscale>  0 0.69417211E+03</rscale>
<asrwt>0</asrwt>
<pdfrwt beam="1">  1        2 0.25846239E+00 0.79250117E+03</pdfrwt>
<pdfrwt beam="2">  1       -2 0.84815737E-01 0.79250117E+03</pdfrwt>
<totfact> 0.12453667E+01</totfact>
</mgrwt>
</event>
<event>
 4    1  0.7595604E-007  0.7265234E+03  0.7818608E-02  0.9901101E-01
         -2   -1    0    0    0  501 -0.00000000000E+00  0.00000000000E+00  0.12914758548E+04  0.12914758548E+04  0.25500000000E-02 0.  1.
          2   -1    0    0  501    0  0.00000000000E+00 -0.00000000000E+00 -0.76558936002E+03  0.76558936003E+03  0.25500000000E-02 0. -1.
    8880023    1    1    2    0    0 -0.30216077030E+03  0.52200637887E+02  0.11411611334E+04  0.13528063337E+04  0.65864270000E+03 0.  1.
    8880022    1    1    2    0    0  0.30216077030E+03 -0.52200637887E+02 -0.61527463866E+03  0.70425888116E+03  0.15294330000E+03 0.  0.
<mgrwt>
<rscale>  0 0.60207958E+03</rscale>
<asrwt>0</asrwt>
<pdfrwt beam="1">  1        2 0.11778298E+00 0.72652340E+03</pdfrwt>
<pdfrwt beam="2">  1       -2 0.19868859E+00 0.72652340E+03</pdfrwt>
<totfact> 0.50744489E+00</totfact>
</mgrwt>
</event>
<event>
 4    1  0.7595604E-007  0.7148721E+03  0.7818608E-02  0.9940335E-01
          2   -1    0    0  501    0  0.00000000000E+00  0.00000000000E+00  0.19097224433E+04  0.19097224433E+04  0.25500000000E-02 0. -1.
         -2   -1    0    0    0  501 -0.00000000000E+00 -0.00000000000E+00 -0.26969519865E+03  0.26969519867E+03  0.25500000000E-02 0.  1.
    8880023    1    1    2    0    0 -0.27419121485E+03 -0.45289665608E+02  0.25572333604E+03  0.75923422405E+03  0.65864270000E+03 0.  1.
    8880022    1    1    2    0    0  0.27419121485E+03  0.45289665608E+02  0.13843039086E+04  0.14201834179E+04  0.15294330000E+03 0.  0.
<mgrwt>
<rscale>  0 0.58345690E+03</rscale>
<asrwt>0</asrwt>
<pdfrwt beam="1">  1        2 0.29380346E+00 0.71487214E+03</pdfrwt>
<pdfrwt beam="2">  1       -2 0.41491567E-01 0.71487214E+03</pdfrwt>
<totfact> 0.42659882E+01</totfact>
</mgrwt>
</event>
<event>
 4    1  0.7595604E-007  0.6783007E+03  0.7818608E-02  0.1010302E+00
          2   -1    0    0  501    0  0.00000000000E+00  0.00000000000E+00  0.88176883172E+03  0.88176883173E+03  0.25500000000E-02 0. -1.
         -2   -1    0    0    0  501 -0.00000000000E+00 -0.00000000000E+00 -0.26458814169E+03  0.26458814170E+03  0.25500000000E-02 0.  1.
    8880023    1    1    2    0    0  0.10318732810E+03 -0.12503577147E+03  0.26220961042E+03  0.72721774929E+03  0.65864270000E+03 0.  1.
    8880022    1    1    2    0    0 -0.10318732810E+03  0.12503577147E+03  0.35497107962E+03  0.41913922414E+03  0.15294330000E+03 0.  0.
<mgrwt>
<rscale>  0 0.51354909E+03</rscale>
<asrwt>0</asrwt>
<pdfrwt beam="1">  1        2 0.13565674E+00 0.67830065E+03</pdfrwt>
<pdfrwt beam="2">  1       -2 0.40705868E-01 0.67830065E+03</pdfrwt>
<totfact> 0.17497418E+02</totfact>
</mgrwt>
</event>
<event>
 4    1  0.7595604E-007  0.7003895E+03  0.7818608E-02  0.9995589E-01
          2   -1    0    0  501    0  0.00000000000E+00  0.00000000000E+00  0.40373585596E+04  0.40373585596E+04  0.25500000000E-02 0. -1.
         -2   -1    0    0    0  501 -0.00000000000E+00 -0.00000000000E+00 -0.37869340344E+03  0.37869340345E+03  0.25500000000E-02 0.  1.
    8880023    1    1    2    0    0  0.12774910701E+03 -0.20103576541E+03 -0.44765990570E+02  0.70181864715E+03  0.65864270000E+03 0.  1.
    8880022    1    1    2    0    0 -0.12774910701E+03  0.20103576541E+03  0.37034311467E+04  0.37142333159E+04  0.15294330000E+03 0.  0.
<mgrwt>
<rscale>  0 0.55844059E+03</rscale>
<asrwt>0</asrwt>
<pdfrwt beam="1">  1        2 0.62113206E+00 0.70038948E+03</pdfrwt>
<pdfrwt beam="2">  1       -2 0.58260526E-01 0.70038948E+03</pdfrwt>
<totfact> 0.99239978E-01</totfact>
</mgrwt>
</event>
<event>
 4    1  0.7595604E-007  0.1187895E+04  0.7818608E-02  0.9168980E-01
         -2   -1    0    0    0  501 -0.00000000000E+00  0.00000000000E+00  0.86534707440E+03  0.86534707440E+03  0.25500000000E-02 0.  1.
          2   -1    0    0  501    0  0.00000000000E+00 -0.00000000000E+00 -0.24085922654E+04  0.24085922654E+04  0.25500000000E-02 0. -1.
    8880023    1    1    2    0    0  0.62732004735E+03 -0.76403782646E+03  0.25613099393E+03  0.12151944430E+04  0.65864270000E+03 0.  0.
    8880022    1    1    2    0    0 -0.62732004735E+03  0.76403782646E+03 -0.17993761849E+04  0.20587448968E+04  0.15294330000E+03 0.  0.
<mgrwt>
<rscale>  0 0.11379422E+04</rscale>
<asrwt>0</asrwt>
<pdfrwt beam="1">  1        2 0.37055265E+00 0.11878950E+04</pdfrwt>
<pdfrwt beam="2">  1       -2 0.13313032E+00 0.11878950E+04</pdfrwt>
<totfact> 0.15743078E+00</totfact>
</mgrwt>
</event>
<event>
 4    1  0.7595604E-007  0.6710100E+03  0.7818608E-02  0.1014949E+00
          2   -1    0    0  501    0  0.00000000000E+00  0.00000000000E+00  0.61689404207E+03  0.61689404208E+03  0.25500000000E-02 0. -1.
         -2   -1    0    0    0  501 -0.00000000000E+00 -0.00000000000E+00 -0.72933132577E+03  0.72933132578E+03  0.25500000000E-02 0.  1.
    8880023    1    1    2    0    0  0.49176839096E+02 -0.11843062035E+03 -0.54849493541E+03  0.86666087588E+03  0.65864270000E+03 0.  1.
    8880022    1    1    2    0    0 -0.49176839096E+02  0.11843062035E+03  0.43605765171E+03  0.47956449198E+03  0.15294330000E+03 0.  0.
<mgrwt>
<rscale>  0 0.49554256E+03</rscale>
<asrwt>0</asrwt>
<pdfrwt beam="1">  1        2 0.94906776E-01 0.67100997E+03</pdfrwt>
<pdfrwt beam="2">  1       -2 0.11220482E+00 0.67100997E+03</pdfrwt>
<totfact> 0.30615572E+01</totfact>
</mgrwt>
</event>
<event>
 4    1  0.7595604E-007  0.6926733E+03  0.7818608E-02  0.1002907E+00
         -2   -1    0    0    0  501 -0.00000000000E+00  0.00000000000E+00  0.10149564984E+03  0.10149564987E+03  0.25500000000E-02 0.  1.
          2   -1    0    0  501    0  0.00000000000E+00 -0.00000000000E+00 -0.27460835107E+04  0.27460835107E+04  0.25500000000E-02 0. -1.
    8880023    1    1    2    0    0 -0.85194606073E+02  0.19679429654E+03 -0.12570281990E+04  0.14352408214E+04  0.65864270000E+03 0.  0.
    8880022    1    1    2    0    0  0.85194606073E+02 -0.19679429654E+03 -0.13875596619E+04  0.14123383392E+04  0.15294330000E+03 0.  0.
<mgrwt>
<rscale>  0 0.54393735E+03</rscale>
<asrwt>0</asrwt>
<pdfrwt beam="1">  1        2 0.42247433E+00 0.69267332E+03</pdfrwt>
<pdfrwt beam="2">  1       -2 0.15614717E-01 0.69267332E+03</pdfrwt>
<totfact> 0.85967326E+01</totfact>
</mgrwt>
</event>
<event>
 4    1  0.7595604E-007  0.7611913E+03  0.7818608E-02  0.9802033E-01
          2   -1    0    0  501    0  0.00000000000E+00  0.00000000000E+00  0.17163684243E+04  0.17163684244E+04  0.25500000000E-02 0. -1.
         -2   -1    0    0    0  501 -0.00000000000E+00 -0.00000000000E+00 -0.66922099480E+03  0.66922099480E+03  0.25500000000E-02 0.  1.
    8880023    1    1    2    0    0 -0.20477978278E+02  0.38102835546E+03  0.15555351727E+04  0.17317915103E+04  0.65864270000E+03 0. -1.
    8880022    1    1    2    0    0  0.20477978278E+02 -0.38102835546E+03 -0.50838774315E+03  0.65379790888E+03  0.15294330000E+03 0.  0.
<mgrwt>
<rscale>  0 0.65253549E+03</rscale>
<asrwt>0</asrwt>
<pdfrwt beam="1">  1        2 0.26405668E+00 0.76119128E+03</pdfrwt>
<pdfrwt beam="2">  1       -2 0.10295708E+00 0.76119128E+03</pdfrwt>
<totfact> 0.76035247E+00</totfact>
</mgrwt>
</event>
<event>
 4    1  0.7595604E-007  0.6849393E+03  0.7818608E-02  0.1006657E+00
         -2   -1    0    0    0  501 -0.00000000000E+00  0.00000000000E+00  0.19394772504E+03  0.19394772506E+03  0.25500000000E-02 0.  1.
          2   -1    0    0  501    0  0.00000000000E+00 -0.00000000000E+00 -0.11106848362E+04  0.11106848362E+04  0.25500000000E-02 0. -1.
    8880023    1    1    2    0    0  0.84860665172E+01  0.18777553148E+03 -0.70313931601E+03  0.98160418068E+03  0.65864270000E+03 0.  0.
    8880022    1    1    2    0    0 -0.84860665172E+01 -0.18777553148E+03 -0.21359779514E+03  0.32302838057E+03  0.15294330000E+03 0.  1.
<mgrwt>
<rscale>  0 0.52825108E+03</rscale>
<asrwt>0</asrwt>
<pdfrwt beam="1">  1        2 0.17087459E+00 0.68493932E+03</pdfrwt>
<pdfrwt beam="2">  1       -2 0.29838112E-01 0.68493932E+03</pdfrwt>
<totfact> 0.22537365E+02</totfact>
</mgrwt>
</event>
<event>
 4    1  0.7595604E-007  0.7078656E+03  0.7818608E-02  0.9966014E-01
          2   -1    0    0  501    0  0.00000000000E+00  0.00000000000E+00  0.55081742185E+03  0.55081742185E+03  0.25500000000E-02 0. -1.
         -2   -1    0    0    0  501 -0.00000000000E+00 -0.00000000000E+00 -0.12190645298E+04  0.12190645298E+04  0.25500000000E-02 0.  1.
    8880023    1    1    2    0    0 -0.73161022037E+02  0.24881926068E+03 -0.10607166325E+04  0.12752229375E+04  0.65864270000E+03 0.  1.
    8880022    1    1    2    0    0  0.73161022037E+02 -0.24881926068E+03  0.39246952450E+03  0.49465901418E+03  0.15294330000E+03 0.  0.
<mgrwt>
<rscale>  0 0.57165923E+03</rscale>
<asrwt>0</asrwt>
<pdfrwt beam="1">  1        2 0.84741142E-01 0.70786564E+03</pdfrwt>
<pdfrwt beam="2">  1       -2 0.18754839E+00 0.70786564E+03</pdfrwt>
<totfact> 0.90497372E+00</totfact>
</mgrwt>
</event>
<event>
 4    1  0.7595604E-007  0.6801404E+03  0.7818608E-02  0.1009244E+00
         -2   -1    0    0    0  501 -0.00000000000E+00  0.00000000000E+00  0.45679620696E+03  0.45679620697E+03  0.25500000000E-02 0.  1.
          2   -1    0    0  501    0  0.00000000000E+00 -0.00000000000E+00 -0.31466551396E+04  0.31466551396E+04  0.25500000000E-02 0. -1.
    8880023    1    1    2    0    0  0.13338489113E+03  0.10482928772E+03  0.19658767082E+03  0.70798137499E+03  0.65864270000E+03 0.  1.
    8880022    1    1    2    0    0 -0.13338489113E+03 -0.10482928772E+03 -0.28864466035E+04  0.28954699716E+04  0.15294330000E+03 0.  0.
<mgrwt>
<rscale>  0 0.51776057E+03</rscale>
<asrwt>0</asrwt>
<pdfrwt beam="1">  1        2 0.48410078E+00 0.68014036E+03</pdfrwt>
<pdfrwt beam="2">  1       -2 0.70276342E-01 0.68014036E+03</pdfrwt>
<totfact> 0.28193167E+00</totfact>
</mgrwt>
</event>
<event>
 4    1  0.1258475E-006  0.9417353E+03  0.7818608E-02  0.9462106E-01
         -2   -1    0    0    0  501 -0.00000000000E+00  0.00000000000E+00  0.11006722372E+04  0.11006722372E+04  0.25500000000E-02 0.  1.
          2   -1    0    0  501    0  0.00000000000E+00 -0.00000000000E+00 -0.29979263085E+04  0.29979263085E+04  0.25500000000E-02 0. -1.
    8880023    1    1    2    0    0 -0.81552024438E+02 -0.66813505884E+03  0.84838394842E+03  0.12675254316E+04  0.65864270000E+03 0.  1.
    8880022    1    1    2    0    0  0.81552024438E+02  0.66813505884E+03 -0.27456380197E+04  0.28310731142E+04  0.15294330000E+03 0.  0.
<mgrwt>
<rscale>  0 0.87136166E+03</rscale>
<asrwt>0</asrwt>
<pdfrwt beam="1">  1        2 0.46121943E+00 0.94173531E+03</pdfrwt>
<pdfrwt beam="2">  1       -2 0.16933419E+00 0.94173531E+03</pdfrwt>
<totfact> 0.38673760E-01</totfact>
</mgrwt>
</event>
<event>
 4    1  0.7595604E-007  0.6706816E+03  0.7818608E-02  0.1015179E+00
          2   -1    0    0  501    0  0.00000000000E+00  0.00000000000E+00  0.18156743609E+04  0.18156743609E+04  0.25500000000E-02 0. -1.
         -2   -1    0    0    0  501 -0.00000000000E+00 -0.00000000000E+00 -0.22423725739E+03  0.22423725740E+03  0.25500000000E-02 0.  1.
    8880023    1    1    2    0    0 -0.12228090020E+03  0.32419025959E+02  0.30243519197E+03  0.73571792380E+03  0.65864270000E+03 0.  0.
    8880022    1    1    2    0    0  0.12228090020E+03 -0.32419025959E+02  0.12890019115E+04  0.13041936945E+04  0.15294330000E+03 0.  0.
<mgrwt>
<rscale>  0 0.49467254E+03</rscale>
<asrwt>0</asrwt>
<pdfrwt beam="1">  1        2 0.27933451E+00 0.67068161E+03</pdfrwt>
<pdfrwt beam="2">  1       -2 0.34498040E-01 0.67068161E+03</pdfrwt>
<totfact> 0.68886414E+01</totfact>
</mgrwt>
</event>
<event>
 4    1  0.7595604E-007  0.7430182E+03  0.7818608E-02  0.9851241E-01
          2   -1    0    0  501    0  0.00000000000E+00  0.00000000000E+00  0.11724247316E+04  0.11724247316E+04  0.25500000000E-02 0. -1.
         -2   -1    0    0    0  501 -0.00000000000E+00 -0.00000000000E+00 -0.58775552332E+03  0.58775552333E+03  0.25500000000E-02 0.  1.
    8880023    1    1    2    0    0  0.31819020756E+03 -0.13046371343E+03  0.96977627538E+03  0.12216963695E+04  0.65864270000E+03 0.  0.
    8880022    1    1    2    0    0 -0.31819020756E+03  0.13046371343E+03 -0.38510706711E+03  0.53848388542E+03  0.15294330000E+03 0.  1.
<mgrwt>
<rscale>  0 0.62683682E+03</rscale>
<asrwt>0</asrwt>
<pdfrwt beam="1">  1        2 0.18037303E+00 0.74301817E+03</pdfrwt>
<pdfrwt beam="2">  1       -2 0.90423928E-01 0.74301817E+03</pdfrwt>
<totfact> 0.20971093E+01</totfact>
</mgrwt>
</event>
<event>
 4    1  0.7595604E-007  0.7791013E+03  0.7818608E-02  0.9757952E-01
          2   -1    0    0  501    0  0.00000000000E+00  0.00000000000E+00  0.11423306369E+04  0.11423306369E+04  0.25500000000E-02 0. -1.
         -2   -1    0    0    0  501 -0.00000000000E+00 -0.00000000000E+00 -0.96842783318E+03  0.96842783318E+03  0.25500000000E-02 0.  1.
    8880023    1    1    2    0    0  0.33708556032E+03  0.24405333865E+03 -0.75284670883E+03  0.10834099318E+04  0.65864270000E+03 0.  1.
    8880022    1    1    2    0    0 -0.33708556032E+03 -0.24405333865E+03  0.92674951258E+03  0.10273485383E+04  0.15294330000E+03 0.  0.
<mgrwt>
<rscale>  0 0.67668723E+03</rscale>
<asrwt>0</asrwt>
<pdfrwt beam="1">  1        2 0.17574317E+00 0.77910135E+03</pdfrwt>
<pdfrwt beam="2">  1       -2 0.14898890E+00 0.77910135E+03</pdfrwt>
<totfact> 0.63629351E+00</totfact>
</mgrwt>
</event>
<event>
 4    1  0.7595604E-007  0.9412111E+03  0.7818608E-02  0.9462874E-01
          2   -1    0    0  501    0  0.00000000000E+00  0.00000000000E+00  0.30163682880E+04  0.30163682880E+04  0.25500000000E-02 0. -1.
         -2   -1    0    0    0  501 -0.00000000000E+00 -0.00000000000E+00 -0.46337944982E+03  0.46337944983E+03  0.25500000000E-02 0.  1.
    8880023    1    1    2    0    0  0.66108575342E+03  0.12261206651E+03  0.11748508669E+03  0.94851517863E+03  0.65864270000E+03 0.  1.
    8880022    1    1    2    0    0 -0.66108575342E+03 -0.12261206651E+03  0.24355037515E+04  0.25312325592E+04  0.15294330000E+03 0.  0.
<mgrwt>
<rscale>  0 0.87077207E+03</rscale>
<asrwt>0</asrwt>
<pdfrwt beam="1">  1        2 0.46405668E+00 0.94121108E+03</pdfrwt>
<pdfrwt beam="2">  1       -2 0.71289142E-01 0.94121108E+03</pdfrwt>
<totfact> 0.31332298E+00</totfact>
</mgrwt>
</event>
<event>
 4    1  0.7595604E-007  0.6866266E+03  0.7818608E-02  0.1005799E+00
         -2   -1    0    0    0  501 -0.00000000000E+00  0.00000000000E+00  0.31390366446E+03  0.31390366447E+03  0.25500000000E-02 0.  1.
          2   -1    0    0  501    0  0.00000000000E+00 -0.00000000000E+00 -0.16264722139E+04  0.16264722139E+04  0.25500000000E-02 0. -1.
    8880023    1    1    2    0    0  0.56820444765E+02  0.18551923623E+03 -0.89301402498E+02  0.69240948629E+03  0.65864270000E+03 0.  1.
    8880022    1    1    2    0    0 -0.56820444765E+02 -0.18551923623E+03 -0.12232671469E+04  0.12479663921E+04  0.15294330000E+03 0.  0.
<mgrwt>
<rscale>  0 0.53179001E+03</rscale>
<asrwt>0</asrwt>
<pdfrwt beam="1">  1        2 0.25022649E+00 0.68662665E+03</pdfrwt>
<pdfrwt beam="2">  1       -2 0.48292872E-01 0.68662665E+03</pdfrwt>
<totfact> 0.45161261E+01</totfact>
</mgrwt>
</event>
<event>
 4    1  0.7595604E-007  0.6872086E+03  0.7818608E-02  0.1005509E+00
          2   -1    0    0  501    0  0.00000000000E+00  0.00000000000E+00  0.35861375803E+04  0.35861375803E+04  0.25500000000E-02 0. -1.
         -2   -1    0    0    0  501 -0.00000000000E+00 -0.00000000000E+00 -0.72386256662E+02  0.72386256707E+02  0.25500000000E-02 0.  1.
    8880023    1    1    2    0    0 -0.14560958066E+03 -0.13131363725E+03  0.17981329372E+04  0.19249773212E+04  0.65864270000E+03 0.  0.
    8880022    1    1    2    0    0  0.14560958066E+03  0.13131363725E+03  0.17156183865E+04  0.17335465158E+04  0.15294330000E+03 0.  0.
<mgrwt>
<rscale>  0 0.53299428E+03</rscale>
<asrwt>0</asrwt>
<pdfrwt beam="1">  1        2 0.55171360E+00 0.68720858E+03</pdfrwt>
<pdfrwt beam="2">  1       -2 0.11136345E-01 0.68720858E+03</pdfrwt>
<totfact> 0.44366506E+01</totfact>
</mgrwt>
</event>
<event>
 4    1  0.7595604E-007  0.6754195E+03  0.7818608E-02  0.1012043E+00
         -2   -1    0    0    0  501 -0.00000000000E+00  0.00000000000E+00  0.88336886519E+02  0.88336886556E+02  0.25500000000E-02 0.  1.
          2   -1    0    0  501    0  0.00000000000E+00 -0.00000000000E+00 -0.22432451596E+04  0.22432451596E+04  0.25500000000E-02 0. -1.
    8880023    1    1    2    0    0  0.33988550185E+02  0.14569163101E+03 -0.15895252554E+04  0.17270732517E+04  0.65864270000E+03 0.  1.
    8880022    1    1    2    0    0 -0.33988550185E+02 -0.14569163101E+03 -0.56538301763E+03  0.60450879442E+03  0.15294330000E+03 0.  1.
<mgrwt>
<rscale>  0 0.50670626E+03</rscale>
<asrwt>0</asrwt>
<pdfrwt beam="1">  1        2 0.34511460E+00 0.67541948E+03</pdfrwt>
<pdfrwt beam="2">  1       -2 0.13590292E-01 0.67541948E+03</pdfrwt>
<totfact> 0.20960028E+02</totfact>
</mgrwt>
</event>
<event>
 4    1  0.7595604E-007  0.7955800E+03  0.7818608E-02  0.9720436E-01
          2   -1    0    0  501    0  0.00000000000E+00  0.00000000000E+00  0.58700512868E+03  0.58700512869E+03  0.25500000000E-02 0. -1.
         -2   -1    0    0    0  501 -0.00000000000E+00 -0.00000000000E+00 -0.78123133092E+03  0.78123133092E+03  0.25500000000E-02 0.  1.
    8880023    1    1    2    0    0  0.17543230764E+03  0.41031790074E+03 -0.35317431881E+03  0.87044791915E+03  0.65864270000E+03 0.  0.
    8880022    1    1    2    0    0 -0.17543230764E+03 -0.41031790074E+03  0.15894811657E+03  0.49778854046E+03  0.15294330000E+03 0.  0.
<mgrwt>
<rscale>  0 0.69812982E+03</rscale>
<asrwt>0</asrwt>
<pdfrwt beam="1">  1        2 0.90308481E-01 0.79557996E+03</pdfrwt>
<pdfrwt beam="2">  1       -2 0.12018944E+00 0.79557996E+03</pdfrwt>
<totfact> 0.27181973E+01</totfact>
</mgrwt>
</event>
<event>
 4    1  0.7595604E-007  0.6603749E+03  0.7818608E-02  0.1023776E+00
          2   -1    0    0  501    0  0.00000000000E+00  0.00000000000E+00  0.59375850322E+03  0.59375850323E+03  0.25500000000E-02 0. -1.
         -2   -1    0    0    0  501 -0.00000000000E+00 -0.00000000000E+00 -0.13901779720E+04  0.13901779720E+04  0.25500000000E-02 0.  1.
    8880023    1    1    2    0    0 -0.35354405329E+02 -0.32168370863E+02 -0.12985702678E+04  0.14568389358E+04  0.65864270000E+03 0.  1.
    8880022    1    1    2    0    0  0.35354405329E+02  0.32168370863E+02  0.50215079906E+03  0.52709753943E+03  0.15294330000E+03 0.  0.
<mgrwt>
<rscale>  0 0.46348389E+03</rscale>
<asrwt>0</asrwt>
<pdfrwt beam="1">  1        2 0.91347462E-01 0.66037485E+03</pdfrwt>
<pdfrwt beam="2">  1       -2 0.21387353E+00 0.66037485E+03</pdfrwt>
<totfact> 0.56198940E+00</totfact>
</mgrwt>
</event>
<event>
 4    1  0.7595604E-007  0.6772666E+03  0.7818608E-02  0.1010914E+00
         -2   -1    0    0    0  501 -0.00000000000E+00  0.00000000000E+00  0.24615847330E+03  0.24615847331E+03  0.25500000000E-02 0.  1.
          2   -1    0    0  501    0  0.00000000000E+00 -0.00000000000E+00 -0.83040205645E+03  0.83040205645E+03  0.25500000000E-02 0. -1.
    8880023    1    1    2    0    0 -0.84017664147E+02  0.13349463841E+03 -0.38003286397E+03  0.77660477100E+03  0.65864270000E+03 0.  0.
    8880022    1    1    2    0    0  0.84017664147E+02 -0.13349463841E+03 -0.20421071918E+03  0.29995575876E+03  0.15294330000E+03 0.  1.
<mgrwt>
<rscale>  0 0.51112957E+03</rscale>
<asrwt>0</asrwt>
<pdfrwt beam="1">  1        2 0.12775416E+00 0.67726656E+03</pdfrwt>
<pdfrwt beam="2">  1       -2 0.37870535E-01 0.67726656E+03</pdfrwt>
<totfact> 0.21840549E+02</totfact>
</mgrwt>
</event>
<event>
 4    1  0.7595604E-007  0.6734191E+03  0.7818608E-02  0.1013322E+00
         -2   -1    0    0    0  501 -0.00000000000E+00  0.00000000000E+00  0.34724132757E+03  0.34724132758E+03  0.25500000000E-02 0.  1.
          2   -1    0    0  501    0  0.00000000000E+00 -0.00000000000E+00 -0.11166015014E+04  0.11166015014E+04  0.25500000000E-02 0. -1.
    8880023    1    1    2    0    0  0.12335888760E+03 -0.66825754863E+02 -0.67055168271E+01  0.67345249787E+03  0.65864270000E+03 0.  1.
    8880022    1    1    2    0    0 -0.12335888760E+03  0.66825754863E+02 -0.76265465700E+03  0.79039033112E+03  0.15294330000E+03 0.  0.
<mgrwt>
<rscale>  0 0.50175525E+03</rscale>
<asrwt>0</asrwt>
<pdfrwt beam="1">  1        2 0.17178485E+00 0.67341911E+03</pdfrwt>
<pdfrwt beam="2">  1       -2 0.53421743E-01 0.67341911E+03</pdfrwt>
<totfact> 0.71871327E+01</totfact>
</mgrwt>
</event>
<event>
 4    1  0.7595604E-007  0.7923257E+03  0.7818608E-02  0.9727642E-01
          2   -1    0    0  501    0  0.00000000000E+00  0.00000000000E+00  0.22211228577E+04  0.22211228577E+04  0.25500000000E-02 0. -1.
         -2   -1    0    0    0  501 -0.00000000000E+00 -0.00000000000E+00 -0.27516016916E+03  0.27516016917E+03  0.25500000000E-02 0.  1.
    8880023    1    1    2    0    0 -0.42537618723E+03 -0.11412682167E+03  0.41201338837E+03  0.89304819050E+03  0.65864270000E+03 0.  0.
    8880022    1    1    2    0    0  0.42537618723E+03  0.11412682167E+03  0.15339493001E+04  0.16032348363E+04  0.15294330000E+03 0.  0.
<mgrwt>
<rscale>  0 0.69394594E+03</rscale>
<asrwt>0</asrwt>
<pdfrwt beam="1">  1        2 0.34171121E+00 0.79232571E+03</pdfrwt>
<pdfrwt beam="2">  1       -2 0.42332334E-01 0.79232571E+03</pdfrwt>
<totfact> 0.27417482E+01</totfact>
</mgrwt>
</event>
<event>
 4    1  0.7595604E-007  0.1145695E+04  0.7818608E-02  0.9211808E-01
          2   -1    0    0  501    0  0.00000000000E+00  0.00000000000E+00  0.14673989437E+04  0.14673989437E+04  0.25500000000E-02 0. -1.
         -2   -1    0    0    0  501 -0.00000000000E+00 -0.00000000000E+00 -0.17923758217E+04  0.17923758217E+04  0.25500000000E-02 0.  1.
    8880023    1    1    2    0    0 -0.91277687664E+03 -0.21364791605E+03 -0.14106208242E+04  0.18172694831E+04  0.65864270000E+03 0.  0.
    8880022    1    1    2    0    0  0.91277687664E+03  0.21364791605E+03  0.10856439461E+04  0.14425052823E+04  0.15294330000E+03 0.  0.
<mgrwt>
<rscale>  0 0.10932376E+04</rscale>
<asrwt>0</asrwt>
<pdfrwt beam="1">  1        2 0.22575368E+00 0.11456951E+04</pdfrwt>
<pdfrwt beam="2">  1       -2 0.27575013E+00 0.11456951E+04</pdfrwt>
<totfact> 0.58059827E-01</totfact>
</mgrwt>
</event>
<event>
 4    1  0.7595604E-007  0.6974858E+03  0.7818608E-02  0.1000780E+00
          2   -1    0    0  501    0  0.00000000000E+00  0.00000000000E+00  0.15921672045E+04  0.15921672045E+04  0.25500000000E-02 0. -1.
         -2   -1    0    0    0  501 -0.00000000000E+00 -0.00000000000E+00 -0.20509891653E+03  0.20509891654E+03  0.25500000000E-02 0.  1.
    8880023    1    1    2    0    0 -0.21055923002E+03 -0.91329512922E+02  0.47362725185E+03  0.84309504164E+03  0.65864270000E+03 0.  0.
    8880022    1    1    2    0    0  0.21055923002E+03  0.91329512922E+02  0.91344103610E+03  0.95417107938E+03  0.15294330000E+03 0.  0.
<mgrwt>
<rscale>  0 0.55309755E+03</rscale>
<asrwt>0</asrwt>
<pdfrwt beam="1">  1        2 0.24494881E+00 0.69748582E+03</pdfrwt>
<pdfrwt beam="2">  1       -2 0.31553678E-01 0.69748582E+03</pdfrwt>
<totfact> 0.10759956E+02</totfact>
</mgrwt>
</event>
<event>
 4    1  0.7595604E-007  0.1271440E+04  0.7818608E-02  0.9090624E-01
         -2   -1    0    0    0  501 -0.00000000000E+00  0.00000000000E+00  0.10969475493E+04  0.10969475494E+04  0.25500000000E-02 0.  1.
          2   -1    0    0  501    0  0.00000000000E+00 -0.00000000000E+00 -0.14625236506E+04  0.14625236506E+04  0.25500000000E-02 0. -1.
    8880023    1    1    2    0    0  0.68060326075E+03 -0.84825095268E+03  0.25682832834E+03  0.12971204546E+04  0.65864270000E+03 0.  0.
    8880022    1    1    2    0    0 -0.68060326075E+03  0.84825095268E+03 -0.62240442958E+03  0.12623507453E+04  0.15294330000E+03 0.  0.
<mgrwt>
<rscale>  0 0.12257356E+04</rscale>
<asrwt>0</asrwt>
<pdfrwt beam="1">  1        2 0.22500364E+00 0.12714404E+04</pdfrwt>
<pdfrwt beam="2">  1       -2 0.16876116E+00 0.12714404E+04</pdfrwt>
<totfact> 0.27956701E+00</totfact>
</mgrwt>
</event>
<event>
 4    1  0.7595604E-007  0.7440791E+03  0.7818608E-02  0.9848220E-01
          2   -1    0    0  501    0  0.00000000000E+00  0.00000000000E+00  0.19308161269E+04  0.19308161269E+04  0.25500000000E-02 0. -1.
         -2   -1    0    0    0  501 -0.00000000000E+00 -0.00000000000E+00 -0.55638428717E+03  0.55638428717E+03  0.25500000000E-02 0.  1.
    8880023    1    1    2    0    0 -0.34252122120E+03  0.50226343900E+02 -0.27623678888E+03  0.79370047397E+03  0.65864270000E+03 0.  1.
    8880022    1    1    2    0    0  0.34252122120E+03 -0.50226343900E+02  0.16506686286E+04  0.16934999401E+04  0.15294330000E+03 0.  0.
<mgrwt>
<rscale>  0 0.62837734E+03</rscale>
<asrwt>0</asrwt>
<pdfrwt beam="1">  1        2 0.29704864E+00 0.74407908E+03</pdfrwt>
<pdfrwt beam="2">  1       -2 0.85597582E-01 0.74407908E+03</pdfrwt>
<totfact> 0.89575630E+00</totfact>
</mgrwt>
</event>
<event>
 4    1  0.7595604E-007  0.8033078E+03  0.7818608E-02  0.9703689E-01
         -2   -1    0    0    0  501 -0.00000000000E+00  0.00000000000E+00  0.91006838967E+03  0.91006838968E+03  0.25500000000E-02 0.  1.
          2   -1    0    0  501    0  0.00000000000E+00 -0.00000000000E+00 -0.95572789655E+03  0.95572789655E+03  0.25500000000E-02 0. -1.
    8880023    1    1    2    0    0  0.18554321480E+03 -0.42079324241E+03  0.63934718071E+03  0.10266782656E+04  0.65864270000E+03 0.  0.
    8880022    1    1    2    0    0 -0.18554321480E+03  0.42079324241E+03 -0.68500668758E+03  0.83911802058E+03  0.15294330000E+03 0.  0.
<mgrwt>
<rscale>  0 0.70797574E+03</rscale>
<asrwt>0</asrwt>
<pdfrwt beam="1">  1        2 0.14703506E+00 0.80330781E+03</pdfrwt>
<pdfrwt beam="2">  1       -2 0.14001052E+00 0.80330781E+03</pdfrwt>
<totfact> 0.97719933E+00</totfact>
</mgrwt>
</event>
<event>
 4    1  0.7595604E-007  0.1017229E+04  0.7818608E-02  0.9359356E-01
          2   -1    0    0  501    0  0.00000000000E+00  0.00000000000E+00  0.18921281882E+04  0.18921281882E+04  0.25500000000E-02 0. -1.
         -2   -1    0    0    0  501 -0.00000000000E+00 -0.00000000000E+00 -0.89971858548E+03  0.89971858548E+03  0.25500000000E-02 0.  1.
    8880023    1    1    2    0    0 -0.11795915372E+03  0.76617898001E+03 -0.47696172210E+03  0.11234977890E+04  0.65864270000E+03 0.  0.
    8880022    1    1    2    0    0  0.11795915372E+03 -0.76617898001E+03  0.14693713249E+04  0.16683489847E+04  0.15294330000E+03 0.  0.
<mgrwt>
<rscale>  0 0.95497359E+03</rscale>
<asrwt>0</asrwt>
<pdfrwt beam="1">  1        2 0.29109664E+00 0.10172290E+04</pdfrwt>
<pdfrwt beam="2">  1       -2 0.13841824E+00 0.10172290E+04</pdfrwt>
<totfact> 0.28218197E+00</totfact>
</mgrwt>
</event>
<event>
 4    1  0.7595604E-007  0.6775017E+03  0.7818608E-02  0.1010774E+00
         -2   -1    0    0    0  501 -0.00000000000E+00  0.00000000000E+00  0.58926839767E+03  0.58926839767E+03  0.25500000000E-02 0.  1.
          2   -1    0    0  501    0  0.00000000000E+00 -0.00000000000E+00 -0.44880504812E+03  0.44880504812E+03  0.25500000000E-02 0. -1.
    8880023    1    1    2    0    0 -0.87740573113E+02 -0.13228738590E+03  0.32423043675E+03  0.75108850545E+03  0.65864270000E+03 0.  1.
    8880022    1    1    2    0    0  0.87740573113E+02  0.13228738590E+03 -0.18376708720E+03  0.28698494035E+03  0.15294330000E+03 0.  1.
<mgrwt>
<rscale>  0 0.51168322E+03</rscale>
<asrwt>0</asrwt>
<pdfrwt beam="1">  1        2 0.69046930E-01 0.67750171E+03</pdfrwt>
<pdfrwt beam="2">  1       -2 0.90656677E-01 0.67750171E+03</pdfrwt>
<totfact> 0.73617562E+01</totfact>
</mgrwt>
</event>
<event>
 4    1  0.7595604E-007  0.7086481E+03  0.7818608E-02  0.9963056E-01
          2   -1    0    0  501    0  0.00000000000E+00  0.00000000000E+00  0.13263341700E+04  0.13263341700E+04  0.25500000000E-02 0. -1.
         -2   -1    0    0    0  501 -0.00000000000E+00 -0.00000000000E+00 -0.59897361917E+03  0.59897361918E+03  0.25500000000E-02 0.  1.
    8880023    1    1    2    0    0  0.22876019661E+03 -0.12665213155E+03 -0.36119472663E+03  0.79538910402E+03  0.65864270000E+03 0.  1.
    8880022    1    1    2    0    0 -0.22876019661E+03  0.12665213155E+03  0.10885552775E+04  0.11299186852E+04  0.15294330000E+03 0.  0.
<mgrwt>
<rscale>  0 0.57300290E+03</rscale>
<asrwt>0</asrwt>
<pdfrwt beam="1">  1        2 0.20405141E+00 0.70864815E+03</pdfrwt>
<pdfrwt beam="2">  1       -2 0.92149789E-01 0.70864815E+03</pdfrwt>
<totfact> 0.16389623E+01</totfact>
</mgrwt>
</event>
<event>
 4    1  0.7595604E-007  0.1143178E+04  0.7818608E-02  0.9214440E-01
          2   -1    0    0  501    0  0.00000000000E+00  0.00000000000E+00  0.14359732381E+04  0.14359732381E+04  0.25500000000E-02 0. -1.
         -2   -1    0    0    0  501 -0.00000000000E+00 -0.00000000000E+00 -0.93798093343E+03  0.93798093343E+03  0.25500000000E-02 0.  1.
    8880023    1    1    2    0    0 -0.68447779468E+03 -0.63603142986E+03  0.78248764411E+03  0.13853313505E+04  0.65864270000E+03 0. -1.
    8880022    1    1    2    0    0  0.68447779468E+03  0.63603142986E+03 -0.28449533941E+03  0.98862282107E+03  0.15294330000E+03 0.  0.
<mgrwt>
<rscale>  0 0.10905621E+04</rscale>
<asrwt>0</asrwt>
<pdfrwt beam="1">  1        2 0.22091896E+00 0.11431780E+04</pdfrwt>
<pdfrwt beam="2">  1       -2 0.14430476E+00 0.11431780E+04</pdfrwt>
<totfact> 0.44784119E+00</totfact>
</mgrwt>
</event>
<event>
 4    1  0.7595604E-007  0.7281844E+03  0.7818608E-02  0.9895807E-01
         -2   -1    0    0    0  501 -0.00000000000E+00  0.00000000000E+00  0.39981747225E+03  0.39981747226E+03  0.25500000000E-02 0.  1.
          2   -1    0    0  501    0  0.00000000000E+00 -0.00000000000E+00 -0.84119217088E+03  0.84119217088E+03  0.25500000000E-02 0. -1.
    8880023    1    1    2    0    0 -0.24257492143E+03 -0.19390632795E+03 -0.67222634093E+02  0.73128062009E+03  0.65864270000E+03 0.  1.
    8880022    1    1    2    0    0  0.24257492143E+03  0.19390632795E+03 -0.37415206454E+03  0.50972902305E+03  0.15294330000E+03 0. -1.
<mgrwt>
<rscale>  0 0.60464919E+03</rscale>
<asrwt>0</asrwt>
<pdfrwt beam="1">  1        2 0.12941418E+00 0.72818436E+03</pdfrwt>
<pdfrwt beam="2">  1       -2 0.61510380E-01 0.72818436E+03</pdfrwt>
<totfact> 0.80260182E+01</totfact>
</mgrwt>
</event>
<event>
 4    1  0.7595604E-007  0.7326237E+03  0.7818608E-02  0.9881979E-01
          2   -1    0    0  501    0  0.00000000000E+00  0.00000000000E+00  0.16611022940E+04  0.16611022940E+04  0.25500000000E-02 0. -1.
         -2   -1    0    0    0  501 -0.00000000000E+00 -0.00000000000E+00 -0.23291021525E+03  0.23291021526E+03  0.25500000000E-02 0.  1.
    8880023    1    1    2    0    0 -0.16325160548E+03 -0.27618140138E+03  0.46598250469E+03  0.86826099423E+03  0.65864270000E+03 0.  1.
    8880022    1    1    2    0    0  0.16325160548E+03  0.27618140138E+03  0.96220957405E+03  0.10257515150E+04  0.15294330000E+03 0.  0.
<mgrwt>
<rscale>  0 0.61142650E+03</rscale>
<asrwt>0</asrwt>
<pdfrwt beam="1">  1        2 0.25555420E+00 0.73262368E+03</pdfrwt>
<pdfrwt beam="2">  1       -2 0.35832341E-01 0.73262368E+03</pdfrwt>
<totfact> 0.77274226E+01</totfact>
</mgrwt>
</event>
<event>
 4    1  0.7595604E-007  0.9968047E+03  0.7818608E-02  0.9385750E-01
          2   -1    0    0  501    0  0.00000000000E+00  0.00000000000E+00  0.26814321496E+04  0.26814321496E+04  0.25500000000E-02 0. -1.
         -2   -1    0    0    0  501 -0.00000000000E+00 -0.00000000000E+00 -0.90470988076E+03  0.90470988077E+03  0.25500000000E-02 0.  1.
    8880023    1    1    2    0    0  0.45431221923E+03  0.59448277242E+03 -0.54918031515E+03  0.11380767039E+04  0.65864270000E+03 0.  1.
    8880022    1    1    2    0    0 -0.45431221923E+03 -0.59448277242E+03  0.23259025840E+04  0.24480653265E+04  0.15294330000E+03 0.  0.
<mgrwt>
<rscale>  0 0.93257729E+03</rscale>
<asrwt>0</asrwt>
<pdfrwt beam="1">  1        2 0.41252803E+00 0.99680468E+03</pdfrwt>
<pdfrwt beam="2">  1       -2 0.13918613E+00 0.99680468E+03</pdfrwt>
<totfact> 0.10034981E+00</totfact>
</mgrwt>
</event>
<event>
 4    1  0.7595604E-007  0.9862592E+03  0.7818608E-02  0.9399760E-01
          2   -1    0    0  501    0  0.00000000000E+00  0.00000000000E+00  0.19263063204E+04  0.19263063204E+04  0.25500000000E-02 0. -1.
         -2   -1    0    0    0  501 -0.00000000000E+00 -0.00000000000E+00 -0.75062300758E+03  0.75062300758E+03  0.25500000000E-02 0.  1.
    8880023    1    1    2    0    0 -0.32645136577E+03  0.65751534035E+03  0.15512870724E+04  0.18382596945E+04  0.65864270000E+03 0. -1.
    8880022    1    1    2    0    0  0.32645136577E+03 -0.65751534035E+03 -0.37560375956E+03  0.83866963354E+03  0.15294330000E+03 0.  0.
<mgrwt>
<rscale>  0 0.92095454E+03</rscale>
<asrwt>0</asrwt>
<pdfrwt beam="1">  1        2 0.29635482E+00 0.98625916E+03</pdfrwt>
<pdfrwt beam="2">  1       -2 0.11548046E+00 0.98625916E+03</pdfrwt>
<totfact> 0.42859115E+00</totfact>
</mgrwt>
</event>
<event>
 4    1  0.7595604E-007  0.7334092E+03  0.7818608E-02  0.9879579E-01
          2   -1    0    0  501    0  0.00000000000E+00  0.00000000000E+00  0.19830231962E+04  0.19830231962E+04  0.25500000000E-02 0. -1.
         -2   -1    0    0    0  501 -0.00000000000E+00 -0.00000000000E+00 -0.41378313670E+03  0.41378313671E+03  0.25500000000E-02 0.  1.
    8880023    1    1    2    0    0  0.51521599080E+02  0.31847202556E+03 -0.53400990031E+02  0.73535078584E+03  0.65864270000E+03 0.  1.
    8880022    1    1    2    0    0 -0.51521599080E+02 -0.31847202556E+03  0.16226410495E+04  0.16614555470E+04  0.15294330000E+03 0.  0.
<mgrwt>
<rscale>  0 0.61261273E+03</rscale>
<asrwt>0</asrwt>
<pdfrwt beam="1">  1        2 0.30508049E+00 0.73340924E+03</pdfrwt>
<pdfrwt beam="2">  1       -2 0.63658945E-01 0.73340924E+03</pdfrwt>
<totfact> 0.16160844E+01</totfact>
</mgrwt>
</event>
<event>
 4    1  0.7595604E-007  0.6779109E+03  0.7818608E-02  0.1010531E+00
          2   -1    0    0  501    0  0.00000000000E+00  0.00000000000E+00  0.13017502965E+04  0.13017502965E+04  0.25500000000E-02 0. -1.
         -2   -1    0    0    0  501 -0.00000000000E+00 -0.00000000000E+00 -0.43385271128E+03  0.43385271129E+03  0.25500000000E-02 0.  1.
    8880023    1    1    2    0    0 -0.14010835300E+03 -0.78246906615E+02 -0.14961200583E+03  0.69422394623E+03  0.65864270000E+03 0.  1.
    8880022    1    1    2    0    0  0.14010835300E+03  0.78246906615E+02  0.10175095910E+04  0.10413790615E+04  0.15294330000E+03 0.  0.
<mgrwt>
<rscale>  0 0.51264166E+03</rscale>
<asrwt>0</asrwt>
<pdfrwt beam="1">  1        2 0.20026928E+00 0.67791086E+03</pdfrwt>
<pdfrwt beam="2">  1       -2 0.66746571E-01 0.67791086E+03</pdfrwt>
<totfact> 0.34956073E+01</totfact>
</mgrwt>
</event>
<event>
 4    1  0.7595604E-007  0.8936282E+03  0.7818608E-02  0.9536339E-01
         -2   -1    0    0    0  501 -0.00000000000E+00  0.00000000000E+00  0.75377265946E+03  0.75377265946E+03  0.25500000000E-02 0.  1.
          2   -1    0    0  501    0  0.00000000000E+00 -0.00000000000E+00 -0.18574964920E+04  0.18574964920E+04  0.25500000000E-02 0. -1.
    8880023    1    1    2    0    0 -0.52289817282E+03  0.30222270997E+03 -0.15879984009E+04  0.18221718341E+04  0.65864270000E+03 0. -1.
    8880022    1    1    2    0    0  0.52289817282E+03 -0.30222270997E+03  0.48427456840E+03  0.78909731730E+03  0.15294330000E+03 0.  0.
<mgrwt>
<rscale>  0 0.81656913E+03</rscale>
<asrwt>0</asrwt>
<pdfrwt beam="1">  1        2 0.28576869E+00 0.89362815E+03</pdfrwt>
<pdfrwt beam="2">  1       -2 0.11596502E+00 0.89362815E+03</pdfrwt>
<totfact> 0.46832592E+00</totfact>
</mgrwt>
</event>
<event>
 4    1  0.7595604E-007  0.6588046E+03  0.7818608E-02  0.1025416E+00
          2   -1    0    0  501    0  0.00000000000E+00  0.00000000000E+00  0.56518701355E+03  0.56518701355E+03  0.25500000000E-02 0. -1.
         -2   -1    0    0    0  501 -0.00000000000E+00 -0.00000000000E+00 -0.34733928073E+03  0.34733928074E+03  0.25500000000E-02 0.  1.
    8880023    1    1    2    0    0 -0.14191094703E+02 -0.34544278881E+01  0.16182372441E+02  0.65900333511E+03  0.65864270000E+03 0.  0.
    8880022    1    1    2    0    0  0.14191094703E+02  0.34544278881E+01  0.20166536038E+03  0.25352295918E+03  0.15294330000E+03 0. -1.
<mgrwt>
<rscale>  0 0.45781805E+03</rscale>
<asrwt>0</asrwt>
<pdfrwt beam="1">  1        2 0.86951848E-01 0.65880462E+03</pdfrwt>
<pdfrwt beam="2">  1       -2 0.53436813E-01 0.65880462E+03</pdfrwt>
<totfact> 0.17842203E+02</totfact>
</mgrwt>
</event>
<event>
 4    1  0.7595604E-007  0.7200873E+03  0.7818608E-02  0.9922291E-01
         -2   -1    0    0    0  501 -0.00000000000E+00  0.00000000000E+00  0.69356515588E+03  0.69356515589E+03  0.25500000000E-02 0.  1.
          2   -1    0    0  501    0  0.00000000000E+00 -0.00000000000E+00 -0.48961838733E+03  0.48961838734E+03  0.25500000000E-02 0. -1.
    8880023    1    1    2    0    0  0.15801517798E+02 -0.29063007793E+03  0.37572775390E+03  0.81221738560E+03  0.65864270000E+03 0.  1.
    8880022    1    1    2    0    0 -0.15801517798E+02  0.29063007793E+03 -0.17178098535E+03  0.37096615762E+03  0.15294330000E+03 0. -1.
<mgrwt>
<rscale>  0 0.59193046E+03</rscale>
<asrwt>0</asrwt>
<pdfrwt beam="1">  1        2 0.75325906E-01 0.72008731E+03</pdfrwt>
<pdfrwt beam="2">  1       -2 0.10670233E+00 0.72008731E+03</pdfrwt>
<totfact> 0.45243557E+01</totfact>
</mgrwt>
</event>
<event>
 4    1  0.7595604E-007  0.7245934E+03  0.7818608E-02  0.9907339E-01
         -2   -1    0    0    0  501 -0.00000000000E+00  0.00000000000E+00  0.49551823803E+03  0.49551823804E+03  0.25500000000E-02 0.  1.
          2   -1    0    0  501    0  0.00000000000E+00 -0.00000000000E+00 -0.81406314822E+03  0.81406314822E+03  0.25500000000E-02 0. -1.
    8880023    1    1    2    0    0  0.48522135309E+02 -0.29811233634E+03  0.14161110814E+03  0.73830161513E+03  0.65864270000E+03 0.  1.
    8880022    1    1    2    0    0 -0.48522135309E+02  0.29811233634E+03 -0.46015601832E+03  0.57127977113E+03  0.15294330000E+03 0.  0.
<mgrwt>
<rscale>  0 0.59906909E+03</rscale>
<asrwt>0</asrwt>
<pdfrwt beam="1">  1        2 0.12524048E+00 0.72459338E+03</pdfrwt>
<pdfrwt beam="2">  1       -2 0.76233575E-01 0.72459338E+03</pdfrwt>
<totfact> 0.52639335E+01</totfact>
</mgrwt>
</event>
<event>
 4    1  0.7595604E-007  0.1230754E+04  0.7818608E-02  0.9127792E-01
         -2   -1    0    0    0  501 -0.00000000000E+00  0.00000000000E+00  0.22042730275E+04  0.22042730275E+04  0.25500000000E-02 0.  1.
          2   -1    0    0  501    0  0.00000000000E+00 -0.00000000000E+00 -0.15587137983E+04  0.15587137983E+04  0.25500000000E-02 0. -1.
    8880023    1    1    2    0    0 -0.59450043220E+03  0.85294435929E+03  0.18136070567E+04  0.21917859399E+04  0.65864270000E+03 0.  1.
    8880022    1    1    2    0    0  0.59450043220E+03 -0.85294435929E+03 -0.11680478274E+04  0.15712008859E+04  0.15294330000E+03 0.  0.
<mgrwt>
<rscale>  0 0.11830854E+04</rscale>
<asrwt>0</asrwt>
<pdfrwt beam="1">  1        2 0.23980212E+00 0.12307539E+04</pdfrwt>
<pdfrwt beam="2">  1       -2 0.33911893E+00 0.12307539E+04</pdfrwt>
<totfact> 0.20880755E-01</totfact>
</mgrwt>
</event>
<event>
 4    1  0.7595604E-007  0.6952249E+03  0.7818608E-02  0.1001762E+00
          2   -1    0    0  501    0  0.00000000000E+00  0.00000000000E+00  0.18950458147E+04  0.18950458147E+04  0.25500000000E-02 0. -1.
         -2   -1    0    0    0  501 -0.00000000000E+00 -0.00000000000E+00 -0.15816804196E+03  0.15816804198E+03  0.25500000000E-02 0.  1.
    8880023    1    1    2    0    0  0.47046827163E+01  0.22249782943E+03  0.71909446868E+03  0.10002172161E+04  0.65864270000E+03 0.  1.
    8880022    1    1    2    0    0 -0.47046827163E+01 -0.22249782943E+03  0.10177833040E+04  0.10529966406E+04  0.15294330000E+03 0.  0.
<mgrwt>
<rscale>  0 0.54884425E+03</rscale>
<asrwt>0</asrwt>
<pdfrwt beam="1">  1        2 0.29154551E+00 0.69522487E+03</pdfrwt>
<pdfrwt beam="2">  1       -2 0.24333545E-01 0.69522487E+03</pdfrwt>
<totfact> 0.11838646E+02</totfact>
</mgrwt>
</event>
<event>
 4    1  0.7595604E-007  0.6596605E+03  0.7818608E-02  0.1024507E+00
          2   -1    0    0  501    0  0.00000000000E+00  0.00000000000E+00  0.19992050823E+03  0.19992050825E+03  0.25500000000E-02 0. -1.
         -2   -1    0    0    0  501 -0.00000000000E+00 -0.00000000000E+00 -0.15419601221E+04  0.15419601221E+04  0.25500000000E-02 0.  1.
    8880023    1    1    2    0    0  0.36616887388E+02 -0.95364852132E+00 -0.14204483710E+04  0.15661498929E+04  0.65864270000E+03 0.  1.
    8880022    1    1    2    0    0 -0.36616887388E+02  0.95364852132E+00  0.78408757152E+02  0.17573073749E+03  0.15294330000E+03 0.  0.
<mgrwt>
<rscale>  0 0.46094671E+03</rscale>
<asrwt>0</asrwt>
<pdfrwt beam="1">  1        2 0.30757002E-01 0.65966045E+03</pdfrwt>
<pdfrwt beam="2">  1       -2 0.23722463E+00 0.65966045E+03</pdfrwt>
<totfact> 0.13770754E+01</totfact>
</mgrwt>
</event>
<event>
 4    1  0.7595604E-007  0.6844317E+03  0.7818608E-02  0.1006920E+00
          2   -1    0    0  501    0  0.00000000000E+00  0.00000000000E+00  0.14160024612E+04  0.14160024612E+04  0.25500000000E-02 0. -1.
         -2   -1    0    0    0  501 -0.00000000000E+00 -0.00000000000E+00 -0.26680888322E+03  0.26680888323E+03  0.25500000000E-02 0.  1.
    8880023    1    1    2    0    0  0.23335698532E+02 -0.18464013549E+03  0.21402374656E+03  0.71711428993E+03  0.65864270000E+03 0.  1.
    8880022    1    1    2    0    0 -0.23335698532E+02  0.18464013549E+03  0.93516983143E+03  0.96569705451E+03  0.15294330000E+03 0.  0.
<mgrwt>
<rscale>  0 0.52717215E+03</rscale>
<asrwt>0</asrwt>
<pdfrwt beam="1">  1        2 0.21784652E+00 0.68443169E+03</pdfrwt>
<pdfrwt beam="2">  1       -2 0.41047522E-01 0.68443169E+03</pdfrwt>
<totfact> 0.81626425E+01</totfact>
</mgrwt>
</event>
<event>
 4    1  0.7595604E-007  0.9098301E+03  0.7818608E-02  0.9510432E-01
         -2   -1    0    0    0  501 -0.00000000000E+00  0.00000000000E+00  0.22095597711E+03  0.22095597712E+03  0.25500000000E-02 0.  1.
          2   -1    0    0  501    0  0.00000000000E+00 -0.00000000000E+00 -0.29819117202E+04  0.29819117202E+04  0.25500000000E-02 0. -1.
    8880023    1    1    2    0    0 -0.60190223640E+03  0.17802918391E+03 -0.20465088801E+04  0.22396404835E+04  0.65864270000E+03 0.  0.
    8880022    1    1    2    0    0  0.60190223640E+03 -0.17802918391E+03 -0.71444686299E+03  0.96322721388E+03  0.15294330000E+03 0.  0.
<mgrwt>
<rscale>  0 0.83519080E+03</rscale>
<asrwt>0</asrwt>
<pdfrwt beam="1">  1        2 0.45875562E+00 0.90983015E+03</pdfrwt>
<pdfrwt beam="2">  1       -2 0.33993229E-01 0.90983015E+03</pdfrwt>
<totfact> 0.14975193E+01</totfact>
</mgrwt>
</event>
<event>
 4    1  0.7595604E-007  0.7113090E+03  0.7818608E-02  0.9953172E-01
         -2   -1    0    0    0  501 -0.00000000000E+00  0.00000000000E+00  0.32890395102E+03  0.32890395103E+03  0.25500000000E-02 0.  1.
          2   -1    0    0  501    0  0.00000000000E+00 -0.00000000000E+00 -0.19578235132E+04  0.19578235132E+04  0.25500000000E-02 0. -1.
    8880023    1    1    2    0    0  0.16176296646E+03 -0.21443655296E+03 -0.89891454323E+02  0.71696650716E+03  0.65864270000E+03 0.  1.
    8880022    1    1    2    0    0 -0.16176296646E+03  0.21443655296E+03 -0.15390281078E+04  0.15697609570E+04  0.15294330000E+03 0. -1.
<mgrwt>
<rscale>  0 0.57752128E+03</rscale>
<asrwt>0</asrwt>
<pdfrwt beam="1">  1        2 0.30120361E+00 0.71130900E+03</pdfrwt>
<pdfrwt beam="2">  1       -2 0.50600609E-01 0.71130900E+03</pdfrwt>
<totfact> 0.27019618E+01</totfact>
</mgrwt>
</event>
<event>
 4    1  0.7595604E-007  0.7905495E+03  0.7818608E-02  0.9731615E-01
         -2   -1    0    0    0  501 -0.00000000000E+00  0.00000000000E+00  0.88862768013E+03  0.88862768014E+03  0.25500000000E-02 0.  1.
          2   -1    0    0  501    0  0.00000000000E+00 -0.00000000000E+00 -0.55361405675E+03  0.55361405676E+03  0.25500000000E-02 0. -1.
    8880023    1    1    2    0    0 -0.43574613758E+03  0.35827823781E+02 -0.11209731389E+03  0.79845747753E+03  0.65864270000E+03 0. -1.
    8880022    1    1    2    0    0  0.43574613758E+03 -0.35827823781E+02  0.44711093727E+03  0.64378425937E+03  0.15294330000E+03 0. -1.
<mgrwt>
<rscale>  0 0.69165237E+03</rscale>
<asrwt>0</asrwt>
<pdfrwt beam="1">  1        2 0.85171394E-01 0.79054951E+03</pdfrwt>
<pdfrwt beam="2">  1       -2 0.13671195E+00 0.79054951E+03</pdfrwt>
<totfact> 0.21069152E+01</totfact>
</mgrwt>
</event>
<event>
 4    1  0.7595604E-007  0.7255064E+03  0.7818608E-02  0.9904376E-01
         -2   -1    0    0    0  501 -0.00000000000E+00  0.00000000000E+00  0.42014914792E+03  0.42014914792E+03  0.25500000000E-02 0.  1.
          2   -1    0    0  501    0  0.00000000000E+00 -0.00000000000E+00 -0.11342474653E+04  0.11342474653E+04  0.25500000000E-02 0. -1.
    8880023    1    1    2    0    0 -0.27822900503E+03 -0.12303631406E+03  0.40392687317E+02  0.72662995346E+03  0.65864270000E+03 0.  1.
    8880022    1    1    2    0    0  0.27822900503E+03  0.12303631406E+03 -0.75449100465E+03  0.82776665972E+03  0.15294330000E+03 0.  0.
<mgrwt>
<rscale>  0 0.60049659E+03</rscale>
<asrwt>0</asrwt>
<pdfrwt beam="1">  1        2 0.17449961E+00 0.72550639E+03</pdfrwt>
<pdfrwt beam="2">  1       -2 0.64638331E-01 0.72550639E+03</pdfrwt>
<totfact> 0.46752084E+01</totfact>
</mgrwt>
</event>
<event>
 4    1  0.7595604E-007  0.6800229E+03  0.7818608E-02  0.1009311E+00
         -2   -1    0    0    0  501 -0.00000000000E+00  0.00000000000E+00  0.70820901856E+03  0.70820901857E+03  0.25500000000E-02 0.  1.
          2   -1    0    0  501    0  0.00000000000E+00 -0.00000000000E+00 -0.65376140459E+03  0.65376140460E+03  0.25500000000E-02 0. -1.
    8880023    1    1    2    0    0  0.13973320936E+03 -0.95370795636E+02  0.51167263224E+03  0.85102294171E+03  0.65864270000E+03 0.  1.
    8880022    1    1    2    0    0 -0.13973320936E+03  0.95370795636E+02 -0.45722501827E+03  0.51094748146E+03  0.15294330000E+03 0.  0.
<mgrwt>
<rscale>  0 0.51749510E+03</rscale>
<asrwt>0</asrwt>
<pdfrwt beam="1">  1        2 0.10057868E+00 0.68002291E+03</pdfrwt>
<pdfrwt beam="2">  1       -2 0.10895523E+00 0.68002291E+03</pdfrwt>
<totfact> 0.30595721E+01</totfact>
</mgrwt>
</event>
<event>
 4    1  0.7595604E-007  0.6881678E+03  0.7818608E-02  0.1005036E+00
          2   -1    0    0  501    0  0.00000000000E+00  0.00000000000E+00  0.13639156388E+04  0.13639156388E+04  0.25500000000E-02 0. -1.
         -2   -1    0    0    0  501 -0.00000000000E+00 -0.00000000000E+00 -0.41284749903E+03  0.41284749904E+03  0.25500000000E-02 0.  1.
    8880023    1    1    2    0    0  0.32044412985E+02 -0.19681949469E+03 -0.10060266460E+03  0.69548246583E+03  0.65864270000E+03 0.  1.
    8880022    1    1    2    0    0 -0.32044412985E+02  0.19681949469E+03  0.10516708044E+04  0.10812806720E+04  0.15294330000E+03 0.  0.
<mgrwt>
<rscale>  0 0.53496203E+03</rscale>
<asrwt>0</asrwt>
<pdfrwt beam="1">  1        2 0.20983318E+00 0.68816783E+03</pdfrwt>
<pdfrwt beam="2">  1       -2 0.63514999E-01 0.68816783E+03</pdfrwt>
<totfact> 0.35790730E+01</totfact>
</mgrwt>
</event>
<event>
 4    1  0.7595604E-007  0.7738788E+03  0.7818608E-02  0.9770417E-01
         -2   -1    0    0    0  501 -0.00000000000E+00  0.00000000000E+00  0.38222809805E+03  0.38222809806E+03  0.25500000000E-02 0.  1.
          2   -1    0    0  501    0  0.00000000000E+00 -0.00000000000E+00 -0.21076189391E+04  0.21076189391E+04  0.25500000000E-02 0. -1.
    8880023    1    1    2    0    0  0.39792216948E+03  0.82073591717E+02 -0.68362179662E+02  0.77689234859E+03  0.65864270000E+03 0.  1.
    8880022    1    1    2    0    0 -0.39792216948E+03 -0.82073591717E+02 -0.16570286614E+04  0.17129546885E+04  0.15294330000E+03 0.  0.
<mgrwt>
<rscale>  0 0.66974566E+03</rscale>
<asrwt>0</asrwt>
<pdfrwt beam="1">  1        2 0.32424906E+00 0.77387876E+03</pdfrwt>
<pdfrwt beam="2">  1       -2 0.58804324E-01 0.77387876E+03</pdfrwt>
<totfact> 0.16251491E+01</totfact>
</mgrwt>
</event>
<event>
 4    1  0.7595604E-007  0.6657291E+03  0.7818608E-02  0.1018929E+00
          2   -1    0    0  501    0  0.00000000000E+00  0.00000000000E+00  0.17884777014E+04  0.17884777014E+04  0.25500000000E-02 0. -1.
         -2   -1    0    0    0  501 -0.00000000000E+00 -0.00000000000E+00 -0.20385976195E+03  0.20385976196E+03  0.25500000000E-02 0.  1.
    8880023    1    1    2    0    0  0.23956127410E+02 -0.93867838935E+02  0.36474046251E+03  0.75909872775E+03  0.65864270000E+03 0.  1.
    8880022    1    1    2    0    0 -0.23956127410E+02  0.93867838935E+02  0.12198774770E+04  0.12332387356E+04  0.15294330000E+03 0.  0.
<mgrwt>
<rscale>  0 0.48074952E+03</rscale>
<asrwt>0</asrwt>
<pdfrwt beam="1">  1        2 0.27515043E+00 0.66572913E+03</pdfrwt>
<pdfrwt beam="2">  1       -2 0.31363039E-01 0.66572913E+03</pdfrwt>
<totfact> 0.85308429E+01</totfact>
</mgrwt>
</event>
<event>
 4    1  0.7595604E-007  0.8149093E+03  0.7818608E-02  0.9679440E-01
          2   -1    0    0  501    0  0.00000000000E+00  0.00000000000E+00  0.18493795562E+04  0.18493795562E+04  0.25500000000E-02 0. -1.
         -2   -1    0    0    0  501 -0.00000000000E+00 -0.00000000000E+00 -0.58521216064E+03  0.58521216065E+03  0.25500000000E-02 0.  1.
    8880023    1    1    2    0    0 -0.42348398914E+03  0.22567278027E+03 -0.23904844122E+03  0.84924746472E+03  0.65864270000E+03 0.  0.
    8880022    1    1    2    0    0  0.42348398914E+03 -0.22567278027E+03  0.15032158368E+04  0.15853442521E+04  0.15294330000E+03 0.  0.
<mgrwt>
<rscale>  0 0.72254205E+03</rscale>
<asrwt>0</asrwt>
<pdfrwt beam="1">  1        2 0.28451993E+00 0.81490926E+03</pdfrwt>
<pdfrwt beam="2">  1       -2 0.90032641E-01 0.81490926E+03</pdfrwt>
<totfact> 0.87462380E+00</totfact>
</mgrwt>
</event>
<event>
 4    1  0.7595604E-007  0.9497881E+03  0.7818608E-02  0.9450419E-01
          2   -1    0    0  501    0  0.00000000000E+00  0.00000000000E+00  0.72205989213E+03  0.72205989213E+03  0.25500000000E-02 0. -1.
         -2   -1    0    0    0  501 -0.00000000000E+00 -0.00000000000E+00 -0.10610568345E+04  0.10610568345E+04  0.25500000000E-02 0.  1.
    8880023    1    1    2    0    0  0.64933243698E+03  0.21599695899E+03  0.10125002943E+03  0.95516965756E+03  0.65864270000E+03 0.  0.
    8880022    1    1    2    0    0 -0.64933243698E+03 -0.21599695899E+03 -0.44024697182E+03  0.82794706909E+03  0.15294330000E+03 0. -1.
<mgrwt>
<rscale>  0 0.88040045E+03</rscale>
<asrwt>0</asrwt>
<pdfrwt beam="1">  1        2 0.11108614E+00 0.94978814E+03</pdfrwt>
<pdfrwt beam="2">  1       -2 0.16323951E+00 0.94978814E+03</pdfrwt>
<totfact> 0.93590730E+00</totfact>
</mgrwt>
</event>
<event>
 4    1  0.7595604E-007  0.7672547E+03  0.7818608E-02  0.9786675E-01
         -2   -1    0    0    0  501 -0.00000000000E+00  0.00000000000E+00  0.65888850309E+03  0.65888850309E+03  0.25500000000E-02 0.  1.
          2   -1    0    0  501    0  0.00000000000E+00 -0.00000000000E+00 -0.88534716360E+03  0.88534716360E+03  0.25500000000E-02 0. -1.
    8880023    1    1    2    0    0  0.28216500575E+03 -0.27432190775E+03  0.33877763392E+03  0.83871931601E+03  0.65864270000E+03 0.  1.
    8880022    1    1    2    0    0 -0.28216500575E+03  0.27432190775E+03 -0.56523629442E+03  0.70551635069E+03  0.15294330000E+03 0.  0.
<mgrwt>
<rscale>  0 0.66082550E+03</rscale>
<asrwt>0</asrwt>
<pdfrwt beam="1">  1        2 0.13620726E+00 0.76725472E+03</pdfrwt>
<pdfrwt beam="2">  1       -2 0.10136746E+00 0.76725472E+03</pdfrwt>
<totfact> 0.24316976E+01</totfact>
</mgrwt>
</event>
<event>
 4    1  0.7595604E-007  0.6646785E+03  0.7818608E-02  0.1019805E+00
          2   -1    0    0  501    0  0.00000000000E+00  0.00000000000E+00  0.56493334934E+03  0.56493334934E+03  0.25500000000E-02 0. -1.
         -2   -1    0    0    0  501 -0.00000000000E+00 -0.00000000000E+00 -0.59856221623E+03  0.59856221624E+03  0.25500000000E-02 0.  1.
    8880023    1    1    2    0    0  0.82637293558E+01 -0.88988634575E+02 -0.38633925368E+03  0.76880133422E+03  0.65864270000E+03 0.  1.
    8880022    1    1    2    0    0 -0.82637293558E+01  0.88988634575E+02  0.35271038678E+03  0.39469423136E+03  0.15294330000E+03 0.  0.
<mgrwt>
<rscale>  0 0.47757156E+03</rscale>
<asrwt>0</asrwt>
<pdfrwt beam="1">  1        2 0.86912823E-01 0.66467847E+03</pdfrwt>
<pdfrwt beam="2">  1       -2 0.92086495E-01 0.66467847E+03</pdfrwt>
<totfact> 0.54414362E+01</totfact>
</mgrwt>
</event>
<event>
 4    1  0.7595604E-007  0.7088236E+03  0.7818608E-02  0.9962396E-01
         -2   -1    0    0    0  501 -0.00000000000E+00  0.00000000000E+00  0.14343499418E+03  0.14343499420E+03  0.25500000000E-02 0.  1.
          2   -1    0    0  501    0  0.00000000000E+00 -0.00000000000E+00 -0.26704091455E+04  0.26704091455E+04  0.25500000000E-02 0. -1.
    8880023    1    1    2    0    0  0.18773274558E+03 -0.18269388155E+03 -0.83677710378E+03  0.10966434087E+04  0.65864270000E+03 0.  0.
    8880022    1    1    2    0    0 -0.18773274558E+03  0.18269388155E+03 -0.16901970475E+04  0.17172007310E+04  0.15294330000E+03 0.  0.
<mgrwt>
<rscale>  0 0.57330317E+03</rscale>
<asrwt>0</asrwt>
<pdfrwt beam="1">  1        2 0.41083214E+00 0.70882356E+03</pdfrwt>
<pdfrwt beam="2">  1       -2 0.22066924E-01 0.70882356E+03</pdfrwt>
<totfact> 0.52135409E+01</totfact>
</mgrwt>
</event>
<event>
 4    1  0.7595604E-007  0.1765884E+04  0.7818608E-02  0.8741647E-01
          2   -1    0    0  501    0  0.00000000000E+00  0.00000000000E+00  0.17021898143E+04  0.17021898143E+04  0.25500000000E-02 0. -1.
         -2   -1    0    0    0  501 -0.00000000000E+00 -0.00000000000E+00 -0.22350465481E+04  0.22350465481E+04  0.25500000000E-02 0.  1.
    8880023    1    1    2    0    0  0.10728837040E+04 -0.12383277294E+04 -0.12279654006E+04  0.21508705770E+04  0.65864270000E+03 0.  0.
    8880022    1    1    2    0    0 -0.10728837040E+04  0.12383277294E+04  0.69510866687E+03  0.17863657854E+04  0.15294330000E+03 0.  0.
<mgrwt>
<rscale>  0 0.17350068E+04</rscale>
<asrwt>0</asrwt>
<pdfrwt beam="1">  1        2 0.26187536E+00 0.17658837E+04</pdfrwt>
<pdfrwt beam="2">  1       -2 0.34385332E+00 0.17658837E+04</pdfrwt>
<totfact> 0.15187740E-01</totfact>
</mgrwt>
</event>
<event>
 4    1  0.7595604E-007  0.7760456E+03  0.7818608E-02  0.9765209E-01
         -2   -1    0    0    0  501 -0.00000000000E+00  0.00000000000E+00  0.16595570192E+03  0.16595570193E+03  0.25500000000E-02 0.  1.
          2   -1    0    0  501    0  0.00000000000E+00 -0.00000000000E+00 -0.35063811035E+04  0.35063811035E+04  0.25500000000E-02 0. -1.
    8880023    1    1    2    0    0  0.41040579560E+03  0.19179363353E+01 -0.88031241227E+03  0.11735402613E+04  0.65864270000E+03 0.  0.
    8880022    1    1    2    0    0 -0.41040579560E+03 -0.19179363353E+01 -0.24601129893E+04  0.24987965441E+04  0.15294330000E+03 0.  0.
<mgrwt>
<rscale>  0 0.67263507E+03</rscale>
<asrwt>0</asrwt>
<pdfrwt beam="1">  1        2 0.53944319E+00 0.77604562E+03</pdfrwt>
<pdfrwt beam="2">  1       -2 0.25531649E-01 0.77604562E+03</pdfrwt>
<totfact> 0.11923162E+01</totfact>
</mgrwt>
</event>
<event>
 4    1  0.7595604E-007  0.1241652E+04  0.7818608E-02  0.9117660E-01
          2   -1    0    0  501    0  0.00000000000E+00  0.00000000000E+00  0.19881116403E+04  0.19881116403E+04  0.25500000000E-02 0. -1.
         -2   -1    0    0    0  501 -0.00000000000E+00 -0.00000000000E+00 -0.13208597081E+04  0.13208597081E+04  0.25500000000E-02 0.  1.
    8880023    1    1    2    0    0  0.10525571301E+04  0.34472157716E+01  0.15078523025E+04  0.19532836885E+04  0.65864270000E+03 0. -1.
    8880022    1    1    2    0    0 -0.10525571301E+04 -0.34472157716E+01 -0.84060037036E+03  0.13556876599E+04  0.15294330000E+03 0.  0.
<mgrwt>
<rscale>  0 0.11945273E+04</rscale>
<asrwt>0</asrwt>
<pdfrwt beam="1">  1        2 0.30586333E+00 0.12416516E+04</pdfrwt>
<pdfrwt beam="2">  1       -2 0.20320919E+00 0.12416516E+04</pdfrwt>
<totfact> 0.83063734E-01</totfact>
</mgrwt>
</event>
<event>
 4    1  0.7595604E-007  0.7516570E+03  0.7818608E-02  0.9827206E-01
         -2   -1    0    0    0  501 -0.00000000000E+00  0.00000000000E+00  0.40153805076E+03  0.40153805077E+03  0.25500000000E-02 0.  1.
          2   -1    0    0  501    0  0.00000000000E+00 -0.00000000000E+00 -0.15293743101E+04  0.15293743101E+04  0.25500000000E-02 0. -1.
    8880023    1    1    2    0    0 -0.10215358304E+03 -0.34748038310E+03 -0.16233668812E+02  0.75183223490E+03  0.65864270000E+03 0.  0.
    8880022    1    1    2    0    0  0.10215358304E+03  0.34748038310E+03 -0.11116025905E+04  0.11790801259E+04  0.15294330000E+03 0.  0.
<mgrwt>
<rscale>  0 0.63922725E+03</rscale>
<asrwt>0</asrwt>
<pdfrwt beam="1">  1        2 0.23528835E+00 0.75165695E+03</pdfrwt>
<pdfrwt beam="2">  1       -2 0.61775086E-01 0.75165695E+03</pdfrwt>
<totfact> 0.30445172E+01</totfact>
</mgrwt>
</event>
<event>
 4    1  0.7595604E-007  0.1319164E+04  0.7818608E-02  0.9049184E-01
         -2   -1    0    0    0  501 -0.00000000000E+00  0.00000000000E+00  0.30321491385E+04  0.30321491385E+04  0.25500000000E-02 0.  1.
          2   -1    0    0  501    0  0.00000000000E+00 -0.00000000000E+00 -0.70935950244E+03  0.70935950245E+03  0.25500000000E-02 0. -1.
    8880023    1    1    2    0    0  0.10535536326E+04 -0.44318078249E+03  0.22218335592E+04  0.25839386668E+04  0.65864270000E+03 0.  0.
    8880022    1    1    2    0    0 -0.10535536326E+04  0.44318078249E+03  0.10095607692E+03  0.11575699742E+04  0.15294330000E+03 0.  0.
<mgrwt>
<rscale>  0 0.12755471E+04</rscale>
<asrwt>0</asrwt>
<pdfrwt beam="1">  1        2 0.10913223E+00 0.13191644E+04</pdfrwt>
<pdfrwt beam="2">  1       -2 0.46648448E+00 0.13191644E+04</pdfrwt>
<totfact> 0.10591886E-01</totfact>
</mgrwt>
</event>
<event>
 4    1  0.7595604E-007  0.7760840E+03  0.7818608E-02  0.9765117E-01
          2   -1    0    0  501    0  0.00000000000E+00  0.00000000000E+00  0.68978818394E+03  0.68978818395E+03  0.25500000000E-02 0. -1.
         -2   -1    0    0    0  501 -0.00000000000E+00 -0.00000000000E+00 -0.69891713530E+03  0.69891713530E+03  0.25500000000E-02 0.  1.
    8880023    1    1    2    0    0 -0.40789953902E+03 -0.45980481549E+02 -0.33241388968E+03  0.84427805783E+03  0.65864270000E+03 0.  0.
    8880022    1    1    2    0    0  0.40789953902E+03  0.45980481549E+02  0.32328493832E+03  0.54442726142E+03  0.15294330000E+03 0.  0.
<mgrwt>
<rscale>  0 0.67268619E+03</rscale>
<asrwt>0</asrwt>
<pdfrwt beam="1">  1        2 0.10612126E+00 0.77608404E+03</pdfrwt>
<pdfrwt beam="2">  1       -2 0.10752571E+00 0.77608404E+03</pdfrwt>
<totfact> 0.29300261E+01</totfact>
</mgrwt>
</event>
<event>
 4    1  0.7595604E-007  0.6971736E+03  0.7818608E-02  0.1000913E+00
          2   -1    0    0  501    0  0.00000000000E+00  0.00000000000E+00  0.97814990428E+03  0.97814990429E+03  0.25500000000E-02 0. -1.
         -2   -1    0    0    0  501 -0.00000000000E+00 -0.00000000000E+00 -0.50418366887E+03  0.50418366887E+03  0.25500000000E-02 0.  1.
    8880023    1    1    2    0    0 -0.22843194417E+03 -0.77276051284E+01 -0.22389111796E+03  0.73224197364E+03  0.65864270000E+03 0.  1.
    8880022    1    1    2    0    0  0.22843194417E+03  0.77276051284E+01  0.69785735338E+03  0.75009159952E+03  0.15294330000E+03 0.  0.
<mgrwt>
<rscale>  0 0.55251527E+03</rscale>
<asrwt>0</asrwt>
<pdfrwt beam="1">  1        2 0.15048460E+00 0.69717363E+03</pdfrwt>
<pdfrwt beam="2">  1       -2 0.77566720E-01 0.69717363E+03</pdfrwt>
<totfact> 0.39347478E+01</totfact>
</mgrwt>
</event>
<event>
 4    1  0.7595604E-007  0.9657281E+03  0.7818608E-02  0.9427837E-01
          2   -1    0    0  501    0  0.00000000000E+00  0.00000000000E+00  0.10016519741E+04  0.10016519741E+04  0.25500000000E-02 0. -1.
         -2   -1    0    0    0  501 -0.00000000000E+00 -0.00000000000E+00 -0.78470449213E+03  0.78470449213E+03  0.25500000000E-02 0.  1.
    8880023    1    1    2    0    0 -0.68804380422E+03 -0.15942513842E+03 -0.14764500455E+03  0.97694928472E+03  0.65864270000E+03 0.  0.
    8880022    1    1    2    0    0  0.68804380422E+03  0.15942513842E+03  0.36459248655E+03  0.80940718155E+03  0.15294330000E+03 0.  0.
<mgrwt>
<rscale>  0 0.89819794E+03</rscale>
<asrwt>0</asrwt>
<pdfrwt beam="1">  1        2 0.15410030E+00 0.96572815E+03</pdfrwt>
<pdfrwt beam="2">  1       -2 0.12072377E+00 0.96572815E+03</pdfrwt>
<totfact> 0.13084736E+01</totfact>
</mgrwt>
</event>
<event>
 4    1  0.7595604E-007  0.8407750E+03  0.7818608E-02  0.9628721E-01
          2   -1    0    0  501    0  0.00000000000E+00  0.00000000000E+00  0.24445529347E+04  0.24445529347E+04  0.25500000000E-02 0. -1.
         -2   -1    0    0    0  501 -0.00000000000E+00 -0.00000000000E+00 -0.21818342689E+03  0.21818342691E+03  0.25500000000E-02 0.  1.
    8880023    1    1    2    0    0  0.39327236165E+03  0.34413539196E+03  0.91400409297E+03  0.12418961336E+04  0.65864270000E+03 0. -1.
    8880022    1    1    2    0    0 -0.39327236165E+03 -0.34413539196E+03  0.13123654149E+04  0.14208402280E+04  0.15294330000E+03 0.  1.
<mgrwt>
<rscale>  0 0.75424072E+03</rscale>
<asrwt>0</asrwt>
<pdfrwt beam="1">  1        2 0.37608505E+00 0.84077495E+03</pdfrwt>
<pdfrwt beam="2">  1       -2 0.33566682E-01 0.84077495E+03</pdfrwt>
<totfact> 0.32002814E+01</totfact>
</mgrwt>
</event>
<event>
 4    1  0.7595604E-007  0.6655368E+03  0.7818608E-02  0.1019087E+00
          2   -1    0    0  501    0  0.00000000000E+00  0.00000000000E+00  0.98884854351E+03  0.98884854351E+03  0.25500000000E-02 0. -1.
         -2   -1    0    0    0  501 -0.00000000000E+00 -0.00000000000E+00 -0.28774603928E+03  0.28774603929E+03  0.25500000000E-02 0.  1.
    8880023    1    1    2    0    0  0.89941048444E+01 -0.95121685465E+02  0.13054873744E+03  0.67821988181E+03  0.65864270000E+03 0.  1.
    8880022    1    1    2    0    0 -0.89941048444E+01  0.95121685465E+02  0.57055376680E+03  0.59837470099E+03  0.15294330000E+03 0.  0.
<mgrwt>
<rscale>  0 0.48017441E+03</rscale>
<asrwt>0</asrwt>
<pdfrwt beam="1">  1        2 0.15213055E+00 0.66553680E+03</pdfrwt>
<pdfrwt beam="2">  1       -2 0.44268621E-01 0.66553680E+03</pdfrwt>
<totfact> 0.12624566E+02</totfact>
</mgrwt>
</event>
<event>
 4    1  0.7595604E-007  0.8333411E+03  0.7818608E-02  0.9642866E-01
          2   -1    0    0  501    0  0.00000000000E+00  0.00000000000E+00  0.11541715647E+04  0.11541715647E+04  0.25500000000E-02 0. -1.
         -2   -1    0    0    0  501 -0.00000000000E+00 -0.00000000000E+00 -0.62266829994E+03  0.62266829995E+03  0.25500000000E-02 0.  1.
    8880023    1    1    2    0    0 -0.15989962025E+03 -0.48484975752E+03 -0.21404372015E+03  0.86039066494E+03  0.65864270000E+03 0.  0.
    8880022    1    1    2    0    0  0.15989962025E+03  0.48484975752E+03  0.74554698488E+03  0.91644919969E+03  0.15294330000E+03 0.  0.
<mgrwt>
<rscale>  0 0.74522826E+03</rscale>
<asrwt>0</asrwt>
<pdfrwt beam="1">  1        2 0.17756485E+00 0.83334110E+03</pdfrwt>
<pdfrwt beam="2">  1       -2 0.95795125E-01 0.83334110E+03</pdfrwt>
<totfact> 0.18625483E+01</totfact>
</mgrwt>
</event>
<event>
 4    1  0.7595604E-007  0.9649956E+03  0.7818608E-02  0.9428859E-01
         -2   -1    0    0    0  501 -0.00000000000E+00  0.00000000000E+00  0.10660329234E+04  0.10660329234E+04  0.25500000000E-02 0.  1.
          2   -1    0    0  501    0  0.00000000000E+00 -0.00000000000E+00 -0.12183871175E+04  0.12183871175E+04  0.25500000000E-02 0. -1.
    8880023    1    1    2    0    0  0.11965045213E+03  0.69504674585E+03  0.68169951432E+03  0.11814950883E+04  0.65864270000E+03 0.  0.
    8880022    1    1    2    0    0 -0.11965045213E+03 -0.69504674585E+03 -0.83405370844E+03  0.11029249527E+04  0.15294330000E+03 0.  0.
<mgrwt>
<rscale>  0 0.89738258E+03</rscale>
<asrwt>0</asrwt>
<pdfrwt beam="1">  1        2 0.18744417E+00 0.96499555E+03</pdfrwt>
<pdfrwt beam="2">  1       -2 0.16400507E+00 0.96499555E+03</pdfrwt>
<totfact> 0.43262392E+00</totfact>
</mgrwt>
</event>
<event>
 4    1  0.7595604E-007  0.7580400E+03  0.7818608E-02  0.9810208E-01
         -2   -1    0    0    0  501 -0.00000000000E+00  0.00000000000E+00  0.30735659656E+03  0.30735659657E+03  0.25500000000E-02 0.  1.
          2   -1    0    0  501    0  0.00000000000E+00 -0.00000000000E+00 -0.21196077321E+04  0.21196077321E+04  0.25500000000E-02 0. -1.
    8880023    1    1    2    0    0  0.34289786556E+03  0.15243185875E+03 -0.22781855169E+03  0.79153390106E+03  0.65864270000E+03 0.  1.
    8880022    1    1    2    0    0 -0.34289786556E+03 -0.15243185875E+03 -0.15844325839E+04  0.16354304276E+04  0.15294330000E+03 0.  0.
<mgrwt>
<rscale>  0 0.64817569E+03</rscale>
<asrwt>0</asrwt>
<pdfrwt beam="1">  1        2 0.32609349E+00 0.75803999E+03</pdfrwt>
<pdfrwt beam="2">  1       -2 0.47285632E-01 0.75803999E+03</pdfrwt>
<totfact> 0.25127404E+01</totfact>
</mgrwt>
</event>
<event>
 4    1  0.7595604E-007  0.6633450E+03  0.7818608E-02  0.1020964E+00
         -2   -1    0    0    0  501 -0.00000000000E+00  0.00000000000E+00  0.24078634495E+03  0.24078634497E+03  0.25500000000E-02 0.  1.
          2   -1    0    0  501    0  0.00000000000E+00 -0.00000000000E+00 -0.99256354056E+03  0.99256354056E+03  0.25500000000E-02 0. -1.
    8880023    1    1    2    0    0 -0.27540048579E+02 -0.73877791053E+02 -0.26024303485E+03  0.71256790956E+03  0.65864270000E+03 0.  0.
    8880022    1    1    2    0    0  0.27540048579E+02  0.73877791053E+02 -0.49153416076E+03  0.52078197597E+03  0.15294330000E+03 0.  0.
<mgrwt>
<rscale>  0 0.47340277E+03</rscale>
<asrwt>0</asrwt>
<pdfrwt beam="1">  1        2 0.15270208E+00 0.66334500E+03</pdfrwt>
<pdfrwt beam="2">  1       -2 0.37044054E-01 0.66334500E+03</pdfrwt>
<totfact> 0.17778730E+02</totfact>
</mgrwt>
</event>
<event>
 4    1  0.7595604E-007  0.7263570E+03  0.7818608E-02  0.9901635E-01
          2   -1    0    0  501    0  0.00000000000E+00  0.00000000000E+00  0.11003756406E+04  0.11003756406E+04  0.25500000000E-02 0. -1.
         -2   -1    0    0    0  501 -0.00000000000E+00 -0.00000000000E+00 -0.51312518359E+03  0.51312518360E+03  0.25500000000E-02 0.  1.
    8880023    1    1    2    0    0 -0.29828559898E+03  0.69354516987E+02 -0.20140296086E+03  0.75376236739E+03  0.65864270000E+03 0.  1.
    8880022    1    1    2    0    0  0.29828559898E+03 -0.69354516987E+02  0.78865341787E+03  0.85973845681E+03  0.15294330000E+03 0.  0.
<mgrwt>
<rscale>  0 0.60182115E+03</rscale>
<asrwt>0</asrwt>
<pdfrwt beam="1">  1        2 0.16928856E+00 0.72635704E+03</pdfrwt>
<pdfrwt beam="2">  1       -2 0.78942337E-01 0.72635704E+03</pdfrwt>
<totfact> 0.31624303E+01</totfact>
</mgrwt>
</event>
<event>
 4    1  0.7595604E-007  0.6749256E+03  0.7818608E-02  0.1012353E+00
          2   -1    0    0  501    0  0.00000000000E+00  0.00000000000E+00  0.89775864278E+03  0.89775864279E+03  0.25500000000E-02 0. -1.
         -2   -1    0    0    0  501 -0.00000000000E+00 -0.00000000000E+00 -0.37519327765E+03  0.37519327766E+03  0.25500000000E-02 0.  1.
    8880023    1    1    2    0    0 -0.79123613761E+02 -0.12431342131E+03 -0.35480888900E+02  0.67585758316E+03  0.65864270000E+03 0.  1.
    8880022    1    1    2    0    0  0.79123613761E+02  0.12431342131E+03  0.55804625403E+03  0.59709433729E+03  0.15294330000E+03 0.  0.
<mgrwt>
<rscale>  0 0.50550011E+03</rscale>
<asrwt>0</asrwt>
<pdfrwt beam="1">  1        2 0.13811671E+00 0.67492561E+03</pdfrwt>
<pdfrwt beam="2">  1       -2 0.57722043E-01 0.67492561E+03</pdfrwt>
<totfact> 0.84283132E+01</totfact>
</mgrwt>
</event>
<event>
 4    1  0.7595604E-007  0.9019095E+03  0.7818608E-02  0.9522973E-01
          2   -1    0    0  501    0  0.00000000000E+00  0.00000000000E+00  0.12232935782E+04  0.12232935782E+04  0.25500000000E-02 0. -1.
         -2   -1    0    0    0  501 -0.00000000000E+00 -0.00000000000E+00 -0.61632510643E+03  0.61632510643E+03  0.25500000000E-02 0.  1.
    8880023    1    1    2    0    0  0.51263858455E+03 -0.34180728186E+03 -0.78517070315E+02  0.90532075691E+03  0.65864270000E+03 0.  1.
    8880022    1    1    2    0    0 -0.51263858455E+03  0.34180728186E+03  0.68548554205E+03  0.93429792769E+03  0.15294330000E+03 0.  0.
<mgrwt>
<rscale>  0 0.82611088E+03</rscale>
<asrwt>0</asrwt>
<pdfrwt beam="1">  1        2 0.18819901E+00 0.90190950E+03</pdfrwt>
<pdfrwt beam="2">  1       -2 0.94819247E-01 0.90190950E+03</pdfrwt>
<totfact> 0.17233016E+01</totfact>
</mgrwt>
</event>
<event>
 4    1  0.9893783E-007  0.6988014E+03  0.7818608E-02  0.1000221E+00
          2   -1    0    0  501    0  0.00000000000E+00  0.00000000000E+00  0.25453215171E+04  0.25453215171E+04  0.25500000000E-02 0. -1.
         -2   -1    0    0    0  501 -0.00000000000E+00 -0.00000000000E+00 -0.45888473788E+03  0.45888473788E+03  0.25500000000E-02 0.  1.
    8880023    1    1    2    0    0 -0.45688730779E+02 -0.22896668337E+03 -0.17922334998E+03  0.72141833748E+03  0.65864270000E+03 0.  0.
    8880022    1    1    2    0    0  0.45688730779E+02  0.22896668337E+03  0.22656601292E+04  0.22827879175E+04  0.15294330000E+03 0. -1.
<mgrwt>
<rscale>  0 0.55553432E+03</rscale>
<asrwt>0</asrwt>
<pdfrwt beam="1">  1        2 0.39158792E+00 0.69880141E+03</pdfrwt>
<pdfrwt beam="2">  1       -2 0.70597653E-01 0.69880141E+03</pdfrwt>
<totfact> 0.63410512E+00</totfact>
</mgrwt>
</event>
<event>
 4    1  0.7595604E-007  0.6670512E+03  0.7818608E-02  0.1017871E+00
         -2   -1    0    0    0  501 -0.00000000000E+00  0.00000000000E+00  0.38985770819E+03  0.38985770820E+03  0.25500000000E-02 0.  1.
          2   -1    0    0  501    0  0.00000000000E+00 -0.00000000000E+00 -0.78451015876E+03  0.78451015877E+03  0.25500000000E-02 0. -1.
    8880023    1    1    2    0    0  0.10414881064E+03  0.17322515105E+02  0.73103114066E+02  0.67104494323E+03  0.65864270000E+03 0.  0.
    8880022    1    1    2    0    0 -0.10414881064E+03 -0.17322515105E+02 -0.46775556464E+03  0.50332292373E+03  0.15294330000E+03 0.  0.
<mgrwt>
<rscale>  0 0.48462700E+03</rscale>
<asrwt>0</asrwt>
<pdfrwt beam="1">  1        2 0.12069387E+00 0.66705116E+03</pdfrwt>
<pdfrwt beam="2">  1       -2 0.59978109E-01 0.66705116E+03</pdfrwt>
<totfact> 0.93315579E+01</totfact>
</mgrwt>
</event>
<event>
 4    1  0.7595604E-007  0.8388565E+03  0.7818608E-02  0.9632340E-01
          2   -1    0    0  501    0  0.00000000000E+00  0.00000000000E+00  0.84437152032E+03  0.84437152032E+03  0.25500000000E-02 0. -1.
         -2   -1    0    0    0  501 -0.00000000000E+00 -0.00000000000E+00 -0.93898386614E+03  0.93898386615E+03  0.25500000000E-02 0.  1.
    8880023    1    1    2    0    0  0.19015015298E+03 -0.48343862180E+03 -0.60888024119E+03  0.10365400794E+04  0.65864270000E+03 0.  1.
    8880022    1    1    2    0    0 -0.19015015298E+03  0.48343862180E+03  0.51426789536E+03  0.74681530712E+03  0.15294330000E+03 0. -1.
<mgrwt>
<rscale>  0 0.75192176E+03</rscale>
<asrwt>0</asrwt>
<pdfrwt beam="1">  1        2 0.12990331E+00 0.83885648E+03</pdfrwt>
<pdfrwt beam="2">  1       -2 0.14445906E+00 0.83885648E+03</pdfrwt>
<totfact> 0.10669260E+01</totfact>
</mgrwt>
</event>
<event>
 4    1  0.7595604E-007  0.6813436E+03  0.7818608E-02  0.1008574E+00
          2   -1    0    0  501    0  0.00000000000E+00  0.00000000000E+00  0.34636705493E+04  0.34636705493E+04  0.25500000000E-02 0. -1.
         -2   -1    0    0    0  501 -0.00000000000E+00 -0.00000000000E+00 -0.19950940457E+03  0.19950940459E+03  0.25500000000E-02 0.  1.
    8880023    1    1    2    0    0  0.17440273476E+03 -0.16068023382E+01  0.40090057569E+03  0.79053802790E+03  0.65864270000E+03 0.  1.
    8880022    1    1    2    0    0 -0.17440273476E+03  0.16068023382E+01  0.28632605691E+04  0.28726419260E+04  0.15294330000E+03 0.  0.
<mgrwt>
<rscale>  0 0.52045485E+03</rscale>
<asrwt>0</asrwt>
<pdfrwt beam="1">  1        2 0.53287232E+00 0.68134360E+03</pdfrwt>
<pdfrwt beam="2">  1       -2 0.30693759E-01 0.68134360E+03</pdfrwt>
<totfact> 0.92622583E+00</totfact>
</mgrwt>
</event>
<event>
 4    1  0.7595604E-007  0.7748854E+03  0.7818608E-02  0.9767991E-01
         -2   -1    0    0    0  501 -0.00000000000E+00  0.00000000000E+00  0.45076227104E+03  0.45076227104E+03  0.25500000000E-02 0.  1.
          2   -1    0    0  501    0  0.00000000000E+00 -0.00000000000E+00 -0.19632656622E+04  0.19632656622E+04  0.25500000000E-02 0. -1.
    8880023    1    1    2    0    0  0.34139369278E+03  0.22380246213E+03  0.64804020956E+02  0.77759048536E+03  0.65864270000E+03 0.  1.
    8880022    1    1    2    0    0 -0.34139369278E+03 -0.22380246213E+03 -0.15773074121E+04  0.16364374479E+04  0.15294330000E+03 0.  0.
<mgrwt>
<rscale>  0 0.67108967E+03</rscale>
<asrwt>0</asrwt>
<pdfrwt beam="1">  1        2 0.30204087E+00 0.77488541E+03</pdfrwt>
<pdfrwt beam="2">  1       -2 0.69348043E-01 0.77488541E+03</pdfrwt>
<totfact> 0.13691378E+01</totfact>
</mgrwt>
</event>
<event>
 4    1  0.7595604E-007  0.1237776E+04  0.7818608E-02  0.9121248E-01
          2   -1    0    0  501    0  0.00000000000E+00  0.00000000000E+00  0.16148983566E+04  0.16148983566E+04  0.25500000000E-02 0. -1.
         -2   -1    0    0    0  501 -0.00000000000E+00 -0.00000000000E+00 -0.86169177022E+03  0.86169177022E+03  0.25500000000E-02 0.  1.
    8880023    1    1    2    0    0  0.80718307830E+03  0.66838304231E+03  0.12225397188E+03  0.12437992817E+04  0.65864270000E+03 0.  1.
    8880022    1    1    2    0    0 -0.80718307830E+03 -0.66838304231E+03  0.63095261449E+03  0.12327908452E+04  0.15294330000E+03 0.  0.
<mgrwt>
<rscale>  0 0.11904603E+04</rscale>
<asrwt>0</asrwt>
<pdfrwt beam="1">  1        2 0.24844590E+00 0.12377765E+04</pdfrwt>
<pdfrwt beam="2">  1       -2 0.13256796E+00 0.12377765E+04</pdfrwt>
<totfact> 0.43859233E+00</totfact>
</mgrwt>
</event>
<event>
 4    1  0.7595604E-007  0.7164277E+03  0.7818608E-02  0.9934864E-01
          2   -1    0    0  501    0  0.00000000000E+00  0.00000000000E+00  0.29340828796E+04  0.29340828796E+04  0.25500000000E-02 0. -1.
         -2   -1    0    0    0  501 -0.00000000000E+00 -0.00000000000E+00 -0.11000047806E+03  0.11000047809E+03  0.25500000000E-02 0.  1.
    8880023    1    1    2    0    0  0.27995570097E+03  0.32913031788E+02  0.12782069076E+04  0.14652923146E+04  0.65864270000E+03 0.  1.
    8880022    1    1    2    0    0 -0.27995570097E+03 -0.32913031788E+02  0.15458754939E+04  0.15787910431E+04  0.15294330000E+03 0. -1.
<mgrwt>
<rscale>  0 0.58600980E+03</rscale>
<asrwt>0</asrwt>
<pdfrwt beam="1">  1        2 0.45139738E+00 0.71642771E+03</pdfrwt>
<pdfrwt beam="2">  1       -2 0.16923150E-01 0.71642771E+03</pdfrwt>
<totfact> 0.57756910E+01</totfact>
</mgrwt>
</event>
<event>
 4    1  0.7595604E-007  0.6760800E+03  0.7818608E-02  0.1011634E+00
         -2   -1    0    0    0  501 -0.00000000000E+00  0.00000000000E+00  0.41067727377E+03  0.41067727377E+03  0.25500000000E-02 0.  1.
          2   -1    0    0  501    0  0.00000000000E+00 -0.00000000000E+00 -0.11008387062E+04  0.11008387062E+04  0.25500000000E-02 0. -1.
    8880023    1    1    2    0    0 -0.13725058794E+03 -0.66605099273E+02  0.10798760718E+03  0.68464990521E+03  0.65864270000E+03 0.  1.
    8880022    1    1    2    0    0  0.13725058794E+03  0.66605099273E+02 -0.79814903958E+03  0.82686607473E+03  0.15294330000E+03 0.  0.
<mgrwt>
<rscale>  0 0.50830361E+03</rscale>
<asrwt>0</asrwt>
<pdfrwt beam="1">  1        2 0.16935980E+00 0.67608000E+03</pdfrwt>
<pdfrwt beam="2">  1       -2 0.63181120E-01 0.67608000E+03</pdfrwt>
<totfact> 0.51683552E+01</totfact>
</mgrwt>
</event>
<event>
 4    1  0.7595604E-007  0.7524185E+03  0.7818608E-02  0.9825146E-01
          2   -1    0    0  501    0  0.00000000000E+00  0.00000000000E+00  0.34746794347E+04  0.34746794347E+04  0.25500000000E-02 0. -1.
         -2   -1    0    0    0  501 -0.00000000000E+00 -0.00000000000E+00 -0.31748420159E+03  0.31748420160E+03  0.25500000000E-02 0.  1.
    8880023    1    1    2    0    0 -0.13787249049E+02  0.36350146043E+03  0.16017746507E+03  0.76927916035E+03  0.65864270000E+03 0.  1.
    8880022    1    1    2    0    0  0.13787249049E+02 -0.36350146043E+03  0.29970177681E+04  0.30228844760E+04  0.15294330000E+03 0.  0.
<mgrwt>
<rscale>  0 0.64030357E+03</rscale>
<asrwt>0</asrwt>
<pdfrwt beam="1">  1        2 0.53456608E+00 0.75241850E+03</pdfrwt>
<pdfrwt beam="2">  1       -2 0.48843722E-01 0.75241850E+03</pdfrwt>
<totfact> 0.36428134E+00</totfact>
</mgrwt>
</event>
<event>
 4    1  0.7595604E-007  0.9917218E+03  0.7818608E-02  0.9392469E-01
          2   -1    0    0  501    0  0.00000000000E+00  0.00000000000E+00  0.26822358532E+04  0.26822358532E+04  0.25500000000E-02 0. -1.
         -2   -1    0    0    0  501 -0.00000000000E+00 -0.00000000000E+00 -0.59456428068E+03  0.59456428069E+03  0.25500000000E-02 0.  1.
    8880023    1    1    2    0    0  0.70056375650E+03 -0.24271852413E+03 -0.66036306493E+02  0.99391793369E+03  0.65864270000E+03 0.  1.
    8880022    1    1    2    0    0 -0.70056375650E+03  0.24271852413E+03  0.21537078791E+04  0.22828822002E+04  0.15294330000E+03 0.  0.
<mgrwt>
<rscale>  0 0.92698044E+03</rscale>
<asrwt>0</asrwt>
<pdfrwt beam="1">  1        2 0.41265166E+00 0.99172177E+03</pdfrwt>
<pdfrwt beam="2">  1       -2 0.91471430E-01 0.99172177E+03</pdfrwt>
<totfact> 0.28089621E+00</totfact>
</mgrwt>
</event>
<event>
 4    1  0.7595604E-007  0.7658783E+03  0.7818608E-02  0.9790120E-01
          2   -1    0    0  501    0  0.00000000000E+00  0.00000000000E+00  0.95846240499E+03  0.95846240500E+03  0.25500000000E-02 0. -1.
         -2   -1    0    0    0  501 -0.00000000000E+00 -0.00000000000E+00 -0.79383602082E+03  0.79383602082E+03  0.25500000000E-02 0.  1.
    8880023    1    1    2    0    0  0.10832326339E+03 -0.37553344472E+03 -0.53653977443E+03  0.93511733665E+03  0.65864270000E+03 0.  1.
    8880022    1    1    2    0    0 -0.10832326339E+03  0.37553344472E+03  0.70116615861E+03  0.81718108917E+03  0.15294330000E+03 0.  0.
<mgrwt>
<rscale>  0 0.65895450E+03</rscale>
<asrwt>0</asrwt>
<pdfrwt beam="1">  1        2 0.14745575E+00 0.76587826E+03</pdfrwt>
<pdfrwt beam="2">  1       -2 0.12212862E+00 0.76587826E+03</pdfrwt>
<totfact> 0.13823174E+01</totfact>
</mgrwt>
</event>
<event>
 4    1  0.7595604E-007  0.1082617E+04  0.7818608E-02  0.9280661E-01
         -2   -1    0    0    0  501 -0.00000000000E+00  0.00000000000E+00  0.13559247025E+04  0.13559247025E+04  0.25500000000E-02 0.  1.
          2   -1    0    0  501    0  0.00000000000E+00 -0.00000000000E+00 -0.91297437348E+03  0.91297437348E+03  0.25500000000E-02 0. -1.
    8880023    1    1    2    0    0 -0.83501866055E+03 -0.20246794823E+03  0.77895761168E+03  0.13337295830E+04  0.65864270000E+03 0.  0.
    8880022    1    1    2    0    0  0.83501866055E+03  0.20246794823E+03 -0.33600728268E+03  0.93516949296E+03  0.15294330000E+03 0.  0.
<mgrwt>
<rscale>  0 0.10258289E+04</rscale>
<asrwt>0</asrwt>
<pdfrwt beam="1">  1        2 0.14045760E+00 0.10826170E+04</pdfrwt>
<pdfrwt beam="2">  1       -2 0.20860380E+00 0.10826170E+04</pdfrwt>
<totfact> 0.33071640E+00</totfact>
</mgrwt>
</event>
<event>
 4    1  0.7595604E-007  0.7607355E+03  0.7818608E-02  0.9803207E-01
          2   -1    0    0  501    0  0.00000000000E+00  0.00000000000E+00  0.15616664290E+04  0.15616664290E+04  0.25500000000E-02 0. -1.
         -2   -1    0    0    0  501 -0.00000000000E+00 -0.00000000000E+00 -0.28340158223E+03  0.28340158225E+03  0.25500000000E-02 0.  1.
    8880023    1    1    2    0    0 -0.38045592162E+03 -0.12714155542E+02  0.36473971301E+03  0.84365491912E+03  0.65864270000E+03 0.  1.
    8880022    1    1    2    0    0  0.38045592162E+03  0.12714155542E+02  0.91352513371E+03  0.10014130921E+04  0.15294330000E+03 0.  0.
<mgrwt>
<rscale>  0 0.65190723E+03</rscale>
<asrwt>0</asrwt>
<pdfrwt beam="1">  1        2 0.24025638E+00 0.76073554E+03</pdfrwt>
<pdfrwt beam="2">  1       -2 0.43600243E-01 0.76073554E+03</pdfrwt>
<totfact> 0.59661773E+01</totfact>
</mgrwt>
</event>
<event>
 4    1  0.7595604E-007  0.6775169E+03  0.7818608E-02  0.1010765E+00
          2   -1    0    0  501    0  0.00000000000E+00  0.00000000000E+00  0.27144453968E+04  0.27144453968E+04  0.25500000000E-02 0. -1.
         -2   -1    0    0    0  501 -0.00000000000E+00 -0.00000000000E+00 -0.16745662051E+03  0.16745662053E+03  0.25500000000E-02 0.  1.
    8880023    1    1    2    0    0 -0.15533674018E+03  0.33006634556E+02  0.54966258315E+03  0.87244375312E+03  0.65864270000E+03 0.  1.
    8880022    1    1    2    0    0  0.15533674018E+03 -0.33006634556E+02  0.19973261931E+04  0.20094582642E+04  0.15294330000E+03 0.  0.
<mgrwt>
<rscale>  0 0.51171891E+03</rscale>
<asrwt>0</asrwt>
<pdfrwt beam="1">  1        2 0.41760697E+00 0.67751690E+03</pdfrwt>
<pdfrwt beam="2">  1       -2 0.25762558E-01 0.67751690E+03</pdfrwt>
<totfact> 0.37438304E+01</totfact>
</mgrwt>
</event>
<event>
 4    1  0.7595604E-007  0.1114626E+04  0.7818608E-02  0.9244944E-01
         -2   -1    0    0    0  501 -0.00000000000E+00  0.00000000000E+00  0.35949703686E+03  0.35949703686E+03  0.25500000000E-02 0.  1.
          2   -1    0    0  501    0  0.00000000000E+00 -0.00000000000E+00 -0.30922792273E+04  0.30922792273E+04  0.25500000000E-02 0. -1.
    8880023    1    1    2    0    0  0.65346749868E+03  0.61770594964E+03 -0.10182136104E+04  0.15096852568E+04  0.65864270000E+03 0.  0.
    8880022    1    1    2    0    0 -0.65346749868E+03 -0.61770594964E+03 -0.17145685801E+04  0.19420910074E+04  0.15294330000E+03 0.  0.
<mgrwt>
<rscale>  0 0.10601331E+04</rscale>
<asrwt>0</asrwt>
<pdfrwt beam="1">  1        2 0.47573525E+00 0.11146258E+04</pdfrwt>
<pdfrwt beam="2">  1       -2 0.55307239E-01 0.11146258E+04</pdfrwt>
<totfact> 0.47216370E+00</totfact>
</mgrwt>
</event>
<event>
 4    1  0.7595604E-007  0.1207471E+04  0.7818608E-02  0.9149894E-01
         -2   -1    0    0    0  501 -0.00000000000E+00  0.00000000000E+00  0.14902790574E+04  0.14902790574E+04  0.25500000000E-02 0.  1.
          2   -1    0    0  501    0  0.00000000000E+00 -0.00000000000E+00 -0.91708648342E+03  0.91708648343E+03  0.25500000000E-02 0. -1.
    8880023    1    1    2    0    0 -0.56630737937E+03  0.83873218697E+03 -0.50985970192E+02  0.12085468567E+04  0.65864270000E+03 0.  0.
    8880022    1    1    2    0    0  0.56630737937E+03 -0.83873218697E+03  0.62417854413E+03  0.11988186841E+04  0.15294330000E+03 0.  0.
<mgrwt>
<rscale>  0 0.11585913E+04</rscale>
<asrwt>0</asrwt>
<pdfrwt beam="1">  1        2 0.14109023E+00 0.12074709E+04</pdfrwt>
<pdfrwt beam="2">  1       -2 0.22927370E+00 0.12074709E+04</pdfrwt>
<totfact> 0.24013705E+00</totfact>
</mgrwt>
</event>
<event>
 4    1  0.7595604E-007  0.8112535E+03  0.7818608E-02  0.9686972E-01
          2   -1    0    0  501    0  0.00000000000E+00  0.00000000000E+00  0.36340451641E+04  0.36340451641E+04  0.25500000000E-02 0. -1.
         -2   -1    0    0    0  501 -0.00000000000E+00 -0.00000000000E+00 -0.15645618924E+03  0.15645618926E+03  0.25500000000E-02 0.  1.
    8880023    1    1    2    0    0 -0.42462628278E+03 -0.20979657888E+03  0.11319393747E+04  0.13926302591E+04  0.65864270000E+03 0.  1.
    8880022    1    1    2    0    0  0.42462628278E+03  0.20979657888E+03  0.23456496002E+04  0.23978710943E+04  0.15294330000E+03 0.  0.
<mgrwt>
<rscale>  0 0.71797812E+03</rscale>
<asrwt>0</asrwt>
<pdfrwt beam="1">  1        2 0.55908387E+00 0.81125353E+03</pdfrwt>
<pdfrwt beam="2">  1       -2 0.24070183E-01 0.81125353E+03</pdfrwt>
<totfact> 0.10739748E+01</totfact>
</mgrwt>
</event>
<event>
 4    1  0.7595604E-007  0.7637975E+03  0.7818608E-02  0.9795373E-01
          2   -1    0    0  501    0  0.00000000000E+00  0.00000000000E+00  0.13416451605E+04  0.13416451605E+04  0.25500000000E-02 0. -1.
         -2   -1    0    0    0  501 -0.00000000000E+00 -0.00000000000E+00 -0.68101148232E+03  0.68101148233E+03  0.25500000000E-02 0.  1.
    8880023    1    1    2    0    0 -0.37088052074E+03 -0.10965446944E+03 -0.41511362152E+03  0.86931351558E+03  0.65864270000E+03 0.  0.
    8880022    1    1    2    0    0  0.37088052074E+03  0.10965446944E+03  0.10757472997E+04  0.11533431272E+04  0.15294330000E+03 0.  0.
<mgrwt>
<rscale>  0 0.65611421E+03</rscale>
<asrwt>0</asrwt>
<pdfrwt beam="1">  1        2 0.20640695E+00 0.76379753E+03</pdfrwt>
<pdfrwt beam="2">  1       -2 0.10477100E+00 0.76379753E+03</pdfrwt>
<totfact> 0.11784668E+01</totfact>
</mgrwt>
</event>
<event>
 4    1  0.7595604E-007  0.6935214E+03  0.7818608E-02  0.1002522E+00
         -2   -1    0    0    0  501 -0.00000000000E+00  0.00000000000E+00  0.95999741636E+02  0.95999741670E+02  0.25500000000E-02 0.  1.
          2   -1    0    0  501    0  0.00000000000E+00 -0.00000000000E+00 -0.36733635840E+04  0.36733635840E+04  0.25500000000E-02 0. -1.
    8880023    1    1    2    0    0  0.19708216555E+03 -0.91216117132E+02 -0.12722554335E+04  0.14490016751E+04  0.65864270000E+03 0.  1.
    8880022    1    1    2    0    0 -0.19708216555E+03  0.91216117132E+02 -0.23051084089E+04  0.23203616506E+04  0.15294330000E+03 0.  0.
<mgrwt>
<rscale>  0 0.54558154E+03</rscale>
<asrwt>0</asrwt>
<pdfrwt beam="1">  1        2 0.56513275E+00 0.69352142E+03</pdfrwt>
<pdfrwt beam="2">  1       -2 0.14769194E-01 0.69352142E+03</pdfrwt>
<totfact> 0.24056977E+01</totfact>
</mgrwt>
</event>
<event>
 4    1  0.7595604E-007  0.8635882E+03  0.7818608E-02  0.9587212E-01
         -2   -1    0    0    0  501 -0.00000000000E+00  0.00000000000E+00  0.22561368354E+04  0.22561368354E+04  0.25500000000E-02 0.  1.
          2   -1    0    0  501    0  0.00000000000E+00 -0.00000000000E+00 -0.30607761054E+03  0.30607761055E+03  0.25500000000E-02 0. -1.
    8880023    1    1    2    0    0 -0.39173927224E+03  0.39813910547E+03  0.17465486198E+04  0.19483882294E+04  0.65864270000E+03 0.  0.
    8880022    1    1    2    0    0  0.39173927224E+03 -0.39813910547E+03  0.20351060497E+03  0.61382621651E+03  0.15294330000E+03 0.  0.
<mgrwt>
<rscale>  0 0.78148369E+03</rscale>
<asrwt>0</asrwt>
<pdfrwt beam="1">  1        2 0.47088862E-01 0.86358822E+03</pdfrwt>
<pdfrwt beam="2">  1       -2 0.34709799E+00 0.86358822E+03</pdfrwt>
<totfact> 0.18016319E+00</totfact>
</mgrwt>
</event>
<event>
 4    1  0.7595604E-007  0.7388974E+03  0.7818608E-02  0.9863171E-01
         -2   -1    0    0    0  501 -0.00000000000E+00  0.00000000000E+00  0.28590265123E+03  0.28590265124E+03  0.25500000000E-02 0.  1.
          2   -1    0    0  501    0  0.00000000000E+00 -0.00000000000E+00 -0.16314316220E+04  0.16314316220E+04  0.25500000000E-02 0. -1.
    8880023    1    1    2    0    0 -0.33225712555E+03  0.42004548600E+02 -0.28030384955E+03  0.79027820033E+03  0.65864270000E+03 0.  0.
    8880022    1    1    2    0    0  0.33225712555E+03 -0.42004548600E+02 -0.10652251212E+04  0.11270560729E+04  0.15294330000E+03 0.  0.
<mgrwt>
<rscale>  0 0.62079882E+03</rscale>
<asrwt>0</asrwt>
<pdfrwt beam="1">  1        2 0.25098948E+00 0.73889741E+03</pdfrwt>
<pdfrwt beam="2">  1       -2 0.43985024E-01 0.73889741E+03</pdfrwt>
<totfact> 0.53784350E+01</totfact>
</mgrwt>
</event>
<event>
 4    1  0.7595604E-007  0.6665523E+03  0.7818608E-02  0.1018265E+00
         -2   -1    0    0    0  501 -0.00000000000E+00  0.00000000000E+00  0.50710359893E+03  0.50710359894E+03  0.25500000000E-02 0.  1.
          2   -1    0    0  501    0  0.00000000000E+00 -0.00000000000E+00 -0.65337246758E+03  0.65337246759E+03  0.25500000000E-02 0. -1.
    8880023    1    1    2    0    0 -0.47090460989E+02  0.90907802773E+02  0.25921219885E+03  0.71518033419E+03  0.65864270000E+03 0.  1.
    8880022    1    1    2    0    0  0.47090460989E+02 -0.90907802773E+02 -0.40548106749E+03  0.44529573233E+03  0.15294330000E+03 0.  0.
<mgrwt>
<rscale>  0 0.48317895E+03</rscale>
<asrwt>0</asrwt>
<pdfrwt beam="1">  1        2 0.10051884E+00 0.66655228E+03</pdfrwt>
<pdfrwt beam="2">  1       -2 0.78015938E-01 0.66655228E+03</pdfrwt>
<totfact> 0.66537047E+01</totfact>
</mgrwt>
</event>
<event>
 4    1  0.7595604E-007  0.7697280E+03  0.7818608E-02  0.9780544E-01
          2   -1    0    0  501    0  0.00000000000E+00  0.00000000000E+00  0.16677258052E+04  0.16677258052E+04  0.25500000000E-02 0. -1.
         -2   -1    0    0    0  501 -0.00000000000E+00 -0.00000000000E+00 -0.47380270295E+03  0.47380270295E+03  0.25500000000E-02 0.  1.
    8880023    1    1    2    0    0  0.18675687625E+03  0.35184206806E+03 -0.10265760415E+03  0.77654347054E+03  0.65864270000E+03 0.  1.
    8880022    1    1    2    0    0 -0.18675687625E+03 -0.35184206806E+03  0.12965807064E+04  0.13649850376E+04  0.15294330000E+03 0.  0.
<mgrwt>
<rscale>  0 0.66417199E+03</rscale>
<asrwt>0</asrwt>
<pdfrwt beam="1">  1        2 0.25657320E+00 0.76972799E+03</pdfrwt>
<pdfrwt beam="2">  1       -2 0.72892724E-01 0.76972799E+03</pdfrwt>
<totfact> 0.17813570E+01</totfact>
</mgrwt>
</event>
<event>
 4    1  0.7595604E-007  0.8398141E+03  0.7818608E-02  0.9630531E-01
          2   -1    0    0  501    0  0.00000000000E+00  0.00000000000E+00  0.13980386853E+04  0.13980386853E+04  0.25500000000E-02 0. -1.
         -2   -1    0    0    0  501 -0.00000000000E+00 -0.00000000000E+00 -0.55512615780E+03  0.55512615780E+03  0.25500000000E-02 0.  1.
    8880023    1    1    2    0    0 -0.46487077524E+03  0.23531399256E+03 -0.11935588676E+03  0.84825323267E+03  0.65864270000E+03 0.  1.
    8880022    1    1    2    0    0  0.46487077524E+03 -0.23531399256E+03  0.96226841426E+03  0.11049116104E+04  0.15294330000E+03 0.  0.
<mgrwt>
<rscale>  0 0.75307987E+03</rscale>
<asrwt>0</asrwt>
<pdfrwt beam="1">  1        2 0.21508287E+00 0.83981410E+03</pdfrwt>
<pdfrwt beam="2">  1       -2 0.85404024E-01 0.83981410E+03</pdfrwt>
<totfact> 0.17498515E+01</totfact>
</mgrwt>
</event>
<event>
 4    1  0.7595604E-007  0.6851158E+03  0.7818608E-02  0.1006566E+00
          2   -1    0    0  501    0  0.00000000000E+00  0.00000000000E+00  0.22905370862E+04  0.22905370862E+04  0.25500000000E-02 0. -1.
         -2   -1    0    0    0  501 -0.00000000000E+00 -0.00000000000E+00 -0.17534417373E+03  0.17534417375E+03  0.25500000000E-02 0.  1.
    8880023    1    1    2    0    0 -0.13102970287E+03 -0.13566393466E+03  0.54071087890E+03  0.87278402084E+03  0.65864270000E+03 0.  1.
    8880022    1    1    2    0    0  0.13102970287E+03  0.13566393466E+03  0.15744820336E+04  0.15930972391E+04  0.15294330000E+03 0.  0.
<mgrwt>
<rscale>  0 0.52862466E+03</rscale>
<asrwt>0</asrwt>
<pdfrwt beam="1">  1        2 0.35239028E+00 0.68511582E+03</pdfrwt>
<pdfrwt beam="2">  1       -2 0.26976030E-01 0.68511582E+03</pdfrwt>
<totfact> 0.59775918E+01</totfact>
</mgrwt>
</event>
<event>
 4    1  0.7595604E-007  0.6737427E+03  0.7818608E-02  0.1013111E+00
          2   -1    0    0  501    0  0.00000000000E+00  0.00000000000E+00  0.19432923805E+04  0.19432923805E+04  0.25500000000E-02 0. -1.
         -2   -1    0    0    0  501 -0.00000000000E+00 -0.00000000000E+00 -0.21460446639E+03  0.21460446640E+03  0.25500000000E-02 0.  1.
    8880023    1    1    2    0    0  0.13555011469E+03  0.41775542741E+02  0.34193806757E+03  0.75554674103E+03  0.65864270000E+03 0.  1.
    8880022    1    1    2    0    0 -0.13555011469E+03 -0.41775542741E+02  0.13867498466E+04  0.14023501059E+04  0.15294330000E+03 0.  0.
<mgrwt>
<rscale>  0 0.50256825E+03</rscale>
<asrwt>0</asrwt>
<pdfrwt beam="1">  1        2 0.29896805E+00 0.67374271E+03</pdfrwt>
<pdfrwt beam="2">  1       -2 0.33016073E-01 0.67374271E+03</pdfrwt>
<totfact> 0.63782033E+01</totfact>
</mgrwt>
</event>
<event>
 4    1  0.7595604E-007  0.6872010E+03  0.7818608E-02  0.1005512E+00
          2   -1    0    0  501    0  0.00000000000E+00  0.00000000000E+00  0.22671350562E+04  0.22671350562E+04  0.25500000000E-02 0. -1.
         -2   -1    0    0    0  501 -0.00000000000E+00 -0.00000000000E+00 -0.12453036297E+03  0.12453036300E+03  0.25500000000E-02 0.  1.
    8880023    1    1    2    0    0 -0.19596767365E+03  0.56258205016E+01  0.94457356184E+03  0.11681029060E+04  0.65864270000E+03 0.  1.
    8880022    1    1    2    0    0  0.19596767365E+03 -0.56258205016E+01  0.11980311314E+04  0.12235625133E+04  0.15294330000E+03 0.  0.
<mgrwt>
<rscale>  0 0.53297860E+03</rscale>
<asrwt>0</asrwt>
<pdfrwt beam="1">  1        2 0.34879001E+00 0.68720098E+03</pdfrwt>
<pdfrwt beam="2">  1       -2 0.19158517E-01 0.68720098E+03</pdfrwt>
<totfact> 0.11314976E+02</totfact>
</mgrwt>
</event>
<event>
 4    1  0.7595604E-007  0.6627564E+03  0.7818608E-02  0.1021495E+00
          2   -1    0    0  501    0  0.00000000000E+00  0.00000000000E+00  0.64411205489E+03  0.64411205489E+03  0.25500000000E-02 0. -1.
         -2   -1    0    0    0  501 -0.00000000000E+00 -0.00000000000E+00 -0.63603624770E+03  0.63603624770E+03  0.25500000000E-02 0.  1.
    8880023    1    1    2    0    0 -0.48314758526E+01 -0.73569441524E+02 -0.44366828218E+03  0.79755097440E+03  0.65864270000E+03 0.  1.
    8880022    1    1    2    0    0  0.48314758526E+01  0.73569441524E+02  0.45174408937E+03  0.48259732820E+03  0.15294330000E+03 0.  0.
<mgrwt>
<rscale>  0 0.47151035E+03</rscale>
<asrwt>0</asrwt>
<pdfrwt beam="1">  1        2 0.99094163E-01 0.66275637E+03</pdfrwt>
<pdfrwt beam="2">  1       -2 0.97851730E-01 0.66275637E+03</pdfrwt>
<totfact> 0.40329150E+01</totfact>
</mgrwt>
</event>
<event>
 4    1  0.7595604E-007  0.7871518E+03  0.7818608E-02  0.9739298E-01
         -2   -1    0    0    0  501 -0.00000000000E+00  0.00000000000E+00  0.73738017890E+03  0.73738017890E+03  0.25500000000E-02 0.  1.
          2   -1    0    0  501    0  0.00000000000E+00 -0.00000000000E+00 -0.12344359253E+04  0.12344359253E+04  0.25500000000E-02 0. -1.
    8880023    1    1    2    0    0 -0.80877587322E+02 -0.42338708804E+03  0.45956021455E+03  0.91148428813E+03  0.65864270000E+03 0.  1.
    8880022    1    1    2    0    0  0.80877587322E+02  0.42338708804E+03 -0.95661596097E+03  0.10603318161E+04  0.15294330000E+03 0.  0.
<mgrwt>
<rscale>  0 0.68724464E+03</rscale>
<asrwt>0</asrwt>
<pdfrwt beam="1">  1        2 0.18991322E+00 0.78715184E+03</pdfrwt>
<pdfrwt beam="2">  1       -2 0.11344310E+00 0.78715184E+03</pdfrwt>
<totfact> 0.11185208E+01</totfact>
</mgrwt>
</event>
<event>
 4    1  0.7595604E-007  0.6957806E+03  0.7818608E-02  0.1001518E+00
          2   -1    0    0  501    0  0.00000000000E+00  0.00000000000E+00  0.61205580875E+03  0.61205580875E+03  0.25500000000E-02 0. -1.
         -2   -1    0    0    0  501 -0.00000000000E+00 -0.00000000000E+00 -0.66290465574E+03  0.66290465575E+03  0.25500000000E-02 0.  1.
    8880023    1    1    2    0    0  0.11238217324E+03  0.19408923477E+03 -0.42303675241E+03  0.81429152278E+03  0.65864270000E+03 0.  1.
    8880022    1    1    2    0    0 -0.11238217324E+03 -0.19408923477E+03  0.37218790541E+03  0.46066894172E+03  0.15294330000E+03 0.  0.
<mgrwt>
<rscale>  0 0.54989756E+03</rscale>
<asrwt>0</asrwt>
<pdfrwt beam="1">  1        2 0.94162432E-01 0.69578056E+03</pdfrwt>
<pdfrwt beam="2">  1       -2 0.10198533E+00 0.69578056E+03</pdfrwt>
<totfact> 0.38806089E+01</totfact>
</mgrwt>
</event>
<event>
 4    1  0.7595604E-007  0.9118326E+03  0.7818608E-02  0.9507297E-01
          2   -1    0    0  501    0  0.00000000000E+00  0.00000000000E+00  0.17423663605E+04  0.17423663605E+04  0.25500000000E-02 0. -1.
         -2   -1    0    0    0  501 -0.00000000000E+00 -0.00000000000E+00 -0.62704085595E+03  0.62704085595E+03  0.25500000000E-02 0.  1.
    8880023    1    1    2    0    0  0.36054291434E+03  0.51733671764E+03 -0.17189651077E+03  0.92789389974E+03  0.65864270000E+03 0.  1.
    8880022    1    1    2    0    0 -0.36054291434E+03 -0.51733671764E+03  0.12872220153E+04  0.14415133167E+04  0.15294330000E+03 0.  0.
<mgrwt>
<rscale>  0 0.83747951E+03</rscale>
<asrwt>0</asrwt>
<pdfrwt beam="1">  1        2 0.26805636E+00 0.91183259E+03</pdfrwt>
<pdfrwt beam="2">  1       -2 0.96467825E-01 0.91183259E+03</pdfrwt>
<totfact> 0.84174501E+00</totfact>
</mgrwt>
</event>
<event>
 4    1  0.7595604E-007  0.8450536E+03  0.7818608E-02  0.9620724E-01
          2   -1    0    0  501    0  0.00000000000E+00  0.00000000000E+00  0.30773835738E+04  0.30773835738E+04  0.25500000000E-02 0. -1.
         -2   -1    0    0    0  501 -0.00000000000E+00 -0.00000000000E+00 -0.28415728852E+03  0.28415728853E+03  0.25500000000E-02 0.  1.
    8880023    1    1    2    0    0 -0.52344663022E+03  0.79428914192E+02  0.45602278464E+03  0.96024596509E+03  0.65864270000E+03 0.  0.
    8880022    1    1    2    0    0  0.52344663022E+03 -0.79428914192E+02  0.23372035006E+04  0.24012948972E+04  0.15294330000E+03 0.  0.
<mgrwt>
<rscale>  0 0.75939588E+03</rscale>
<asrwt>0</asrwt>
<pdfrwt beam="1">  1        2 0.47344362E+00 0.84505357E+03</pdfrwt>
<pdfrwt beam="2">  1       -2 0.43716506E-01 0.84505357E+03</pdfrwt>
<totfact> 0.80982130E+00</totfact>
</mgrwt>
</event>
<event>
 4    1  0.7595604E-007  0.8304696E+03  0.7818608E-02  0.9648419E-01
          2   -1    0    0  501    0  0.00000000000E+00  0.00000000000E+00  0.13747741617E+04  0.13747741617E+04  0.25500000000E-02 0. -1.
         -2   -1    0    0    0  501 -0.00000000000E+00 -0.00000000000E+00 -0.71727625576E+03  0.71727625576E+03  0.25500000000E-02 0.  1.
    8880023    1    1    2    0    0 -0.49825384729E+03 -0.87250234586E+02 -0.39099813691E+03  0.91791026201E+03  0.65864270000E+03 0.  0.
    8880022    1    1    2    0    0  0.49825384729E+03  0.87250234586E+02  0.10484960429E+04  0.11741401555E+04  0.15294330000E+03 0.  1.
<mgrwt>
<rscale>  0 0.74172703E+03</rscale>
<asrwt>0</asrwt>
<pdfrwt beam="1">  1        2 0.21150372E+00 0.83046957E+03</pdfrwt>
<pdfrwt beam="2">  1       -2 0.11035019E+00 0.83046957E+03</pdfrwt>
<totfact> 0.98741906E+00</totfact>
</mgrwt>
</event>
<event>
 4    1  0.7595604E-007  0.7911388E+03  0.7818608E-02  0.9730294E-01
          2   -1    0    0  501    0  0.00000000000E+00  0.00000000000E+00  0.69687643874E+03  0.69687643874E+03  0.25500000000E-02 0. -1.
         -2   -1    0    0    0  501 -0.00000000000E+00 -0.00000000000E+00 -0.18881109390E+04  0.18881109390E+04  0.25500000000E-02 0.  1.
    8880023    1    1    2    0    0  0.34617695601E+03 -0.26879713315E+03 -0.17128484940E+04  0.18867301221E+04  0.65864270000E+03 0.  1.
    8880022    1    1    2    0    0 -0.34617695601E+03  0.26879713315E+03  0.52161399375E+03  0.69825725571E+03  0.15294330000E+03 0.  0.
<mgrwt>
<rscale>  0 0.69241409E+03</rscale>
<asrwt>0</asrwt>
<pdfrwt beam="1">  1        2 0.10721176E+00 0.79113879E+03</pdfrwt>
<pdfrwt beam="2">  1       -2 0.29047860E+00 0.79113879E+03</pdfrwt>
<totfact> 0.15480650E+00</totfact>
</mgrwt>
</event>
<event>
 4    1  0.7595604E-007  0.6651671E+03  0.7818608E-02  0.1019394E+00
          2   -1    0    0  501    0  0.00000000000E+00  0.00000000000E+00  0.14860382093E+04  0.14860382093E+04  0.25500000000E-02 0. -1.
         -2   -1    0    0    0  501 -0.00000000000E+00 -0.00000000000E+00 -0.34064972317E+03  0.34064972318E+03  0.25500000000E-02 0.  1.
    8880023    1    1    2    0    0  0.11021235696E+02 -0.92280066411E+02 -0.22582296509E+01  0.66517094356E+03  0.65864270000E+03 0.  1.
    8880022    1    1    2    0    0 -0.11021235696E+02  0.92280066411E+02  0.11476467158E+04  0.11615169889E+04  0.15294330000E+03 0.  0.
<mgrwt>
<rscale>  0 0.47906070E+03</rscale>
<asrwt>0</asrwt>
<pdfrwt beam="1">  1        2 0.22862127E+00 0.66516711E+03</pdfrwt>
<pdfrwt beam="2">  1       -2 0.52407649E-01 0.66516711E+03</pdfrwt>
<totfact> 0.45824116E+01</totfact>
</mgrwt>
</event>
<event>
 4    1  0.7595604E-007  0.6670615E+03  0.7818608E-02  0.1017863E+00
          2   -1    0    0  501    0  0.00000000000E+00  0.00000000000E+00  0.13433633951E+04  0.13433633951E+04  0.25500000000E-02 0. -1.
         -2   -1    0    0    0  501 -0.00000000000E+00 -0.00000000000E+00 -0.18537723064E+03  0.18537723066E+03  0.25500000000E-02 0.  1.
    8880023    1    1    2    0    0  0.63762654066E+02  0.84232715051E+02  0.46980434086E+03  0.81589653222E+03  0.65864270000E+03 0.  1.
    8880022    1    1    2    0    0 -0.63762654066E+02 -0.84232715051E+02  0.68818182362E+03  0.71284409355E+03  0.15294330000E+03 0.  0.
<mgrwt>
<rscale>  0 0.48465679E+03</rscale>
<asrwt>0</asrwt>
<pdfrwt beam="1">  1        2 0.20667129E+00 0.66706149E+03</pdfrwt>
<pdfrwt beam="2">  1       -2 0.28519574E-01 0.66706149E+03</pdfrwt>
<totfact> 0.17917382E+02</totfact>
</mgrwt>
</event>
<event>
 4    1  0.7595604E-007  0.7061833E+03  0.7818608E-02  0.9972457E-01
          2   -1    0    0  501    0  0.00000000000E+00  0.00000000000E+00  0.27375575248E+04  0.27375575248E+04  0.25500000000E-02 0. -1.
         -2   -1    0    0    0  501 -0.00000000000E+00 -0.00000000000E+00 -0.19589437701E+03  0.19589437702E+03  0.25500000000E-02 0.  1.
    8880023    1    1    2    0    0 -0.12298581885E+03  0.22306762214E+03  0.48796569197E+03  0.85837369397E+03  0.65864270000E+03 0.  1.
    8880022    1    1    2    0    0  0.12298581885E+03 -0.22306762214E+03  0.20536974558E+04  0.20750782079E+04  0.15294330000E+03 0.  0.
<mgrwt>
<rscale>  0 0.56874635E+03</rscale>
<asrwt>0</asrwt>
<pdfrwt beam="1">  1        2 0.42116267E+00 0.70618332E+03</pdfrwt>
<pdfrwt beam="2">  1       -2 0.30137598E-01 0.70618332E+03</pdfrwt>
<totfact> 0.27102049E+01</totfact>
</mgrwt>
</event>
<event>
 4    1  0.7595604E-007  0.8165829E+03  0.7818608E-02  0.9676025E-01
          2   -1    0    0  501    0  0.00000000000E+00  0.00000000000E+00  0.22822351641E+04  0.22822351641E+04  0.25500000000E-02 0. -1.
         -2   -1    0    0    0  501 -0.00000000000E+00 -0.00000000000E+00 -0.81091666736E+03  0.81091666736E+03  0.25500000000E-02 0.  1.
    8880023    1    1    2    0    0 -0.41353895340E+02 -0.48092337344E+03 -0.56618950012E+03  0.99366905562E+03  0.65864270000E+03 0.  1.
    8880022    1    1    2    0    0  0.41353895340E+02  0.48092337344E+03  0.20375079968E+04  0.20994827758E+04  0.15294330000E+03 0.  0.
<mgrwt>
<rscale>  0 0.72462390E+03</rscale>
<asrwt>0</asrwt>
<pdfrwt beam="1">  1        2 0.35111310E+00 0.81658291E+03</pdfrwt>
<pdfrwt beam="2">  1       -2 0.12475641E+00 0.81658291E+03</pdfrwt>
<totfact> 0.23070450E+00</totfact>
</mgrwt>
</event>
<event>
 4    1  0.7595604E-007  0.7476622E+03  0.7818608E-02  0.9838165E-01
         -2   -1    0    0    0  501 -0.00000000000E+00  0.00000000000E+00  0.43611851769E+03  0.43611851769E+03  0.25500000000E-02 0.  1.
          2   -1    0    0  501    0  0.00000000000E+00 -0.00000000000E+00 -0.20064124859E+04  0.20064124859E+04  0.25500000000E-02 0. -1.
    8880023    1    1    2    0    0  0.32673537014E+03 -0.13576659839E+03  0.76184614132E+02  0.75153368057E+03  0.65864270000E+03 0.  0.
    8880022    1    1    2    0    0 -0.32673537014E+03  0.13576659839E+03 -0.16464785823E+04  0.16909973230E+04  0.15294330000E+03 0.  0.
<mgrwt>
<rscale>  0 0.63354023E+03</rscale>
<asrwt>0</asrwt>
<pdfrwt beam="1">  1        2 0.30867884E+00 0.74766221E+03</pdfrwt>
<pdfrwt beam="2">  1       -2 0.67095158E-01 0.74766221E+03</pdfrwt>
<totfact> 0.13986709E+01</totfact>
</mgrwt>
</event>
<event>
 4    1  0.7595604E-007  0.8431605E+03  0.7818608E-02  0.9624249E-01
          2   -1    0    0  501    0  0.00000000000E+00  0.00000000000E+00  0.89301594059E+03  0.89301594059E+03  0.25500000000E-02 0. -1.
         -2   -1    0    0    0  501 -0.00000000000E+00 -0.00000000000E+00 -0.85924852441E+03  0.85924852442E+03  0.25500000000E-02 0.  1.
    8880023    1    1    2    0    0  0.13523079075E+03  0.50874562837E+03 -0.50567724110E+03  0.98317300593E+03  0.65864270000E+03 0.  1.
    8880022    1    1    2    0    0 -0.13523079075E+03 -0.50874562837E+03  0.53944465728E+03  0.76909145908E+03  0.15294330000E+03 0.  0.
<mgrwt>
<rscale>  0 0.75711782E+03</rscale>
<asrwt>0</asrwt>
<pdfrwt beam="1">  1        2 0.13738707E+00 0.84316053E+03</pdfrwt>
<pdfrwt beam="2">  1       -2 0.13219208E+00 0.84316053E+03</pdfrwt>
<totfact> 0.12416608E+01</totfact>
</mgrwt>
</event>
<event>
 4    1  0.7595604E-007  0.7768775E+03  0.7818608E-02  0.9763223E-01
          2   -1    0    0  501    0  0.00000000000E+00  0.00000000000E+00  0.23961816793E+03  0.23961816795E+03  0.25500000000E-02 0. -1.
         -2   -1    0    0    0  501 -0.00000000000E+00 -0.00000000000E+00 -0.22492489295E+04  0.22492489295E+04  0.25500000000E-02 0.  1.
    8880023    1    1    2    0    0  0.41196585013E+03 -0.35569991381E+01 -0.18744926474E+04  0.20291035965E+04  0.65864270000E+03 0.  1.
    8880022    1    1    2    0    0 -0.41196585013E+03  0.35569991381E+01 -0.13513811422E+03  0.45976350100E+03  0.15294330000E+03 0.  0.
<mgrwt>
<rscale>  0 0.67374085E+03</rscale>
<asrwt>0</asrwt>
<pdfrwt beam="1">  1        2 0.36864335E-01 0.77687755E+03</pdfrwt>
<pdfrwt beam="2">  1       -2 0.34603828E+00 0.77687755E+03</pdfrwt>
<totfact> 0.24331376E+00</totfact>
</mgrwt>
</event>
<event>
 4    1  0.7595604E-007  0.1213668E+04  0.7818608E-02  0.9143949E-01
          2   -1    0    0  501    0  0.00000000000E+00  0.00000000000E+00  0.10428193138E+04  0.10428193138E+04  0.25500000000E-02 0. -1.
         -2   -1    0    0    0  501 -0.00000000000E+00 -0.00000000000E+00 -0.22026795823E+04  0.22026795823E+04  0.25500000000E-02 0.  1.
    8880023    1    1    2    0    0 -0.10073729878E+04 -0.15614027067E+03  0.48281758457E+03  0.13061788342E+04  0.65864270000E+03 0. -1.
    8880022    1    1    2    0    0  0.10073729878E+04  0.15614027067E+03 -0.16426778530E+04  0.19393200619E+04  0.15294330000E+03 0.  0.
<mgrwt>
<rscale>  0 0.11651176E+04</rscale>
<asrwt>0</asrwt>
<pdfrwt beam="1">  1        2 0.16043374E+00 0.12136681E+04</pdfrwt>
<pdfrwt beam="2">  1       -2 0.33887378E+00 0.12136681E+04</pdfrwt>
<totfact> 0.42348270E-01</totfact>
</mgrwt>
</event>
<event>
 4    1  0.7595604E-007  0.9798011E+03  0.7818608E-02  0.9408474E-01
         -2   -1    0    0    0  501 -0.00000000000E+00  0.00000000000E+00  0.76024424690E+03  0.76024424690E+03  0.25500000000E-02 0.  1.
          2   -1    0    0  501    0  0.00000000000E+00 -0.00000000000E+00 -0.13944774289E+04  0.13944774289E+04  0.25500000000E-02 0. -1.
    8880023    1    1    2    0    0 -0.24982333711E+03 -0.68102001077E+03  0.23971116260E+03  0.10086979739E+04  0.65864270000E+03 0.  0.
    8880022    1    1    2    0    0  0.24982333711E+03  0.68102001077E+03 -0.87394434465E+03  0.11460237019E+04  0.15294330000E+03 0.  0.
<mgrwt>
<rscale>  0 0.91381535E+03</rscale>
<asrwt>0</asrwt>
<pdfrwt beam="1">  1        2 0.21453499E+00 0.97980108E+03</pdfrwt>
<pdfrwt beam="2">  1       -2 0.11696065E+00 0.97980108E+03</pdfrwt>
<totfact> 0.82107015E+00</totfact>
</mgrwt>
</event>
<event>
 4    1  0.7595604E-007  0.7001322E+03  0.7818608E-02  0.9996653E-01
         -2   -1    0    0    0  501 -0.00000000000E+00  0.00000000000E+00  0.27273995524E+03  0.27273995526E+03  0.25500000000E-02 0.  1.
          2   -1    0    0  501    0  0.00000000000E+00 -0.00000000000E+00 -0.11918386790E+04  0.11918386790E+04  0.25500000000E-02 0. -1.
    8880023    1    1    2    0    0  0.15456611498E+03  0.18023359934E+03 -0.25883402462E+03  0.74644496971E+03  0.65864270000E+03 0.  0.
    8880022    1    1    2    0    0 -0.15456611498E+03 -0.18023359934E+03 -0.66026469916E+03  0.71813366458E+03  0.15294330000E+03 0.  0.
<mgrwt>
<rscale>  0 0.55797222E+03</rscale>
<asrwt>0</asrwt>
<pdfrwt beam="1">  1        2 0.18335979E+00 0.70013216E+03</pdfrwt>
<pdfrwt beam="2">  1       -2 0.41959994E-01 0.70013216E+03</pdfrwt>
<totfact> 0.10506347E+02</totfact>
</mgrwt>
</event>
<event>
 4    1  0.9174666E-007  0.6971405E+03  0.7818608E-02  0.1000928E+00
          2   -1    0    0  501    0  0.00000000000E+00  0.00000000000E+00  0.19681303826E+04  0.19681303826E+04  0.25500000000E-02 0. -1.
         -2   -1    0    0    0  501 -0.00000000000E+00 -0.00000000000E+00 -0.11566329151E+04  0.11566329151E+04  0.25500000000E-02 0.  1.
    8880023    1    1    2    0    0  0.12780758592E+03  0.18936690325E+03 -0.10405080992E+04  0.12524623403E+04  0.65864270000E+03 0.  1.
    8880022    1    1    2    0    0 -0.12780758592E+03 -0.18936690325E+03  0.18520055667E+04  0.18723009574E+04  0.15294330000E+03 0.  0.
<mgrwt>
<rscale>  0 0.55245329E+03</rscale>
<asrwt>0</asrwt>
<pdfrwt beam="1">  1        2 0.30278929E+00 0.69714045E+03</pdfrwt>
<pdfrwt beam="2">  1       -2 0.17794352E+00 0.69714045E+03</pdfrwt>
<totfact> 0.13707537E+00</totfact>
</mgrwt>
</event>
<event>
 4    1  0.7595604E-007  0.1143410E+04  0.7818608E-02  0.9214197E-01
         -2   -1    0    0    0  501 -0.00000000000E+00  0.00000000000E+00  0.76197665121E+03  0.76197665121E+03  0.25500000000E-02 0.  1.
          2   -1    0    0  501    0  0.00000000000E+00 -0.00000000000E+00 -0.27689534403E+04  0.27689534403E+04  0.25500000000E-02 0. -1.
    8880023    1    1    2    0    0  0.57415130430E+03  0.73751401066E+03 -0.22754076978E+04  0.25465402085E+04  0.65864270000E+03 0.  0.
    8880022    1    1    2    0    0 -0.57415130430E+03 -0.73751401066E+03  0.26843090863E+03  0.98438988306E+03  0.15294330000E+03 0.  0.
<mgrwt>
<rscale>  0 0.10908089E+04</rscale>
<asrwt>0</asrwt>
<pdfrwt beam="1">  1        2 0.42599283E+00 0.11434102E+04</pdfrwt>
<pdfrwt beam="2">  1       -2 0.11722718E+00 0.11434102E+04</pdfrwt>
<totfact> 0.13475075E+00</totfact>
</mgrwt>
</event>
<event>
 4    1  0.7595604E-007  0.8811752E+03  0.7818608E-02  0.9556953E-01
         -2   -1    0    0    0  501 -0.00000000000E+00  0.00000000000E+00  0.57989189802E+03  0.57989189802E+03  0.25500000000E-02 0.  1.
          2   -1    0    0  501    0  0.00000000000E+00 -0.00000000000E+00 -0.11756650637E+04  0.11756650637E+04  0.25500000000E-02 0. -1.
    8880023    1    1    2    0    0  0.48048956600E+03 -0.33434911900E+03  0.34551013474E+02  0.88185233186E+03  0.65864270000E+03 0. -1.
    8880022    1    1    2    0    0 -0.48048956600E+03  0.33434911900E+03 -0.63032417918E+03  0.87370462988E+03  0.15294330000E+03 0.  0.
<mgrwt>
<rscale>  0 0.80212017E+03</rscale>
<asrwt>0</asrwt>
<pdfrwt beam="1">  1        2 0.18087155E+00 0.88117522E+03</pdfrwt>
<pdfrwt beam="2">  1       -2 0.89214139E-01 0.88117522E+03</pdfrwt>
<totfact> 0.21237295E+01</totfact>
</mgrwt>
</event>
<event>
 4    1  0.7595604E-007  0.7828371E+03  0.7818608E-02  0.9749214E-01
          2   -1    0    0  501    0  0.00000000000E+00  0.00000000000E+00  0.41950673113E+03  0.41950673114E+03  0.25500000000E-02 0. -1.
         -2   -1    0    0    0  501 -0.00000000000E+00 -0.00000000000E+00 -0.90563716430E+03  0.90563716431E+03  0.25500000000E-02 0.  1.
    8880023    1    1    2    0    0  0.37517308851E+03  0.19562447591E+03 -0.30597971283E+03  0.84051030502E+03  0.65864270000E+03 0.  0.
    8880022    1    1    2    0    0 -0.37517308851E+03 -0.19562447591E+03 -0.18015072033E+03  0.48463359043E+03  0.15294330000E+03 0. -1.
<mgrwt>
<rscale>  0 0.68160696E+03</rscale>
<asrwt>0</asrwt>
<pdfrwt beam="1">  1        2 0.64539497E-01 0.78283714E+03</pdfrwt>
<pdfrwt beam="2">  1       -2 0.13932879E+00 0.78283714E+03</pdfrwt>
<totfact> 0.27670865E+01</totfact>
</mgrwt>
</event>
<event>
 4    1  0.7595604E-007  0.7136180E+03  0.7818608E-02  0.9944803E-01
          2   -1    0    0  501    0  0.00000000000E+00  0.00000000000E+00  0.28210540014E+03  0.28210540015E+03  0.25500000000E-02 0. -1.
         -2   -1    0    0    0  501 -0.00000000000E+00 -0.00000000000E+00 -0.14393647881E+04  0.14393647881E+04  0.25500000000E-02 0.  1.
    8880023    1    1    2    0    0  0.26592271625E+03  0.68742949035E+02 -0.12079884964E+04  0.14030277609E+04  0.65864270000E+03 0.  1.
    8880022    1    1    2    0    0 -0.26592271625E+03 -0.68742949035E+02  0.50729108499E+02  0.31844242733E+03  0.15294330000E+03 0.  0.
<mgrwt>
<rscale>  0 0.58138207E+03</rscale>
<asrwt>0</asrwt>
<pdfrwt beam="1">  1        2 0.43400832E-01 0.71361803E+03</pdfrwt>
<pdfrwt beam="2">  1       -2 0.22144073E+00 0.71361803E+03</pdfrwt>
<totfact> 0.11661720E+01</totfact>
</mgrwt>
</event>
<event>
 4    1  0.7595604E-007  0.1171024E+04  0.7818608E-02  0.9185817E-01
         -2   -1    0    0    0  501 -0.00000000000E+00  0.00000000000E+00  0.53489930714E+03  0.53489930714E+03  0.25500000000E-02 0.  1.
          2   -1    0    0  501    0  0.00000000000E+00 -0.00000000000E+00 -0.22076940223E+04  0.22076940223E+04  0.25500000000E-02 0. -1.
    8880023    1    1    2    0    0  0.85801002855E+03 -0.44867068270E+03 -0.71471396463E+03  0.13719011802E+04  0.65864270000E+03 0.  1.
    8880022    1    1    2    0    0 -0.85801002855E+03  0.44867068270E+03 -0.95808075057E+03  0.13706921493E+04  0.15294330000E+03 0. -1.
<mgrwt>
<rscale>  0 0.11201027E+04</rscale>
<asrwt>0</asrwt>
<pdfrwt beam="1">  1        2 0.33964523E+00 0.11710238E+04</pdfrwt>
<pdfrwt beam="2">  1       -2 0.82292202E-01 0.11710238E+04</pdfrwt>
<totfact> 0.65368752E+00</totfact>
</mgrwt>
</event>
<event>
 4    1  0.7595604E-007  0.8650130E+03  0.7818608E-02  0.9584708E-01
          2   -1    0    0  501    0  0.00000000000E+00  0.00000000000E+00  0.35972151562E+04  0.35972151562E+04  0.25500000000E-02 0. -1.
         -2   -1    0    0    0  501 -0.00000000000E+00 -0.00000000000E+00 -0.26497706592E+03  0.26497706593E+03  0.25500000000E-02 0.  1.
    8880023    1    1    2    0    0  0.99390266356E+02 -0.55186858973E+03  0.56179736535E+03  0.10314377593E+04  0.65864270000E+03 0.  1.
    8880022    1    1    2    0    0 -0.99390266356E+02  0.55186858973E+03  0.27704407249E+04  0.28307544628E+04  0.15294330000E+03 0.  0.
<mgrwt>
<rscale>  0 0.78316652E+03</rscale>
<asrwt>0</asrwt>
<pdfrwt beam="1">  1        2 0.55341770E+00 0.86501305E+03</pdfrwt>
<pdfrwt beam="2">  1       -2 0.40765704E-01 0.86501305E+03</pdfrwt>
<totfact> 0.42050086E+00</totfact>
</mgrwt>
</event>
<event>
 4    1  0.7595604E-007  0.1045274E+04  0.7818608E-02  0.9324585E-01
          2   -1    0    0  501    0  0.00000000000E+00  0.00000000000E+00  0.19031298417E+04  0.19031298417E+04  0.25500000000E-02 0. -1.
         -2   -1    0    0    0  501 -0.00000000000E+00 -0.00000000000E+00 -0.84092624373E+03  0.84092624373E+03  0.25500000000E-02 0.  1.
    8880023    1    1    2    0    0 -0.76546181879E+03  0.26991688520E+03 -0.35485275771E+03  0.11038648499E+04  0.65864270000E+03 0.  0.
    8880022    1    1    2    0    0  0.76546181879E+03 -0.26991688520E+03  0.14170563557E+04  0.16401912355E+04  0.15294330000E+03 0.  0.
<mgrwt>
<rscale>  0 0.98550715E+03</rscale>
<asrwt>0</asrwt>
<pdfrwt beam="1">  1        2 0.29278921E+00 0.10452737E+04</pdfrwt>
<pdfrwt beam="2">  1       -2 0.12937327E+00 0.10452737E+04</pdfrwt>
<totfact> 0.32975223E+00</totfact>
</mgrwt>
</event>
<event>
 4    1  0.7595604E-007  0.1392607E+04  0.7818608E-02  0.8989448E-01
          2   -1    0    0  501    0  0.00000000000E+00  0.00000000000E+00  0.23508117525E+04  0.23508117525E+04  0.25500000000E-02 0. -1.
         -2   -1    0    0    0  501 -0.00000000000E+00 -0.00000000000E+00 -0.88435283516E+03  0.88435283517E+03  0.25500000000E-02 0.  1.
    8880023    1    1    2    0    0 -0.11932597947E+04  0.28579088801E+03  0.14329995792E+04  0.19982100414E+04  0.65864270000E+03 0.  0.
    8880022    1    1    2    0    0  0.11932597947E+04 -0.28579088801E+03  0.33459338191E+02  0.12369545463E+04  0.15294330000E+03 0.  0.
<mgrwt>
<rscale>  0 0.13518243E+04</rscale>
<asrwt>0</asrwt>
<pdfrwt beam="1">  1        2 0.36166334E+00 0.13926075E+04</pdfrwt>
<pdfrwt beam="2">  1       -2 0.13605428E+00 0.13926075E+04</pdfrwt>
<totfact> 0.15693659E+00</totfact>
</mgrwt>
</event>
<event>
 4    1  0.7595604E-007  0.8322287E+03  0.7818608E-02  0.9645012E-01
         -2   -1    0    0    0  501 -0.00000000000E+00  0.00000000000E+00  0.27618354586E+03  0.27618354587E+03  0.25500000000E-02 0.  1.
          2   -1    0    0  501    0  0.00000000000E+00 -0.00000000000E+00 -0.31712358719E+04  0.31712358719E+04  0.25500000000E-02 0. -1.
    8880023    1    1    2    0    0 -0.39646368663E+02  0.50717114799E+03 -0.45154271443E+03  0.94683442962E+03  0.65864270000E+03 0.  1.
    8880022    1    1    2    0    0  0.39646368663E+02 -0.50717114799E+03 -0.24435096116E+04  0.25005849882E+04  0.15294330000E+03 0.  0.
<mgrwt>
<rscale>  0 0.74387329E+03</rscale>
<asrwt>0</asrwt>
<pdfrwt beam="1">  1        2 0.48788241E+00 0.83222870E+03</pdfrwt>
<pdfrwt beam="2">  1       -2 0.42489779E-01 0.83222870E+03</pdfrwt>
<totfact> 0.74956637E+00</totfact>
</mgrwt>
</event>
<event>
 4    1  0.7595604E-007  0.7043039E+03  0.7818608E-02  0.9979794E-01
         -2   -1    0    0    0  501 -0.00000000000E+00  0.00000000000E+00  0.49647513261E+03  0.49647513261E+03  0.25500000000E-02 0.  1.
          2   -1    0    0  501    0  0.00000000000E+00 -0.00000000000E+00 -0.92725285614E+03  0.92725285615E+03  0.25500000000E-02 0. -1.
    8880023    1    1    2    0    0 -0.24769434053E+03  0.29687482233E+02  0.19680079570E+03  0.73128284021E+03  0.65864270000E+03 0.  1.
    8880022    1    1    2    0    0  0.24769434053E+03 -0.29687482233E+02 -0.62757851924E+03  0.69244514855E+03  0.15294330000E+03 0.  0.
<mgrwt>
<rscale>  0 0.56545164E+03</rscale>
<asrwt>0</asrwt>
<pdfrwt beam="1">  1        2 0.14265428E+00 0.70430394E+03</pdfrwt>
<pdfrwt beam="2">  1       -2 0.76380790E-01 0.70430394E+03</pdfrwt>
<totfact> 0.43924680E+01</totfact>
</mgrwt>
</event>
<event>
 4    1  0.7595604E-007  0.8897288E+03  0.7818608E-02  0.9542725E-01
         -2   -1    0    0    0  501 -0.00000000000E+00  0.00000000000E+00  0.62300085448E+03  0.62300085449E+03  0.25500000000E-02 0.  1.
          2   -1    0    0  501    0  0.00000000000E+00 -0.00000000000E+00 -0.13662936731E+04  0.13662936731E+04  0.25500000000E-02 0. -1.
    8880023    1    1    2    0    0 -0.50722463789E+03  0.31706523859E+03 -0.98401523920E+03  0.13266135067E+04  0.65864270000E+03 0.  0.
    8880022    1    1    2    0    0  0.50722463789E+03 -0.31706523859E+03  0.24072242054E+03  0.66268102098E+03  0.15294330000E+03 0.  0.
<mgrwt>
<rscale>  0 0.81205828E+03</rscale>
<asrwt>0</asrwt>
<pdfrwt beam="1">  1        2 0.21019903E+00 0.88972884E+03</pdfrwt>
<pdfrwt beam="2">  1       -2 0.95846286E-01 0.88972884E+03</pdfrwt>
<totfact> 0.13893127E+01</totfact>
</mgrwt>
</event>
<event>
 4    1  0.7595604E-007  0.1191728E+04  0.7818608E-02  0.9165206E-01
          2   -1    0    0  501    0  0.00000000000E+00  0.00000000000E+00  0.20062324600E+04  0.20062324600E+04  0.25500000000E-02 0. -1.
         -2   -1    0    0    0  501 -0.00000000000E+00 -0.00000000000E+00 -0.80482361032E+03  0.80482361032E+03  0.25500000000E-02 0.  1.
    8880023    1    1    2    0    0 -0.79978691396E+03  0.58885090372E+03  0.13438238443E+04  0.17961283989E+04  0.65864270000E+03 0.  0.
    8880022    1    1    2    0    0  0.79978691396E+03 -0.58885090372E+03 -0.14241499460E+03  0.10149276714E+04  0.15294330000E+03 0.  0.
<mgrwt>
<rscale>  0 0.11419891E+04</rscale>
<asrwt>0</asrwt>
<pdfrwt beam="1">  1        2 0.30865114E+00 0.11917276E+04</pdfrwt>
<pdfrwt beam="2">  1       -2 0.12381902E+00 0.11917276E+04</pdfrwt>
<totfact> 0.31790521E+00</totfact>
</mgrwt>
</event>
<event>
 4    1  0.7595604E-007  0.6673974E+03  0.7818608E-02  0.1017602E+00
         -2   -1    0    0    0  501 -0.00000000000E+00  0.00000000000E+00  0.24056982179E+03  0.24056982181E+03  0.25500000000E-02 0.  1.
          2   -1    0    0  501    0  0.00000000000E+00 -0.00000000000E+00 -0.13309725717E+04  0.13309725717E+04  0.25500000000E-02 0. -1.
    8880023    1    1    2    0    0  0.40369592186E+02 -0.99896881874E+02 -0.25339720059E+03  0.71388335077E+03  0.65864270000E+03 0.  1.
    8880022    1    1    2    0    0 -0.40369592186E+02  0.99896881874E+02 -0.83700554928E+03  0.85765904270E+03  0.15294330000E+03 0.  0.
<mgrwt>
<rscale>  0 0.48562166E+03</rscale>
<asrwt>0</asrwt>
<pdfrwt beam="1">  1        2 0.20476501E+00 0.66739741E+03</pdfrwt>
<pdfrwt beam="2">  1       -2 0.37010743E-01 0.66739741E+03</pdfrwt>
<totfact> 0.11163769E+02</totfact>
</mgrwt>
</event>
<event>
 4    1  0.7595604E-007  0.1112635E+04  0.7818608E-02  0.9247118E-01
         -2   -1    0    0    0  501 -0.00000000000E+00  0.00000000000E+00  0.16047620556E+04  0.16047620556E+04  0.25500000000E-02 0.  1.
          2   -1    0    0  501    0  0.00000000000E+00 -0.00000000000E+00 -0.13323422371E+04  0.13323422371E+04  0.25500000000E-02 0. -1.
    8880023    1    1    2    0    0  0.32977242376E+02  0.89613528508E+03  0.12010014250E+04  0.16371806793E+04  0.65864270000E+03 0.  1.
    8880022    1    1    2    0    0 -0.32977242376E+02 -0.89613528508E+03 -0.92858160648E+03  0.12999236134E+04  0.15294330000E+03 0.  0.
<mgrwt>
<rscale>  0 0.10580055E+04</rscale>
<asrwt>0</asrwt>
<pdfrwt beam="1">  1        2 0.20497573E+00 0.11126348E+04</pdfrwt>
<pdfrwt beam="2">  1       -2 0.24688647E+00 0.11126348E+04</pdfrwt>
<totfact> 0.10442737E+00</totfact>
</mgrwt>
</event>
<event>
 4    1  0.7595604E-007  0.7034480E+03  0.7818608E-02  0.9983187E-01
          2   -1    0    0  501    0  0.00000000000E+00  0.00000000000E+00  0.33431853622E+04  0.33431853622E+04  0.25500000000E-02 0. -1.
         -2   -1    0    0    0  501 -0.00000000000E+00 -0.00000000000E+00 -0.16664435589E+03  0.16664435590E+03  0.25500000000E-02 0.  1.
    8880023    1    1    2    0    0  0.21090788362E+03 -0.12863440171E+03  0.62255274254E+03  0.93936737658E+03  0.65864270000E+03 0.  1.
    8880022    1    1    2    0    0 -0.21090788362E+03  0.12863440171E+03  0.25539882638E+04  0.25704623415E+04  0.15294330000E+03 0.  0.
<mgrwt>
<rscale>  0 0.56393633E+03</rscale>
<asrwt>0</asrwt>
<pdfrwt beam="1">  1        2 0.51433617E+00 0.70344804E+03</pdfrwt>
<pdfrwt beam="2">  1       -2 0.25637595E-01 0.70344804E+03</pdfrwt>
<totfact> 0.15425968E+01</totfact>
</mgrwt>
</event>
<event>
 4    1  0.7595604E-007  0.9425537E+03  0.7818608E-02  0.9460910E-01
          2   -1    0    0  501    0  0.00000000000E+00  0.00000000000E+00  0.78910951589E+03  0.78910951590E+03  0.25500000000E-02 0. -1.
         -2   -1    0    0    0  501 -0.00000000000E+00 -0.00000000000E+00 -0.13255524095E+04  0.13255524096E+04  0.25500000000E-02 0.  1.
    8880023    1    1    2    0    0  0.64654511180E+03  0.19125048256E+03  0.33675108430E+03  0.10009040052E+04  0.65864270000E+03 0.  0.
    8880022    1    1    2    0    0 -0.64654511180E+03 -0.19125048256E+03 -0.87319397796E+03  0.11137579202E+04  0.15294330000E+03 0.  0.
<mgrwt>
<rscale>  0 0.87228182E+03</rscale>
<asrwt>0</asrwt>
<pdfrwt beam="1">  1        2 0.12140146E+00 0.94255373E+03</pdfrwt>
<pdfrwt beam="2">  1       -2 0.20393114E+00 0.94255373E+03</pdfrwt>
<totfact> 0.43933228E+00</totfact>
</mgrwt>
</event>
<event>
 4    1  0.7595604E-007  0.8668769E+03  0.7818608E-02  0.9581446E-01
          2   -1    0    0  501    0  0.00000000000E+00  0.00000000000E+00  0.13336588682E+04  0.13336588682E+04  0.25500000000E-02 0. -1.
         -2   -1    0    0    0  501 -0.00000000000E+00 -0.00000000000E+00 -0.74136811619E+03  0.74136811620E+03  0.25500000000E-02 0.  1.
    8880023    1    1    2    0    0  0.52764395106E+03 -0.19813418721E+03 -0.37547956034E+03  0.94470122353E+03  0.65864270000E+03 0.  0.
    8880022    1    1    2    0    0 -0.52764395106E+03  0.19813418721E+03  0.96777031237E+03  0.11303257609E+04  0.15294330000E+03 0.  0.
<mgrwt>
<rscale>  0 0.78536478E+03</rscale>
<asrwt>0</asrwt>
<pdfrwt beam="1">  1        2 0.20517829E+00 0.86687687E+03</pdfrwt>
<pdfrwt beam="2">  1       -2 0.11405663E+00 0.86687687E+03</pdfrwt>
<totfact> 0.95778523E+00</totfact>
</mgrwt>
</event>
<event>
 4    1  0.7595604E-007  0.8473154E+03  0.7818608E-02  0.9616538E-01
         -2   -1    0    0    0  501 -0.00000000000E+00  0.00000000000E+00  0.34212999988E+03  0.34212999989E+03  0.25500000000E-02 0.  1.
          2   -1    0    0  501    0  0.00000000000E+00 -0.00000000000E+00 -0.17529310965E+04  0.17529310965E+04  0.25500000000E-02 0. -1.
    8880023    1    1    2    0    0  0.52905683599E+03  0.65053583262E+02 -0.38871125422E+03  0.93222301507E+03  0.65864270000E+03 0.  1.
    8880022    1    1    2    0    0 -0.52905683599E+03 -0.65053583262E+02 -0.10220898424E+04  0.11628380813E+04  0.15294330000E+03 0.  0.
<mgrwt>
<rscale>  0 0.76211203E+03</rscale>
<asrwt>0</asrwt>
<pdfrwt beam="1">  1        2 0.26968170E+00 0.84731535E+03</pdfrwt>
<pdfrwt beam="2">  1       -2 0.52635386E-01 0.84731535E+03</pdfrwt>
<totfact> 0.31712803E+01</totfact>
</mgrwt>
</event>
<event>
 4    1  0.7595604E-007  0.7416811E+03  0.7818608E-02  0.9855077E-01
          2   -1    0    0  501    0  0.00000000000E+00  0.00000000000E+00  0.59499798078E+03  0.59499798079E+03  0.25500000000E-02 0. -1.
         -2   -1    0    0    0  501 -0.00000000000E+00 -0.00000000000E+00 -0.66632173591E+03  0.66632173592E+03  0.25500000000E-02 0.  1.
    8880023    1    1    2    0    0  0.87994786693E+02  0.32945038345E+03 -0.32486165784E+03  0.80970731789E+03  0.65864270000E+03 0.  0.
    8880022    1    1    2    0    0 -0.87994786693E+02 -0.32945038345E+03  0.25353790271E+03  0.45161239882E+03  0.15294330000E+03 0.  0.
<mgrwt>
<rscale>  0 0.62488729E+03</rscale>
<asrwt>0</asrwt>
<pdfrwt beam="1">  1        2 0.91538151E-01 0.74168109E+03</pdfrwt>
<pdfrwt beam="2">  1       -2 0.10251104E+00 0.74168109E+03</pdfrwt>
<totfact> 0.39520160E+01</totfact>
</mgrwt>
</event>
<event>
 4    1  0.7595604E-007  0.6755757E+03  0.7818608E-02  0.1011946E+00
         -2   -1    0    0    0  501 -0.00000000000E+00  0.00000000000E+00  0.28275970589E+03  0.28275970590E+03  0.25500000000E-02 0.  1.
          2   -1    0    0  501    0  0.00000000000E+00 -0.00000000000E+00 -0.70687730860E+03  0.70687730861E+03  0.25500000000E-02 0. -1.
    8880023    1    1    2    0    0  0.37758963553E+02  0.14548760615E+03 -0.28018770551E+03  0.73137387119E+03  0.65864270000E+03 0.  0.
    8880022    1    1    2    0    0 -0.37758963553E+02 -0.14548760615E+03 -0.14392989720E+03  0.25826314332E+03  0.15294330000E+03 0. -1.
<mgrwt>
<rscale>  0 0.50708577E+03</rscale>
<asrwt>0</asrwt>
<pdfrwt beam="1">  1        2 0.10875035E+00 0.67557575E+03</pdfrwt>
<pdfrwt beam="2">  1       -2 0.43501493E-01 0.67557575E+03</pdfrwt>
<totfact> 0.20543420E+02</totfact>
</mgrwt>
</event>
<event>
 4    1  0.7595604E-007  0.8030641E+03  0.7818608E-02  0.9704210E-01
          2   -1    0    0  501    0  0.00000000000E+00  0.00000000000E+00  0.24286441907E+04  0.24286441907E+04  0.25500000000E-02 0. -1.
         -2   -1    0    0    0  501 -0.00000000000E+00 -0.00000000000E+00 -0.22573103822E+03  0.22573103823E+03  0.25500000000E-02 0.  1.
    8880023    1    1    2    0    0 -0.27929202829E+03 -0.36482556487E+03  0.66700578899E+03  0.10439390110E+04  0.65864270000E+03 0.  1.
    8880022    1    1    2    0    0  0.27929202829E+03  0.36482556487E+03  0.15359073635E+04  0.16104362179E+04  0.15294330000E+03 0.  0.
<mgrwt>
<rscale>  0 0.70766706E+03</rscale>
<asrwt>0</asrwt>
<pdfrwt beam="1">  1        2 0.37363755E+00 0.80306409E+03</pdfrwt>
<pdfrwt beam="2">  1       -2 0.34727854E-01 0.80306409E+03</pdfrwt>
<totfact> 0.30777758E+01</totfact>
</mgrwt>
</event>
<event>
 4    1  0.7595604E-007  0.6663269E+03  0.7818608E-02  0.1018445E+00
         -2   -1    0    0    0  501 -0.00000000000E+00  0.00000000000E+00  0.94741779519E+03  0.94741779519E+03  0.25500000000E-02 0.  1.
          2   -1    0    0  501    0  0.00000000000E+00 -0.00000000000E+00 -0.45916601115E+03  0.45916601116E+03  0.25500000000E-02 0. -1.
    8880023    1    1    2    0    0  0.94256172698E+02 -0.36014726039E+02  0.80234547293E+03  0.10429524202E+04  0.65864270000E+03 0.  1.
    8880022    1    1    2    0    0 -0.94256172698E+02  0.36014726039E+02 -0.31409368890E+03  0.36363138616E+03  0.15294330000E+03 0.  0.
<mgrwt>
<rscale>  0 0.48251872E+03</rscale>
<asrwt>0</asrwt>
<pdfrwt beam="1">  1        2 0.70640925E-01 0.66632687E+03</pdfrwt>
<pdfrwt beam="2">  1       -2 0.14575658E+00 0.66632687E+03</pdfrwt>
<totfact> 0.22416813E+01</totfact>
</mgrwt>
</event>
<event>
 4    1  0.7595604E-007  0.7784772E+03  0.7818608E-02  0.9759426E-01
          2   -1    0    0  501    0  0.00000000000E+00  0.00000000000E+00  0.28467416690E+03  0.28467416691E+03  0.25500000000E-02 0. -1.
         -2   -1    0    0    0  501 -0.00000000000E+00 -0.00000000000E+00 -0.24481650032E+04  0.24481650032E+04  0.25500000000E-02 0.  1.
    8880023    1    1    2    0    0 -0.16214399081E+03  0.38200252583E+03 -0.21541114779E+04  0.22904635053E+04  0.65864270000E+03 0.  0.
    8880022    1    1    2    0    0  0.16214399081E+03 -0.38200252583E+03 -0.93793584457E+01  0.44237566488E+03  0.15294330000E+03 0.  0.
<mgrwt>
<rscale>  0 0.67586170E+03</rscale>
<asrwt>0</asrwt>
<pdfrwt beam="1">  1        2 0.43796027E-01 0.77847724E+03</pdfrwt>
<pdfrwt beam="2">  1       -2 0.37664075E+00 0.77847724E+03</pdfrwt>
<totfact> 0.12897272E+00</totfact>
</mgrwt>
</event>
<event>
 4    1  0.7595604E-007  0.6692587E+03  0.7818608E-02  0.1016200E+00
          2   -1    0    0  501    0  0.00000000000E+00  0.00000000000E+00  0.22319357180E+04  0.22319357180E+04  0.25500000000E-02 0. -1.
         -2   -1    0    0    0  501 -0.00000000000E+00 -0.00000000000E+00 -0.45658553702E+03  0.45658553702E+03  0.25500000000E-02 0.  1.
    8880023    1    1    2    0    0 -0.11872648405E+03 -0.10335635929E+01 -0.20404995580E+03  0.69967395049E+03  0.65864270000E+03 0.  1.
    8880022    1    1    2    0    0  0.11872648405E+03  0.10335635929E+01  0.19794001367E+04  0.19888473045E+04  0.15294330000E+03 0.  0.
<mgrwt>
<rscale>  0 0.49083224E+03</rscale>
<asrwt>0</asrwt>
<pdfrwt beam="1">  1        2 0.34337471E+00 0.66925873E+03</pdfrwt>
<pdfrwt beam="2">  1       -2 0.70243931E-01 0.66925873E+03</pdfrwt>
<totfact> 0.96486189E+00</totfact>
</mgrwt>
</event>
<event>
 4    1  0.7595604E-007  0.6620074E+03  0.7818608E-02  0.1022188E+00
         -2   -1    0    0    0  501 -0.00000000000E+00  0.00000000000E+00  0.26896491654E+03  0.26896491655E+03  0.25500000000E-02 0.  1.
          2   -1    0    0  501    0  0.00000000000E+00 -0.00000000000E+00 -0.19784453663E+04  0.19784453663E+04  0.25500000000E-02 0. -1.
    8880023    1    1    2    0    0 -0.44531263963E+02 -0.49603666142E+02 -0.14968682931E+03  0.67871931628E+03  0.65864270000E+03 0.  1.
    8880022    1    1    2    0    0  0.44531263963E+02  0.49603666142E+02 -0.15597936205E+04  0.15686909666E+04  0.15294330000E+03 0.  0.
<mgrwt>
<rscale>  0 0.46905248E+03</rscale>
<asrwt>0</asrwt>
<pdfrwt beam="1">  1        2 0.30437620E+00 0.66200737E+03</pdfrwt>
<pdfrwt beam="2">  1       -2 0.41379219E-01 0.66200737E+03</pdfrwt>
<totfact> 0.39632951E+01</totfact>
</mgrwt>
</event>
<event>
 4    1  0.7595604E-007  0.7827759E+03  0.7818608E-02  0.9749356E-01
          2   -1    0    0  501    0  0.00000000000E+00  0.00000000000E+00  0.82274196949E+03  0.82274196949E+03  0.25500000000E-02 0. -1.
         -2   -1    0    0    0  501 -0.00000000000E+00 -0.00000000000E+00 -0.71527153537E+03  0.71527153537E+03  0.25500000000E-02 0.  1.
    8880023    1    1    2    0    0  0.22417220072E+03  0.35871251939E+03 -0.38390850857E+03  0.87185078790E+03  0.65864270000E+03 0.  1.
    8880022    1    1    2    0    0 -0.22417220072E+03 -0.35871251939E+03  0.49137894269E+03  0.66616271697E+03  0.15294330000E+03 0.  0.
<mgrwt>
<rscale>  0 0.68152656E+03</rscale>
<asrwt>0</asrwt>
<pdfrwt beam="1">  1        2 0.12657569E+00 0.78277586E+03</pdfrwt>
<pdfrwt beam="2">  1       -2 0.11004177E+00 0.78277586E+03</pdfrwt>
<totfact> 0.22028325E+01</totfact>
</mgrwt>
</event>
<event>
 4    1  0.7595604E-007  0.7509204E+03  0.7818608E-02  0.9829207E-01
         -2   -1    0    0    0  501 -0.00000000000E+00  0.00000000000E+00  0.47087562184E+03  0.47087562184E+03  0.25500000000E-02 0.  1.
          2   -1    0    0  501    0  0.00000000000E+00 -0.00000000000E+00 -0.81088207079E+03  0.81088207080E+03  0.25500000000E-02 0. -1.
    8880023    1    1    2    0    0  0.16558638006E+03  0.32039416595E+03  0.17902475889E+02  0.75113379350E+03  0.65864270000E+03 0.  1.
    8880022    1    1    2    0    0 -0.16558638006E+03 -0.32039416595E+03 -0.35790892485E+03  0.53062389914E+03  0.15294330000E+03 0. -1.
<mgrwt>
<rscale>  0 0.63818394E+03</rscale>
<asrwt>0</asrwt>
<pdfrwt beam="1">  1        2 0.12475109E+00 0.75092042E+03</pdfrwt>
<pdfrwt beam="2">  1       -2 0.72442403E-01 0.75092042E+03</pdfrwt>
<totfact> 0.59111199E+01</totfact>
</mgrwt>
</event>
<event>
 4    1  0.7595604E-007  0.7660534E+03  0.7818608E-02  0.9789681E-01
         -2   -1    0    0    0  501 -0.00000000000E+00  0.00000000000E+00  0.63688524320E+03  0.63688524320E+03  0.25500000000E-02 0.  1.
          2   -1    0    0  501    0  0.00000000000E+00 -0.00000000000E+00 -0.11983507130E+04  0.11983507130E+04  0.25500000000E-02 0. -1.
    8880023    1    1    2    0    0  0.25028429238E+03 -0.30064161954E+03  0.34198415260E+03  0.83892250972E+03  0.65864270000E+03 0.  1.
    8880022    1    1    2    0    0 -0.25028429238E+03  0.30064161954E+03 -0.90344962240E+03  0.99631344648E+03  0.15294330000E+03 0.  0.
<mgrwt>
<rscale>  0 0.65919292E+03</rscale>
<asrwt>0</asrwt>
<pdfrwt beam="1">  1        2 0.18436165E+00 0.76605340E+03</pdfrwt>
<pdfrwt beam="2">  1       -2 0.97982345E-01 0.76605340E+03</pdfrwt>
<totfact> 0.16740718E+01</totfact>
</mgrwt>
</event>
<event>
 4    1  0.7595604E-007  0.1080815E+04  0.7818608E-02  0.9282723E-01
          2   -1    0    0  501    0  0.00000000000E+00  0.00000000000E+00  0.11759784900E+04  0.11759784900E+04  0.25500000000E-02 0. -1.
         -2   -1    0    0    0  501 -0.00000000000E+00 -0.00000000000E+00 -0.11155345822E+04  0.11155345822E+04  0.25500000000E-02 0.  1.
    8880023    1    1    2    0    0  0.53310391863E+03  0.67093237764E+03 -0.56504904090E+03  0.12196067679E+04  0.65864270000E+03 0.  0.
    8880022    1    1    2    0    0 -0.53310391863E+03 -0.67093237764E+03  0.62549294866E+03  0.10719063043E+04  0.15294330000E+03 0.  0.
<mgrwt>
<rscale>  0 0.10238906E+04</rscale>
<asrwt>0</asrwt>
<pdfrwt beam="1">  1        2 0.18091977E+00 0.10808146E+04</pdfrwt>
<pdfrwt beam="2">  1       -2 0.17162071E+00 0.10808146E+04</pdfrwt>
<totfact> 0.39946693E+00</totfact>
</mgrwt>
</event>
<event>
 4    1  0.7595604E-007  0.7123897E+03  0.7818608E-02  0.9949232E-01
          2   -1    0    0  501    0  0.00000000000E+00  0.00000000000E+00  0.20739420488E+04  0.20739420488E+04  0.25500000000E-02 0. -1.
         -2   -1    0    0    0  501 -0.00000000000E+00 -0.00000000000E+00 -0.20163078020E+03  0.20163078022E+03  0.25500000000E-02 0.  1.
    8880023    1    1    2    0    0 -0.22503632692E+03  0.15181421950E+03  0.50504025109E+03  0.87324954461E+03  0.65864270000E+03 0.  1.
    8880022    1    1    2    0    0  0.22503632692E+03 -0.15181421950E+03  0.13672710175E+04  0.14023232844E+04  0.15294330000E+03 0.  0.
<mgrwt>
<rscale>  0 0.57933500E+03</rscale>
<asrwt>0</asrwt>
<pdfrwt beam="1">  1        2 0.31906802E+00 0.71238972E+03</pdfrwt>
<pdfrwt beam="2">  1       -2 0.31020119E-01 0.71238972E+03</pdfrwt>
<totfact> 0.60556369E+01</totfact>
</mgrwt>
</event>
<event>
 4    1  0.7595604E-007  0.1050153E+04  0.7818608E-02  0.9318697E-01
         -2   -1    0    0    0  501 -0.00000000000E+00  0.00000000000E+00  0.51907515440E+03  0.51907515441E+03  0.25500000000E-02 0.  1.
          2   -1    0    0  501    0  0.00000000000E+00 -0.00000000000E+00 -0.18568152602E+04  0.18568152602E+04  0.25500000000E-02 0. -1.
    8880023    1    1    2    0    0 -0.80094906158E+03  0.16580831637E+03 -0.40400655514E+03  0.11251858957E+04  0.65864270000E+03 0.  0.
    8880022    1    1    2    0    0  0.80094906158E+03 -0.16580831637E+03 -0.93373355069E+03  0.12507045190E+04  0.15294330000E+03 0.  0.
<mgrwt>
<rscale>  0 0.99079644E+03</rscale>
<asrwt>0</asrwt>
<pdfrwt beam="1">  1        2 0.28566388E+00 0.10501533E+04</pdfrwt>
<pdfrwt beam="2">  1       -2 0.79857717E-01 0.10501533E+04</pdfrwt>
<totfact> 0.11082479E+01</totfact>
</mgrwt>
</event>
<event>
 4    1  0.7595604E-007  0.7025553E+03  0.7818608E-02  0.9986762E-01
          2   -1    0    0  501    0  0.00000000000E+00  0.00000000000E+00  0.26811958088E+04  0.26811958088E+04  0.25500000000E-02 0. -1.
         -2   -1    0    0    0  501 -0.00000000000E+00 -0.00000000000E+00 -0.12653148870E+03  0.12653148873E+03  0.25500000000E-02 0.  1.
    8880023    1    1    2    0    0  0.22603002676E+03 -0.93188525976E+02  0.97382637621E+03  0.12008004379E+04  0.65864270000E+03 0.  1.
    8880022    1    1    2    0    0 -0.22603002676E+03  0.93188525976E+02  0.15808379439E+04  0.16069268596E+04  0.15294330000E+03 0.  0.
<mgrwt>
<rscale>  0 0.56234540E+03</rscale>
<asrwt>0</asrwt>
<pdfrwt beam="1">  1        2 0.41249161E+00 0.70255525E+03</pdfrwt>
<pdfrwt beam="2">  1       -2 0.19466385E-01 0.70255525E+03</pdfrwt>
<totfact> 0.64112593E+01</totfact>
</mgrwt>
</event>
<event>
 4    1  0.7595604E-007  0.1406837E+04  0.7818608E-02  0.8978388E-01
         -2   -1    0    0    0  501 -0.00000000000E+00  0.00000000000E+00  0.11846282820E+04  0.11846282820E+04  0.25500000000E-02 0.  1.
          2   -1    0    0  501    0  0.00000000000E+00 -0.00000000000E+00 -0.16672054862E+04  0.16672054862E+04  0.25500000000E-02 0. -1.
    8880023    1    1    2    0    0  0.10507308151E+04  0.66433889291E+03 -0.71474705566E+03  0.15779908017E+04  0.65864270000E+03 0.  0.
    8880022    1    1    2    0    0 -0.10507308151E+04 -0.66433889291E+03  0.23216985142E+03  0.12738429665E+04  0.15294330000E+03 0.  0.
<mgrwt>
<rscale>  0 0.13665576E+04</rscale>
<asrwt>0</asrwt>
<pdfrwt beam="1">  1        2 0.25649315E+00 0.14068375E+04</pdfrwt>
<pdfrwt beam="2">  1       -2 0.18225051E+00 0.14068375E+04</pdfrwt>
<totfact> 0.17007447E+00</totfact>
</mgrwt>
</event>
<event>
 4    1  0.7595604E-007  0.8822310E+03  0.7818608E-02  0.9555181E-01
         -2   -1    0    0    0  501 -0.00000000000E+00  0.00000000000E+00  0.10812280330E+04  0.10812280330E+04  0.25500000000E-02 0.  1.
          2   -1    0    0  501    0  0.00000000000E+00 -0.00000000000E+00 -0.86868002575E+03  0.86868002575E+03  0.25500000000E-02 0. -1.
    8880023    1    1    2    0    0 -0.33880794675E+03 -0.47930213867E+03  0.73583579496E+03  0.11488193454E+04  0.65864270000E+03 0.  0.
    8880022    1    1    2    0    0  0.33880794675E+03  0.47930213867E+03 -0.52328778771E+03  0.80108871337E+03  0.15294330000E+03 0.  0.
<mgrwt>
<rscale>  0 0.80335016E+03</rscale>
<asrwt>0</asrwt>
<pdfrwt beam="1">  1        2 0.13364308E+00 0.88223102E+03</pdfrwt>
<pdfrwt beam="2">  1       -2 0.16634277E+00 0.88223102E+03</pdfrwt>
<totfact> 0.69952096E+00</totfact>
</mgrwt>
</event>
<event>
 4    1  0.7595604E-007  0.8942627E+03  0.7818608E-02  0.9535305E-01
          2   -1    0    0  501    0  0.00000000000E+00  0.00000000000E+00  0.12736432594E+04  0.12736432594E+04  0.25500000000E-02 0. -1.
         -2   -1    0    0    0  501 -0.00000000000E+00 -0.00000000000E+00 -0.10635569619E+04  0.10635569619E+04  0.25500000000E-02 0.  1.
    8880023    1    1    2    0    0 -0.17160626960E+03 -0.58004031896E+03 -0.76684253940E+03  0.11780293587E+04  0.65864270000E+03 0.  0.
    8880022    1    1    2    0    0  0.17160626960E+03  0.58004031896E+03  0.97692883691E+03  0.11591708626E+04  0.15294330000E+03 0.  0.
<mgrwt>
<rscale>  0 0.81730203E+03</rscale>
<asrwt>0</asrwt>
<pdfrwt beam="1">  1        2 0.19594512E+00 0.89426265E+03</pdfrwt>
<pdfrwt beam="2">  1       -2 0.16362415E+00 0.89426265E+03</pdfrwt>
<totfact> 0.40735211E+00</totfact>
</mgrwt>
</event>
<event>
 4    1  0.7595604E-007  0.8360141E+03  0.7818608E-02  0.9637742E-01
          2   -1    0    0  501    0  0.00000000000E+00  0.00000000000E+00  0.15022408536E+04  0.15022408536E+04  0.25500000000E-02 0. -1.
         -2   -1    0    0    0  501 -0.00000000000E+00 -0.00000000000E+00 -0.11859743220E+04  0.11859743220E+04  0.25500000000E-02 0.  1.
    8880023    1    1    2    0    0 -0.51185417031E+03 -0.55808672896E+02 -0.97817557751E+03  0.12867583170E+04  0.65864270000E+03 0.  1.
    8880022    1    1    2    0    0  0.51185417031E+03  0.55808672896E+02  0.12944421092E+04  0.14014568586E+04  0.15294330000E+03 0.  0.
<mgrwt>
<rscale>  0 0.74847723E+03</rscale>
<asrwt>0</asrwt>
<pdfrwt beam="1">  1        2 0.23111398E+00 0.83601406E+03</pdfrwt>
<pdfrwt beam="2">  1       -2 0.18245759E+00 0.83601406E+03</pdfrwt>
<totfact> 0.22419307E+00</totfact>
</mgrwt>
</event>
<event>
 4    1  0.7595604E-007  0.1009262E+04  0.7818608E-02  0.9369540E-01
         -2   -1    0    0    0  501 -0.00000000000E+00  0.00000000000E+00  0.12957846089E+04  0.12957846089E+04  0.25500000000E-02 0.  1.
          2   -1    0    0  501    0  0.00000000000E+00 -0.00000000000E+00 -0.12897089361E+04  0.12897089361E+04  0.25500000000E-02 0. -1.
    8880023    1    1    2    0    0 -0.32336282872E+03 -0.69299013658E+03  0.93278851076E+03  0.13743010807E+04  0.65864270000E+03 0.  1.
    8880022    1    1    2    0    0  0.32336282872E+03  0.69299013658E+03 -0.92671283796E+03  0.12111924642E+04  0.15294330000E+03 0.  0.
<mgrwt>
<rscale>  0 0.94625411E+03</rscale>
<asrwt>0</asrwt>
<pdfrwt beam="1">  1        2 0.19841676E+00 0.10092616E+04</pdfrwt>
<pdfrwt beam="2">  1       -2 0.19935148E+00 0.10092616E+04</pdfrwt>
<totfact> 0.22319087E+00</totfact>
</mgrwt>
</event>
<event>
 4    1  0.7595604E-007  0.8558468E+03  0.7818608E-02  0.9600994E-01
         -2   -1    0    0    0  501 -0.00000000000E+00  0.00000000000E+00  0.46939724533E+03  0.46939724533E+03  0.25500000000E-02 0.  1.
          2   -1    0    0  501    0  0.00000000000E+00 -0.00000000000E+00 -0.11356288345E+04  0.11356288345E+04  0.25500000000E-02 0. -1.
    8880023    1    1    2    0    0 -0.41409603062E+03 -0.35663421198E+03 -0.22155285870E+03  0.88405845915E+03  0.65864270000E+03 0. -1.
    8880022    1    1    2    0    0  0.41409603062E+03  0.35663421198E+03 -0.44467873049E+03  0.72096762070E+03  0.15294330000E+03 0.  1.
<mgrwt>
<rscale>  0 0.77230401E+03</rscale>
<asrwt>0</asrwt>
<pdfrwt beam="1">  1        2 0.17471213E+00 0.85584677E+03</pdfrwt>
<pdfrwt beam="2">  1       -2 0.72214961E-01 0.85584677E+03</pdfrwt>
<totfact> 0.36242550E+01</totfact>
</mgrwt>
</event>
<event>
 4    1  0.7595604E-007  0.1255710E+04  0.7818608E-02  0.9104783E-01
          2   -1    0    0  501    0  0.00000000000E+00  0.00000000000E+00  0.33617681468E+04  0.33617681468E+04  0.25500000000E-02 0. -1.
         -2   -1    0    0    0  501 -0.00000000000E+00 -0.00000000000E+00 -0.55412260041E+03  0.55412260041E+03  0.25500000000E-02 0.  1.
    8880023    1    1    2    0    0  0.10495070640E+04 -0.20379728210E+03  0.24923548451E+04  0.27908137325E+04  0.65864270000E+03 0. -1.
    8880022    1    1    2    0    0 -0.10495070640E+04  0.20379728210E+03  0.31529070133E+03  0.11250770147E+04  0.15294330000E+03 0.  0.
<mgrwt>
<rscale>  0 0.12092681E+04</rscale>
<asrwt>0</asrwt>
<pdfrwt beam="1">  1        2 0.51719509E+00 0.12557104E+04</pdfrwt>
<pdfrwt beam="2">  1       -2 0.85249632E-01 0.12557104E+04</pdfrwt>
<totfact> 0.12018899E+00</totfact>
</mgrwt>
</event>
<event>
 4    1  0.7595604E-007  0.9704486E+03  0.7818608E-02  0.9421284E-01
         -2   -1    0    0    0  501 -0.00000000000E+00  0.00000000000E+00  0.67007761309E+03  0.67007761310E+03  0.25500000000E-02 0.  1.
          2   -1    0    0  501    0  0.00000000000E+00 -0.00000000000E+00 -0.22867799131E+04  0.22867799131E+04  0.25500000000E-02 0. -1.
    8880023    1    1    2    0    0  0.26964742258E+03  0.65973516084E+03  0.20751991376E+03  0.99238850045E+03  0.65864270000E+03 0.  1.
    8880022    1    1    2    0    0 -0.26964742258E+03 -0.65973516084E+03 -0.18242222138E+04  0.19644690258E+04  0.15294330000E+03 0.  0.
<mgrwt>
<rscale>  0 0.90344594E+03</rscale>
<asrwt>0</asrwt>
<pdfrwt beam="1">  1        2 0.35181229E+00 0.97044857E+03</pdfrwt>
<pdfrwt beam="2">  1       -2 0.10308886E+00 0.97044857E+03</pdfrwt>
<totfact> 0.35737365E+00</totfact>
</mgrwt>
</event>
<event>
 4    1  0.7595604E-007  0.6643802E+03  0.7818608E-02  0.1020059E+00
         -2   -1    0    0    0  501 -0.00000000000E+00  0.00000000000E+00  0.23563419804E+03  0.23563419805E+03  0.25500000000E-02 0.  1.
          2   -1    0    0  501    0  0.00000000000E+00 -0.00000000000E+00 -0.13317426111E+04  0.13317426111E+04  0.25500000000E-02 0. -1.
    8880023    1    1    2    0    0  0.18606398840E+02  0.85115432677E+02 -0.26081751308E+03  0.71374142121E+03  0.65864270000E+03 0.  1.
    8880022    1    1    2    0    0 -0.18606398840E+02 -0.85115432677E+02 -0.83529090000E+03  0.85363538797E+03  0.15294330000E+03 0.  0.
<mgrwt>
<rscale>  0 0.47665268E+03</rscale>
<asrwt>0</asrwt>
<pdfrwt beam="1">  1        2 0.20488347E+00 0.66438019E+03</pdfrwt>
<pdfrwt beam="2">  1       -2 0.36251416E-01 0.66438019E+03</pdfrwt>
<totfact> 0.11607584E+02</totfact>
</mgrwt>
</event>
<event>
 4    1  0.7595604E-007  0.6724570E+03  0.7818608E-02  0.1013959E+00
         -2   -1    0    0    0  501 -0.00000000000E+00  0.00000000000E+00  0.36949068614E+03  0.36949068615E+03  0.25500000000E-02 0.  1.
          2   -1    0    0  501    0  0.00000000000E+00 -0.00000000000E+00 -0.21303289459E+04  0.21303289459E+04  0.25500000000E-02 0. -1.
    8880023    1    1    2    0    0  0.10453272094E+03  0.86378028387E+02  0.52961119245E+02  0.67453935389E+03  0.65864270000E+03 0.  1.
    8880022    1    1    2    0    0 -0.10453272094E+03 -0.86378028387E+02 -0.18137993790E+04  0.18252802782E+04  0.15294330000E+03 0.  0.
<mgrwt>
<rscale>  0 0.49930893E+03</rscale>
<asrwt>0</asrwt>
<pdfrwt beam="1">  1        2 0.32774291E+00 0.67245703E+03</pdfrwt>
<pdfrwt beam="2">  1       -2 0.56844722E-01 0.67245703E+03</pdfrwt>
<totfact> 0.17216765E+01</totfact>
</mgrwt>
</event>
<event>
 4    1  0.7595604E-007  0.8229255E+03  0.7818608E-02  0.9663257E-01
         -2   -1    0    0    0  501 -0.00000000000E+00  0.00000000000E+00  0.90851548698E+03  0.90851548698E+03  0.25500000000E-02 0.  1.
          2   -1    0    0  501    0  0.00000000000E+00 -0.00000000000E+00 -0.51322003303E+03  0.51322003303E+03  0.25500000000E-02 0. -1.
    8880023    1    1    2    0    0  0.14595938821E+03 -0.47126640323E+03  0.37627662647E+03  0.90487041708E+03  0.65864270000E+03 0.  1.
    8880022    1    1    2    0    0 -0.14595938821E+03  0.47126640323E+03  0.19018827476E+02  0.51686510293E+03  0.15294330000E+03 0.  0.
<mgrwt>
<rscale>  0 0.73247219E+03</rscale>
<asrwt>0</asrwt>
<pdfrwt beam="1">  1        2 0.78956929E-01 0.82292550E+03</pdfrwt>
<pdfrwt beam="2">  1       -2 0.13977161E+00 0.82292550E+03</pdfrwt>
<totfact> 0.21697804E+01</totfact>
</mgrwt>
</event>
<event>
 4    1  0.7595604E-007  0.9861906E+03  0.7818608E-02  0.9399852E-01
          2   -1    0    0  501    0  0.00000000000E+00  0.00000000000E+00  0.16766772880E+04  0.16766772880E+04  0.25500000000E-02 0. -1.
         -2   -1    0    0    0  501 -0.00000000000E+00 -0.00000000000E+00 -0.68988336386E+03  0.68988336387E+03  0.25500000000E-02 0.  1.
    8880023    1    1    2    0    0  0.30990831156E+03  0.66537104343E+03 -0.15732087644E+03  0.99866002795E+03  0.65864270000E+03 0.  1.
    8880022    1    1    2    0    0 -0.30990831156E+03 -0.66537104343E+03  0.11441148006E+04  0.13679006239E+04  0.15294330000E+03 0.  0.
<mgrwt>
<rscale>  0 0.92087889E+03</rscale>
<asrwt>0</asrwt>
<pdfrwt beam="1">  1        2 0.25795035E+00 0.98619065E+03</pdfrwt>
<pdfrwt beam="2">  1       -2 0.10613590E+00 0.98619065E+03</pdfrwt>
<totfact> 0.72230916E+00</totfact>
</mgrwt>
</event>
<event>
 4    1  0.7595604E-007  0.7426125E+03  0.7818608E-02  0.9852402E-01
          2   -1    0    0  501    0  0.00000000000E+00  0.00000000000E+00  0.73144946266E+03  0.73144946266E+03  0.25500000000E-02 0. -1.
         -2   -1    0    0    0  501 -0.00000000000E+00 -0.00000000000E+00 -0.11266204022E+04  0.11266204022E+04  0.25500000000E-02 0.  1.
    8880023    1    1    2    0    0 -0.30633530319E+03  0.15434289053E+03 -0.93899806847E+03  0.11971593982E+04  0.65864270000E+03 0.  1.
    8880022    1    1    2    0    0  0.30633530319E+03 -0.15434289053E+03  0.54382712890E+03  0.66091046669E+03  0.15294330000E+03 0.  0.
<mgrwt>
<rscale>  0 0.62624622E+03</rscale>
<asrwt>0</asrwt>
<pdfrwt beam="1">  1        2 0.11253069E+00 0.74261245E+03</pdfrwt>
<pdfrwt beam="2">  1       -2 0.17332622E+00 0.74261245E+03</pdfrwt>
<totfact> 0.79649829E+00</totfact>
</mgrwt>
</event>
<event>
 4    1  0.7595604E-007  0.6658487E+03  0.7818608E-02  0.1018832E+00
          2   -1    0    0  501    0  0.00000000000E+00  0.00000000000E+00  0.36040238129E+03  0.36040238130E+03  0.25500000000E-02 0. -1.
         -2   -1    0    0    0  501 -0.00000000000E+00 -0.00000000000E+00 -0.50487252757E+03  0.50487252758E+03  0.25500000000E-02 0.  1.
    8880023    1    1    2    0    0 -0.38261560672E+02  0.89890600253E+02 -0.71517825009E+02  0.66967848450E+03  0.65864270000E+03 0. -1.
    8880022    1    1    2    0    0  0.38261560672E+02 -0.89890600253E+02 -0.72952321270E+02  0.19559642439E+03  0.15294330000E+03 0.  1.
<mgrwt>
<rscale>  0 0.48110557E+03</rscale>
<asrwt>0</asrwt>
<pdfrwt beam="1">  1        2 0.55446520E-01 0.66584869E+03</pdfrwt>
<pdfrwt beam="2">  1       -2 0.77672697E-01 0.66584869E+03</pdfrwt>
<totfact> 0.13387562E+02</totfact>
</mgrwt>
</event>
<event>
 4    1  0.1119208E-006  0.9373572E+03  0.7818608E-02  0.9468543E-01
          2   -1    0    0  501    0  0.00000000000E+00  0.00000000000E+00  0.22063598116E+04  0.22063598116E+04  0.25500000000E-02 0. -1.
         -2   -1    0    0    0  501 -0.00000000000E+00 -0.00000000000E+00 -0.21463551845E+04  0.21463551845E+04  0.25500000000E-02 0.  1.
    8880023    1    1    2    0    0  0.45370767885E+02 -0.66540948214E+03 -0.19855813197E+04  0.21957166641E+04  0.65864270000E+03 0.  1.
    8880022    1    1    2    0    0 -0.45370767885E+02  0.66540948214E+03  0.20455859469E+04  0.21569983321E+04  0.15294330000E+03 0.  0.
<mgrwt>
<rscale>  0 0.86643317E+03</rscale>
<asrwt>0</asrwt>
<pdfrwt beam="1">  1        2 0.33943997E+00 0.93735718E+03</pdfrwt>
<pdfrwt beam="2">  1       -2 0.33020849E+00 0.93735718E+03</pdfrwt>
<totfact> 0.10934942E-01</totfact>
</mgrwt>
</event>
<event>
 4    1  0.7595604E-007  0.1028698E+04  0.7818608E-02  0.9344939E-01
         -2   -1    0    0    0  501 -0.00000000000E+00  0.00000000000E+00  0.31291334705E+04  0.31291334705E+04  0.25500000000E-02 0.  1.
          2   -1    0    0  501    0  0.00000000000E+00 -0.00000000000E+00 -0.84695184299E+03  0.84695184300E+03  0.25500000000E-02 0. -1.
    8880023    1    1    2    0    0 -0.42945773716E+03 -0.66330647867E+03  0.28242112460E+04  0.30057260023E+04  0.65864270000E+03 0.  1.
    8880022    1    1    2    0    0  0.42945773716E+03  0.66330647867E+03 -0.54202961843E+03  0.97035931125E+03  0.15294330000E+03 0.  0.
<mgrwt>
<rscale>  0 0.96748923E+03</rscale>
<asrwt>0</asrwt>
<pdfrwt beam="1">  1        2 0.13030029E+00 0.10286980E+04</pdfrwt>
<pdfrwt beam="2">  1       -2 0.48140514E+00 0.10286980E+04</pdfrwt>
<totfact> 0.69613988E-02</totfact>
</mgrwt>
</event>
<event>
 4    1  0.7595604E-007  0.8478311E+03  0.7818608E-02  0.9615587E-01
          2   -1    0    0  501    0  0.00000000000E+00  0.00000000000E+00  0.28163548335E+04  0.28163548335E+04  0.25500000000E-02 0. -1.
         -2   -1    0    0    0  501 -0.00000000000E+00 -0.00000000000E+00 -0.86363166717E+03  0.86363166718E+03  0.25500000000E-02 0.  1.
    8880023    1    1    2    0    0 -0.51683670707E+03 -0.13374325869E+03 -0.61851189280E+03  0.10494639626E+04  0.65864270000E+03 0.  0.
    8880022    1    1    2    0    0  0.51683670707E+03  0.13374325869E+03  0.25712350592E+04  0.26305225381E+04  0.15294330000E+03 0.  0.
<mgrwt>
<rscale>  0 0.76273058E+03</rscale>
<asrwt>0</asrwt>
<pdfrwt beam="1">  1        2 0.43328536E+00 0.84783114E+03</pdfrwt>
<pdfrwt beam="2">  1       -2 0.13286641E+00 0.84783114E+03</pdfrwt>
<totfact> 0.96648881E-01</totfact>
</mgrwt>
</event>
<event>
 4    1  0.7595604E-007  0.8906249E+03  0.7818608E-02  0.9541252E-01
          2   -1    0    0  501    0  0.00000000000E+00  0.00000000000E+00  0.22066746216E+04  0.22066746216E+04  0.25500000000E-02 0. -1.
         -2   -1    0    0    0  501 -0.00000000000E+00 -0.00000000000E+00 -0.32531650127E+03  0.32531650128E+03  0.25500000000E-02 0.  1.
    8880023    1    1    2    0    0  0.25747601262E+03 -0.54139509843E+03  0.16431821466E+04  0.18690265709E+04  0.65864270000E+03 0.  1.
    8880022    1    1    2    0    0 -0.25747601262E+03  0.54139509843E+03  0.23817597373E+03  0.66296455196E+03  0.15294330000E+03 0.  0.
<mgrwt>
<rscale>  0 0.81309596E+03</rscale>
<asrwt>0</asrwt>
<pdfrwt beam="1">  1        2 0.33948839E+00 0.89062492E+03</pdfrwt>
<pdfrwt beam="2">  1       -2 0.50048694E-01 0.89062492E+03</pdfrwt>
<totfact> 0.19712975E+01</totfact>
</mgrwt>
</event>
<event>
 4    1  0.7595604E-007  0.8133014E+03  0.7818608E-02  0.9682741E-01
         -2   -1    0    0    0  501 -0.00000000000E+00  0.00000000000E+00  0.49016576159E+03  0.49016576160E+03  0.25500000000E-02 0.  1.
          2   -1    0    0  501    0  0.00000000000E+00 -0.00000000000E+00 -0.16358731167E+04  0.16358731167E+04  0.25500000000E-02 0. -1.
    8880023    1    1    2    0    0 -0.46226260087E+03 -0.11816191722E+03  0.64857354504E+02  0.81588334555E+03  0.65864270000E+03 0.  1.
    8880022    1    1    2    0    0  0.46226260087E+03  0.11816191722E+03 -0.12105647096E+04  0.13101555328E+04  0.15294330000E+03 0.  0.
<mgrwt>
<rscale>  0 0.72053758E+03</rscale>
<asrwt>0</asrwt>
<pdfrwt beam="1">  1        2 0.25167278E+00 0.81330139E+03</pdfrwt>
<pdfrwt beam="2">  1       -2 0.75410118E-01 0.81330139E+03</pdfrwt>
<totfact> 0.17112659E+01</totfact>
</mgrwt>
</event>
<event>
 4    1  0.7595604E-007  0.7699214E+03  0.7818608E-02  0.9780068E-01
         -2   -1    0    0    0  501 -0.00000000000E+00  0.00000000000E+00  0.11820226545E+04  0.11820226545E+04  0.25500000000E-02 0.  1.
          2   -1    0    0  501    0  0.00000000000E+00 -0.00000000000E+00 -0.10777189657E+04  0.10777189657E+04  0.25500000000E-02 0. -1.
    8880023    1    1    2    0    0 -0.35966170796E+03  0.17208184729E+03  0.10031854291E+04  0.12645789488E+04  0.65864270000E+03 0.  1.
    8880022    1    1    2    0    0  0.35966170796E+03 -0.17208184729E+03 -0.89888174036E+03  0.99516267138E+03  0.15294330000E+03 0.  0.
<mgrwt>
<rscale>  0 0.66443283E+03</rscale>
<asrwt>0</asrwt>
<pdfrwt beam="1">  1        2 0.16580292E+00 0.76992137E+03</pdfrwt>
<pdfrwt beam="2">  1       -2 0.18184964E+00 0.76992137E+03</pdfrwt>
<totfact> 0.40384179E+00</totfact>
</mgrwt>
</event>
<event>
 4    1  0.7595604E-007  0.6593634E+03  0.7818608E-02  0.1024818E+00
          2   -1    0    0  501    0  0.00000000000E+00  0.00000000000E+00  0.14811639104E+04  0.14811639104E+04  0.25500000000E-02 0. -1.
         -2   -1    0    0    0  501 -0.00000000000E+00 -0.00000000000E+00 -0.12316927557E+04  0.12316927557E+04  0.25500000000E-02 0.  1.
    8880023    1    1    2    0    0  0.24872701516E+02  0.18201657846E+02 -0.11387643298E+04  0.13158815892E+04  0.65864270000E+03 0.  1.
    8880022    1    1    2    0    0 -0.24872701516E+02 -0.18201657846E+02  0.13882354846E+04  0.13969750768E+04  0.15294330000E+03 0.  0.
<mgrwt>
<rscale>  0 0.45987235E+03</rscale>
<asrwt>0</asrwt>
<pdfrwt beam="1">  1        2 0.22787137E+00 0.65936345E+03</pdfrwt>
<pdfrwt beam="2">  1       -2 0.18949119E+00 0.65936345E+03</pdfrwt>
<totfact> 0.21296861E+00</totfact>
</mgrwt>
</event>
<event>
 4    1  0.7595604E-007  0.8804823E+03  0.7818608E-02  0.9558119E-01
         -2   -1    0    0    0  501 -0.00000000000E+00  0.00000000000E+00  0.97733429037E+03  0.97733429037E+03  0.25500000000E-02 0.  1.
          2   -1    0    0  501    0  0.00000000000E+00 -0.00000000000E+00 -0.15653548430E+04  0.15653548430E+04  0.25500000000E-02 0. -1.
    8880023    1    1    2    0    0  0.46113396424E+03  0.35887923806E+03  0.69688426859E+03  0.11228965805E+04  0.65864270000E+03 0.  0.
    8880022    1    1    2    0    0 -0.46113396424E+03 -0.35887923806E+03 -0.12849048212E+04  0.14197925528E+04  0.15294330000E+03 0.  0.
<mgrwt>
<rscale>  0 0.80131239E+03</rscale>
<asrwt>0</asrwt>
<pdfrwt beam="1">  1        2 0.24082382E+00 0.88048228E+03</pdfrwt>
<pdfrwt beam="2">  1       -2 0.15035912E+00 0.88048228E+03</pdfrwt>
<totfact> 0.35009594E+00</totfact>
</mgrwt>
</event>
<event>
 4    1  0.7595604E-007  0.7531046E+03  0.7818608E-02  0.9823297E-01
          2   -1    0    0  501    0  0.00000000000E+00  0.00000000000E+00  0.88488421021E+03  0.88488421021E+03  0.25500000000E-02 0. -1.
         -2   -1    0    0    0  501 -0.00000000000E+00 -0.00000000000E+00 -0.39416890973E+03  0.39416890974E+03  0.25500000000E-02 0.  1.
    8880023    1    1    2    0    0  0.18914073844E+03 -0.31238138496E+03  0.17626417304E+03  0.77345692418E+03  0.65864270000E+03 0.  1.
    8880022    1    1    2    0    0 -0.18914073844E+03  0.31238138496E+03  0.31445112744E+03  0.50559619576E+03  0.15294330000E+03 0. -1.
<mgrwt>
<rscale>  0 0.64127119E+03</rscale>
<asrwt>0</asrwt>
<pdfrwt beam="1">  1        2 0.13613603E+00 0.75310461E+03</pdfrwt>
<pdfrwt beam="2">  1       -2 0.60641371E-01 0.75310461E+03</pdfrwt>
<totfact> 0.77041562E+01</totfact>
</mgrwt>
</event>
<event>
 4    1  0.7595604E-007  0.1006839E+04  0.7818608E-02  0.9372664E-01
          2   -1    0    0  501    0  0.00000000000E+00  0.00000000000E+00  0.13755422075E+04  0.13755422075E+04  0.25500000000E-02 0. -1.
         -2   -1    0    0    0  501 -0.00000000000E+00 -0.00000000000E+00 -0.12775075305E+04  0.12775075305E+04  0.25500000000E-02 0.  1.
    8880023    1    1    2    0    0  0.64946514380E+03  0.39762993372E+03 -0.92589686872E+03  0.13678485863E+04  0.65864270000E+03 0.  1.
    8880022    1    1    2    0    0 -0.64946514380E+03 -0.39762993372E+03  0.10239315456E+04  0.12852011517E+04  0.15294330000E+03 0.  0.
<mgrwt>
<rscale>  0 0.94359850E+03</rscale>
<asrwt>0</asrwt>
<pdfrwt beam="1">  1        2 0.21162188E+00 0.10068390E+04</pdfrwt>
<pdfrwt beam="2">  1       -2 0.19653962E+00 0.10068390E+04</pdfrwt>
<totfact> 0.20780777E+00</totfact>
</mgrwt>
</event>
<event>
 4    1  0.7595604E-007  0.8480060E+03  0.7818608E-02  0.9615265E-01
          2   -1    0    0  501    0  0.00000000000E+00  0.00000000000E+00  0.16919608567E+04  0.16919608567E+04  0.25500000000E-02 0. -1.
         -2   -1    0    0    0  501 -0.00000000000E+00 -0.00000000000E+00 -0.66642073269E+03  0.66642073270E+03  0.25500000000E-02 0.  1.
    8880023    1    1    2    0    0 -0.52273257065E+03  0.10979379804E+03 -0.31707563279E+03  0.90534589062E+03  0.65864270000E+03 0.  0.
    8880022    1    1    2    0    0  0.52273257065E+03 -0.10979379804E+03  0.13426157568E+04  0.14530356988E+04  0.15294330000E+03 0.  0.
<mgrwt>
<rscale>  0 0.76294024E+03</rscale>
<asrwt>0</asrwt>
<pdfrwt beam="1">  1        2 0.26030167E+00 0.84800603E+03</pdfrwt>
<pdfrwt beam="2">  1       -2 0.10252627E+00 0.84800603E+03</pdfrwt>
<totfact> 0.78267155E+00</totfact>
</mgrwt>
</event>
<event>
 4    1  0.7595604E-007  0.6951459E+03  0.7818608E-02  0.1001797E+00
          2   -1    0    0  501    0  0.00000000000E+00  0.00000000000E+00  0.51652413502E+03  0.51652413503E+03  0.25500000000E-02 0. -1.
         -2   -1    0    0    0  501 -0.00000000000E+00 -0.00000000000E+00 -0.65593436979E+03  0.65593436979E+03  0.25500000000E-02 0.  1.
    8880023    1    1    2    0    0 -0.11534214507E+03 -0.19003632876E+03 -0.39606503668E+03  0.80005958292E+03  0.65864270000E+03 0.  0.
    8880022    1    1    2    0    0  0.11534214507E+03  0.19003632876E+03  0.25665480191E+03  0.37239892191E+03  0.15294330000E+03 0.  0.
<mgrwt>
<rscale>  0 0.54869412E+03</rscale>
<asrwt>0</asrwt>
<pdfrwt beam="1">  1        2 0.79465251E-01 0.69514590E+03</pdfrwt>
<pdfrwt beam="2">  1       -2 0.10091298E+00 0.69514590E+03</pdfrwt>
<totfact> 0.48677089E+01</totfact>
</mgrwt>
</event>
<event>
 4    1  0.7595604E-007  0.1331637E+04  0.7818608E-02  0.9038710E-01
         -2   -1    0    0    0  501 -0.00000000000E+00  0.00000000000E+00  0.15372719735E+04  0.15372719735E+04  0.25500000000E-02 0.  1.
          2   -1    0    0  501    0  0.00000000000E+00 -0.00000000000E+00 -0.11953018516E+04  0.11953018516E+04  0.25500000000E-02 0. -1.
    8880023    1    1    2    0    0  0.10526453448E+04  0.48102398458E+03  0.70927136647E+03  0.15087486117E+04  0.65864270000E+03 0.  0.
    8880022    1    1    2    0    0 -0.10526453448E+04 -0.48102398458E+03 -0.36730124456E+03  0.12238252134E+04  0.15294330000E+03 0.  0.
<mgrwt>
<rscale>  0 0.12885310E+04</rscale>
<asrwt>0</asrwt>
<pdfrwt beam="1">  1        2 0.18389259E+00 0.13316368E+04</pdfrwt>
<pdfrwt beam="2">  1       -2 0.23650338E+00 0.13316368E+04</pdfrwt>
<totfact> 0.14236502E+00</totfact>
</mgrwt>
</event>
<event>
 4    1  0.7595604E-007  0.6898768E+03  0.7818608E-02  0.1004211E+00
         -2   -1    0    0    0  501 -0.00000000000E+00  0.00000000000E+00  0.30133116167E+03  0.30133116168E+03  0.25500000000E-02 0.  1.
          2   -1    0    0  501    0  0.00000000000E+00 -0.00000000000E+00 -0.33945894758E+04  0.33945894758E+04  0.25500000000E-02 0. -1.
    8880023    1    1    2    0    0  0.18640775900E+03  0.85860150480E+02 -0.10630271387E+03  0.69801883305E+03  0.65864270000E+03 0.  1.
    8880022    1    1    2    0    0 -0.18640775900E+03 -0.85860150480E+02 -0.29869556003E+04  0.29979018044E+04  0.15294330000E+03 0.  0.
<mgrwt>
<rscale>  0 0.53841647E+03</rscale>
<asrwt>0</asrwt>
<pdfrwt beam="1">  1        2 0.52224451E+00 0.68987682E+03</pdfrwt>
<pdfrwt beam="2">  1       -2 0.46358643E-01 0.68987682E+03</pdfrwt>
<totfact> 0.46424552E+00</totfact>
</mgrwt>
</event>
<event>
 4    1  0.7595604E-007  0.7908537E+03  0.7818608E-02  0.9730933E-01
         -2   -1    0    0    0  501 -0.00000000000E+00  0.00000000000E+00  0.49882170599E+03  0.49882170600E+03  0.25500000000E-02 0.  1.
          2   -1    0    0  501    0  0.00000000000E+00 -0.00000000000E+00 -0.15327973205E+04  0.15327973205E+04  0.25500000000E-02 0. -1.
    8880023    1    1    2    0    0  0.41872935764E+03 -0.12769125345E+03  0.10883906329E+03  0.79830788492E+03  0.65864270000E+03 0.  0.
    8880022    1    1    2    0    0 -0.41872935764E+03  0.12769125345E+03 -0.11428146778E+04  0.12333111416E+04  0.15294330000E+03 0.  0.
<mgrwt>
<rscale>  0 0.69204563E+03</rscale>
<asrwt>0</asrwt>
<pdfrwt beam="1">  1        2 0.23581497E+00 0.79085368E+03</pdfrwt>
<pdfrwt beam="2">  1       -2 0.76741801E-01 0.79085368E+03</pdfrwt>
<totfact> 0.18818278E+01</totfact>
</mgrwt>
</event>
<event>
 4    1  0.7595604E-007  0.7214010E+03  0.7818608E-02  0.9917874E-01
          2   -1    0    0  501    0  0.00000000000E+00  0.00000000000E+00  0.35561065650E+03  0.35561065651E+03  0.25500000000E-02 0. -1.
         -2   -1    0    0    0  501 -0.00000000000E+00 -0.00000000000E+00 -0.11521563567E+04  0.11521563567E+04  0.25500000000E-02 0.  1.
    8880023    1    1    2    0    0  0.28589146106E+03 -0.69822651762E+02 -0.90634975758E+03  0.11583994214E+04  0.65864270000E+03 0.  1.
    8880022    1    1    2    0    0 -0.28589146106E+03  0.69822651762E+02  0.10980405734E+03  0.34936759184E+03  0.15294330000E+03 0.  0.
<mgrwt>
<rscale>  0 0.59402812E+03</rscale>
<asrwt>0</asrwt>
<pdfrwt beam="1">  1        2 0.54709332E-01 0.72140095E+03</pdfrwt>
<pdfrwt beam="2">  1       -2 0.17725482E+00 0.72140095E+03</pdfrwt>
<totfact> 0.17500948E+01</totfact>
</mgrwt>
</event>
<event>
 4    1  0.7595604E-007  0.1068050E+04  0.7818608E-02  0.9297491E-01
         -2   -1    0    0    0  501 -0.00000000000E+00  0.00000000000E+00  0.13829556986E+04  0.13829556986E+04  0.25500000000E-02 0.  1.
          2   -1    0    0  501    0  0.00000000000E+00 -0.00000000000E+00 -0.82138652617E+03  0.82138652617E+03  0.25500000000E-02 0. -1.
    8880023    1    1    2    0    0  0.55494785091E+03  0.63162712112E+03 -0.16739485261E+03  0.10810879614E+04  0.65864270000E+03 0.  0.
    8880022    1    1    2    0    0 -0.55494785091E+03 -0.63162712112E+03  0.72896402506E+03  0.11232542634E+04  0.15294330000E+03 0.  0.
<mgrwt>
<rscale>  0 0.10101413E+04</rscale>
<asrwt>0</asrwt>
<pdfrwt beam="1">  1        2 0.12636716E+00 0.10680497E+04</pdfrwt>
<pdfrwt beam="2">  1       -2 0.21276241E+00 0.10680497E+04</pdfrwt>
<totfact> 0.36063322E+00</totfact>
</mgrwt>
</event>
<event>
 4    1  0.7595604E-007  0.8020701E+03  0.7818608E-02  0.9706338E-01
          2   -1    0    0  501    0  0.00000000000E+00  0.00000000000E+00  0.16839152791E+04  0.16839152791E+04  0.25500000000E-02 0. -1.
         -2   -1    0    0    0  501 -0.00000000000E+00 -0.00000000000E+00 -0.66899342063E+03  0.66899342063E+03  0.25500000000E-02 0.  1.
    8880023    1    1    2    0    0  0.43133465995E+03 -0.15315547161E+03 -0.37220862393E+03  0.88422601938E+03  0.65864270000E+03 0.  1.
    8880022    1    1    2    0    0 -0.43133465995E+03  0.15315547161E+03  0.13871304824E+04  0.14686826804E+04  0.15294330000E+03 0.  0.
<mgrwt>
<rscale>  0 0.70640687E+03</rscale>
<asrwt>0</asrwt>
<pdfrwt beam="1">  1        2 0.25906389E+00 0.80207007E+03</pdfrwt>
<pdfrwt beam="2">  1       -2 0.10292207E+00 0.80207007E+03</pdfrwt>
<totfact> 0.78823368E+00</totfact>
</mgrwt>
</event>
<event>
 4    1  0.7595604E-007  0.8271162E+03  0.7818608E-02  0.9654970E-01
         -2   -1    0    0    0  501 -0.00000000000E+00  0.00000000000E+00  0.12729462285E+03  0.12729462287E+03  0.25500000000E-02 0.  1.
          2   -1    0    0  501    0  0.00000000000E+00 -0.00000000000E+00 -0.38528084588E+04  0.38528084588E+04  0.25500000000E-02 0. -1.
    8880023    1    1    2    0    0  0.65645599301E+02 -0.49598556865E+03 -0.17362846259E+04  0.19232278953E+04  0.65864270000E+03 0.  1.
    8880022    1    1    2    0    0 -0.65645599301E+02  0.49598556865E+03 -0.19892292100E+04  0.20568751863E+04  0.15294330000E+03 0.  0.
<mgrwt>
<rscale>  0 0.73762357E+03</rscale>
<asrwt>0</asrwt>
<pdfrwt beam="1">  1        2 0.59273968E+00 0.82711622E+03</pdfrwt>
<pdfrwt beam="2">  1       -2 0.19583791E-01 0.82711622E+03</pdfrwt>
<totfact> 0.10683472E+01</totfact>
</mgrwt>
</event>
<event>
 4    1  0.8216889E-007  0.1068198E+04  0.7818608E-02  0.9297318E-01
          2   -1    0    0  501    0  0.00000000000E+00  0.00000000000E+00  0.13698291914E+04  0.13698291914E+04  0.25500000000E-02 0. -1.
         -2   -1    0    0    0  501 -0.00000000000E+00 -0.00000000000E+00 -0.22562584304E+04  0.22562584304E+04  0.25500000000E-02 0.  1.
    8880023    1    1    2    0    0  0.11850252230E+03 -0.83258237017E+03 -0.19729971431E+04  0.22436051756E+04  0.65864270000E+03 0.  1.
    8880022    1    1    2    0    0 -0.11850252230E+03  0.83258237017E+03  0.10865679040E+04  0.13824824462E+04  0.15294330000E+03 0.  0.
<mgrwt>
<rscale>  0 0.10103010E+04</rscale>
<asrwt>0</asrwt>
<pdfrwt beam="1">  1        2 0.21074295E+00 0.10681978E+04</pdfrwt>
<pdfrwt beam="2">  1       -2 0.34711668E+00 0.10681978E+04</pdfrwt>
<totfact> 0.24432940E-01</totfact>
</mgrwt>
</event>
<event>
 4    1  0.7595604E-007  0.8193970E+03  0.7818608E-02  0.9670326E-01
          2   -1    0    0  501    0  0.00000000000E+00  0.00000000000E+00  0.39888391220E+04  0.39888391220E+04  0.25500000000E-02 0. -1.
         -2   -1    0    0    0  501 -0.00000000000E+00 -0.00000000000E+00 -0.22182808185E+03  0.22182808186E+03  0.25500000000E-02 0.  1.
    8880023    1    1    2    0    0 -0.47106578936E+03 -0.12529297623E+03  0.63335288823E+03  0.10356386412E+04  0.65864270000E+03 0.  1.
    8880022    1    1    2    0    0  0.47106578936E+03  0.12529297623E+03  0.31336581520E+04  0.31750285627E+04  0.15294330000E+03 0.  0.
<mgrwt>
<rscale>  0 0.72811402E+03</rscale>
<asrwt>0</asrwt>
<pdfrwt beam="1">  1        2 0.61366755E+00 0.81939704E+03</pdfrwt>
<pdfrwt beam="2">  1       -2 0.34127398E-01 0.81939704E+03</pdfrwt>
<totfact> 0.30609122E+00</totfact>
</mgrwt>
</event>
<event>
 4    1  0.7595604E-007  0.8891021E+03  0.7818608E-02  0.9543758E-01
         -2   -1    0    0    0  501 -0.00000000000E+00  0.00000000000E+00  0.66281573013E+03  0.66281573013E+03  0.25500000000E-02 0.  1.
          2   -1    0    0  501    0  0.00000000000E+00 -0.00000000000E+00 -0.20234544952E+04  0.20234544952E+04  0.25500000000E-02 0. -1.
    8880023    1    1    2    0    0  0.59221745758E+03  0.77271027253E+02  0.28118949502E+03  0.93250740860E+03  0.65864270000E+03 0.  1.
    8880022    1    1    2    0    0 -0.59221745758E+03 -0.77271027253E+02 -0.16418282601E+04  0.17537628167E+04  0.15294330000E+03 0.  0.
<mgrwt>
<rscale>  0 0.81133212E+03</rscale>
<asrwt>0</asrwt>
<pdfrwt beam="1">  1        2 0.31130069E+00 0.88910209E+03</pdfrwt>
<pdfrwt beam="2">  1       -2 0.10197165E+00 0.88910209E+03</pdfrwt>
<totfact> 0.51891257E+00</totfact>
</mgrwt>
</event>
<event>
 4    1  0.7595604E-007  0.9879590E+03  0.7818608E-02  0.9397483E-01
          2   -1    0    0  501    0  0.00000000000E+00  0.00000000000E+00  0.16583222622E+04  0.16583222622E+04  0.25500000000E-02 0. -1.
         -2   -1    0    0    0  501 -0.00000000000E+00 -0.00000000000E+00 -0.91647219685E+03  0.91647219686E+03  0.25500000000E-02 0.  1.
    8880023    1    1    2    0    0 -0.71740119626E+03  0.16609719037E+03 -0.51194730658E+03  0.11127232378E+04  0.65864270000E+03 0.  0.
    8880022    1    1    2    0    0  0.71740119626E+03 -0.16609719037E+03  0.12537973719E+04  0.14620712212E+04  0.15294330000E+03 0.  0.
<mgrwt>
<rscale>  0 0.92283089E+03</rscale>
<asrwt>0</asrwt>
<pdfrwt beam="1">  1        2 0.25512650E+00 0.98795899E+03</pdfrwt>
<pdfrwt beam="2">  1       -2 0.14099572E+00 0.98795899E+03</pdfrwt>
<totfact> 0.36319421E+00</totfact>
</mgrwt>
</event>
<event>
 4    1  0.7595604E-007  0.9139873E+03  0.7818608E-02  0.9503940E-01
          2   -1    0    0  501    0  0.00000000000E+00  0.00000000000E+00  0.10563033567E+04  0.10563033567E+04  0.25500000000E-02 0. -1.
         -2   -1    0    0    0  501 -0.00000000000E+00 -0.00000000000E+00 -0.88445280679E+03  0.88445280680E+03  0.25500000000E-02 0.  1.
    8880023    1    1    2    0    0  0.10185026092E+03 -0.62545117955E+03 -0.46841774432E+03  0.10270287450E+04  0.65864270000E+03 0.  1.
    8880022    1    1    2    0    0 -0.10185026092E+03  0.62545117955E+03  0.64026829424E+03  0.91372741847E+03  0.15294330000E+03 0.  0.
<mgrwt>
<rscale>  0 0.83993933E+03</rscale>
<asrwt>0</asrwt>
<pdfrwt beam="1">  1        2 0.16250821E+00 0.91398734E+03</pdfrwt>
<pdfrwt beam="2">  1       -2 0.13606966E+00 0.91398734E+03</pdfrwt>
<totfact> 0.89672243E+00</totfact>
</mgrwt>
</event>
<event>
 4    1  0.7595604E-007  0.7714147E+03  0.7818608E-02  0.9776405E-01
          2   -1    0    0  501    0  0.00000000000E+00  0.00000000000E+00  0.32018273931E+04  0.32018273931E+04  0.25500000000E-02 0. -1.
         -2   -1    0    0    0  501 -0.00000000000E+00 -0.00000000000E+00 -0.20265597030E+03  0.20265597031E+03  0.25500000000E-02 0.  1.
    8880023    1    1    2    0    0 -0.37209703047E+03  0.15104400259E+03  0.62808760924E+03  0.99477371394E+03  0.65864270000E+03 0.  0.
    8880022    1    1    2    0    0  0.37209703047E+03 -0.15104400259E+03  0.23710838136E+04  0.24097096495E+04  0.15294330000E+03 0.  0.
<mgrwt>
<rscale>  0 0.66644326E+03</rscale>
<asrwt>0</asrwt>
<pdfrwt beam="1">  1        2 0.49258879E+00 0.77141474E+03</pdfrwt>
<pdfrwt beam="2">  1       -2 0.31177844E-01 0.77141474E+03</pdfrwt>
<totfact> 0.13123941E+01</totfact>
</mgrwt>
</event>
<event>
 4    1  0.7595604E-007  0.9793580E+03  0.7818608E-02  0.9409076E-01
          2   -1    0    0  501    0  0.00000000000E+00  0.00000000000E+00  0.54152109057E+03  0.54152109058E+03  0.25500000000E-02 0. -1.
         -2   -1    0    0    0  501 -0.00000000000E+00 -0.00000000000E+00 -0.29900326099E+04  0.29900326099E+04  0.25500000000E-02 0.  1.
    8880023    1    1    2    0    0  0.72097321368E+03  0.74361184134E+02 -0.25974694617E+04  0.27759664572E+04  0.65864270000E+03 0.  1.
    8880022    1    1    2    0    0 -0.72097321368E+03 -0.74361184134E+02  0.14895794243E+03  0.75558724326E+03  0.15294330000E+03 0.  0.
<mgrwt>
<rscale>  0 0.91332496E+03</rscale>
<asrwt>0</asrwt>
<pdfrwt beam="1">  1        2 0.83310939E-01 0.97935804E+03</pdfrwt>
<pdfrwt beam="2">  1       -2 0.46000501E+00 0.97935804E+03</pdfrwt>
<totfact> 0.17100322E-01</totfact>
</mgrwt>
</event>
<event>
 4    1  0.7595604E-007  0.7625046E+03  0.7818608E-02  0.9798666E-01
          2   -1    0    0  501    0  0.00000000000E+00  0.00000000000E+00  0.28465189259E+04  0.28465189259E+04  0.25500000000E-02 0. -1.
         -2   -1    0    0    0  501 -0.00000000000E+00 -0.00000000000E+00 -0.13127383023E+03  0.13127383026E+03  0.25500000000E-02 0.  1.
    8880023    1    1    2    0    0  0.36708137055E+03 -0.11337659853E+03  0.13403686277E+04  0.15420769274E+04  0.65864270000E+03 0.  1.
    8880022    1    1    2    0    0 -0.36708137055E+03  0.11337659853E+03  0.13748764680E+04  0.14357158288E+04  0.15294330000E+03 0.  0.
<mgrwt>
<rscale>  0 0.65434177E+03</rscale>
<asrwt>0</asrwt>
<pdfrwt beam="1">  1        2 0.43792599E+00 0.76250455E+03</pdfrwt>
<pdfrwt beam="2">  1       -2 0.20195974E-01 0.76250455E+03</pdfrwt>
<totfact> 0.47671475E+01</totfact>
</mgrwt>
</event>
<event>
 4    1  0.7595604E-007  0.7530738E+03  0.7818608E-02  0.9823380E-01
         -2   -1    0    0    0  501 -0.00000000000E+00  0.00000000000E+00  0.68231418478E+03  0.68231418478E+03  0.25500000000E-02 0.  1.
          2   -1    0    0  501    0  0.00000000000E+00 -0.00000000000E+00 -0.65370181500E+03  0.65370181501E+03  0.25500000000E-02 0. -1.
    8880023    1    1    2    0    0 -0.36451348310E+03  0.20973782282E+02  0.34588316203E+03  0.82870703324E+03  0.65864270000E+03 0.  1.
    8880022    1    1    2    0    0  0.36451348310E+03 -0.20973782282E+02 -0.31727079225E+03  0.50730896655E+03  0.15294330000E+03 0.  0.
<mgrwt>
<rscale>  0 0.64122782E+03</rscale>
<asrwt>0</asrwt>
<pdfrwt beam="1">  1        2 0.10056951E+00 0.75307382E+03</pdfrwt>
<pdfrwt beam="2">  1       -2 0.10497141E+00 0.75307382E+03</pdfrwt>
<totfact> 0.33259472E+01</totfact>
</mgrwt>
</event>
<event>
 4    1  0.7595604E-007  0.6820487E+03  0.7818608E-02  0.1008188E+00
         -2   -1    0    0    0  501 -0.00000000000E+00  0.00000000000E+00  0.20696244444E+03  0.20696244446E+03  0.25500000000E-02 0.  1.
          2   -1    0    0  501    0  0.00000000000E+00 -0.00000000000E+00 -0.10263294337E+04  0.10263294337E+04  0.25500000000E-02 0. -1.
    8880023    1    1    2    0    0  0.17168341930E+03 -0.43646203133E+02 -0.54784380392E+03  0.87482754145E+03  0.65864270000E+03 0. -1.
    8880022    1    1    2    0    0 -0.17168341930E+03  0.43646203133E+02 -0.27152318532E+03  0.35846433670E+03  0.15294330000E+03 0. -1.
<mgrwt>
<rscale>  0 0.52201285E+03</rscale>
<asrwt>0</asrwt>
<pdfrwt beam="1">  1        2 0.15789683E+00 0.68204867E+03</pdfrwt>
<pdfrwt beam="2">  1       -2 0.31840377E-01 0.68204867E+03</pdfrwt>
<totfact> 0.22520392E+02</totfact>
</mgrwt>
</event>
<event>
 4    1  0.7595604E-007  0.1149231E+04  0.7818608E-02  0.9208127E-01
         -2   -1    0    0    0  501 -0.00000000000E+00  0.00000000000E+00  0.12027179234E+04  0.12027179234E+04  0.25500000000E-02 0.  1.
          2   -1    0    0  501    0  0.00000000000E+00 -0.00000000000E+00 -0.11574258101E+04  0.11574258101E+04  0.25500000000E-02 0. -1.
    8880023    1    1    2    0    0 -0.25257504079E+03  0.90726338953E+03  0.55742141021E+03  0.12772822100E+04  0.65864270000E+03 0.  0.
    8880022    1    1    2    0    0  0.25257504079E+03 -0.90726338953E+03 -0.51212929693E+03  0.10828615235E+04  0.15294330000E+03 0.  0.
<mgrwt>
<rscale>  0 0.10969940E+04</rscale>
<asrwt>0</asrwt>
<pdfrwt beam="1">  1        2 0.17806551E+00 0.11492307E+04</pdfrwt>
<pdfrwt beam="2">  1       -2 0.18503353E+00 0.11492307E+04</pdfrwt>
<totfact> 0.32848385E+00</totfact>
</mgrwt>
</event>
<event>
 4    1  0.7595604E-007  0.7747561E+03  0.7818608E-02  0.9768302E-01
         -2   -1    0    0    0  501 -0.00000000000E+00  0.00000000000E+00  0.57297486031E+03  0.57297486032E+03  0.25500000000E-02 0.  1.
          2   -1    0    0  501    0  0.00000000000E+00 -0.00000000000E+00 -0.11511155538E+04  0.11511155538E+04  0.25500000000E-02 0. -1.
    8880023    1    1    2    0    0 -0.24783570292E+03  0.32405899007E+03  0.22811664486E+03  0.80764111746E+03  0.65864270000E+03 0.  0.
    8880022    1    1    2    0    0  0.24783570292E+03 -0.32405899007E+03 -0.80625733837E+03  0.91644929667E+03  0.15294330000E+03 0.  0.
<mgrwt>
<rscale>  0 0.67091715E+03</rscale>
<asrwt>0</asrwt>
<pdfrwt beam="1">  1        2 0.17709470E+00 0.77475607E+03</pdfrwt>
<pdfrwt beam="2">  1       -2 0.88149979E-01 0.77475607E+03</pdfrwt>
<totfact> 0.22823959E+01</totfact>
</mgrwt>
</event>
<event>
 4    1  0.7595604E-007  0.8119905E+03  0.7818608E-02  0.9685446E-01
         -2   -1    0    0    0  501 -0.00000000000E+00  0.00000000000E+00  0.41213162463E+03  0.41213162463E+03  0.25500000000E-02 0.  1.
          2   -1    0    0  501    0  0.00000000000E+00 -0.00000000000E+00 -0.18085570647E+04  0.18085570647E+04  0.25500000000E-02 0. -1.
    8880023    1    1    2    0    0 -0.30793466999E+03 -0.36151698072E+03 -0.83627549734E+02  0.81628552705E+03  0.65864270000E+03 0.  1.
    8880022    1    1    2    0    0  0.30793466999E+03  0.36151698072E+03 -0.13127978903E+04  0.14044031622E+04  0.15294330000E+03 0.  0.
<mgrwt>
<rscale>  0 0.71889998E+03</rscale>
<asrwt>0</asrwt>
<pdfrwt beam="1">  1        2 0.27823954E+00 0.81199045E+03</pdfrwt>
<pdfrwt beam="2">  1       -2 0.63404866E-01 0.81199045E+03</pdfrwt>
<totfact> 0.20083566E+01</totfact>
</mgrwt>
</event>
<event>
 4    1  0.7595604E-007  0.7474930E+03  0.7818608E-02  0.9838634E-01
          2   -1    0    0  501    0  0.00000000000E+00  0.00000000000E+00  0.13471054450E+04  0.13471054450E+04  0.25500000000E-02 0. -1.
         -2   -1    0    0    0  501 -0.00000000000E+00 -0.00000000000E+00 -0.65217466659E+03  0.65217466660E+03  0.25500000000E-02 0.  1.
    8880023    1    1    2    0    0  0.25824396631E+03 -0.24134136335E+03 -0.39348487072E+03  0.84473436626E+03  0.65864270000E+03 0.  0.
    8880022    1    1    2    0    0 -0.25824396631E+03  0.24134136335E+03  0.10884156492E+04  0.11545457454E+04  0.15294330000E+03 0.  0.
<mgrwt>
<rscale>  0 0.63329779E+03</rscale>
<asrwt>0</asrwt>
<pdfrwt beam="1">  1        2 0.20724699E+00 0.74749301E+03</pdfrwt>
<pdfrwt beam="2">  1       -2 0.10033456E+00 0.74749301E+03</pdfrwt>
<totfact> 0.13000599E+01</totfact>
</mgrwt>
</event>
<event>
 4    1  0.7595604E-007  0.7233074E+03  0.7818608E-02  0.9911550E-01
          2   -1    0    0  501    0  0.00000000000E+00  0.00000000000E+00  0.68246823038E+03  0.68246823039E+03  0.25500000000E-02 0. -1.
         -2   -1    0    0    0  501 -0.00000000000E+00 -0.00000000000E+00 -0.53908986981E+03  0.53908986982E+03  0.25500000000E-02 0.  1.
    8880023    1    1    2    0    0 -0.26982733352E+03 -0.12867260562E+03 -0.19055811357E+03  0.74798798805E+03  0.65864270000E+03 0.  1.
    8880022    1    1    2    0    0  0.26982733352E+03  0.12867260562E+03  0.33393647414E+03  0.47357011216E+03  0.15294330000E+03 0. -1.
<mgrwt>
<rscale>  0 0.59704795E+03</rscale>
<asrwt>0</asrwt>
<pdfrwt beam="1">  1        2 0.10499511E+00 0.72330743E+03</pdfrwt>
<pdfrwt beam="2">  1       -2 0.82936903E-01 0.72330743E+03</pdfrwt>
<totfact> 0.54697971E+01</totfact>
</mgrwt>
</event>
<event>
 4    1  0.7595604E-007  0.7694661E+03  0.7818608E-02  0.9781190E-01
          2   -1    0    0  501    0  0.00000000000E+00  0.00000000000E+00  0.41299395010E+03  0.41299395010E+03  0.25500000000E-02 0. -1.
         -2   -1    0    0    0  501 -0.00000000000E+00 -0.00000000000E+00 -0.11489356751E+04  0.11489356751E+04  0.25500000000E-02 0.  1.
    8880023    1    1    2    0    0  0.27736182217E+03  0.28519873204E+03 -0.82325158416E+03  0.11268634674E+04  0.65864270000E+03 0.  0.
    8880022    1    1    2    0    0 -0.27736182217E+03 -0.28519873204E+03  0.87309859122E+02  0.43506615781E+03  0.15294330000E+03 0.  0.
<mgrwt>
<rscale>  0 0.66381858E+03</rscale>
<asrwt>0</asrwt>
<pdfrwt beam="1">  1        2 0.63537531E-01 0.76946612E+03</pdfrwt>
<pdfrwt beam="2">  1       -2 0.17675933E+00 0.76946612E+03</pdfrwt>
<totfact> 0.14847545E+01</totfact>
</mgrwt>
</event>
<event>
 4    1  0.7595604E-007  0.1908649E+04  0.7818608E-02  0.8664703E-01
         -2   -1    0    0    0  501 -0.00000000000E+00  0.00000000000E+00  0.18264083851E+04  0.18264083851E+04  0.25500000000E-02 0.  1.
          2   -1    0    0  501    0  0.00000000000E+00 -0.00000000000E+00 -0.19420001558E+04  0.19420001558E+04  0.25500000000E-02 0. -1.
    8880023    1    1    2    0    0 -0.12509325373E+04  0.12823017593E+04 -0.39447254864E+03  0.19489866118E+04  0.65864270000E+03 0.  1.
    8880022    1    1    2    0    0  0.12509325373E+04 -0.12823017593E+04  0.27888077795E+03  0.18194219291E+04  0.15294330000E+03 0. -1.
<mgrwt>
<rscale>  0 0.18803435E+04</rscale>
<asrwt>0</asrwt>
<pdfrwt beam="1">  1        2 0.29876925E+00 0.19086488E+04</pdfrwt>
<pdfrwt beam="2">  1       -2 0.28098591E+00 0.19086488E+04</pdfrwt>
<totfact> 0.26899096E-01</totfact>
</mgrwt>
</event>
<event>
 4    1  0.7595604E-007  0.1265904E+04  0.7818608E-02  0.9095578E-01
         -2   -1    0    0    0  501 -0.00000000000E+00  0.00000000000E+00  0.10335544577E+04  0.10335544577E+04  0.25500000000E-02 0.  1.
          2   -1    0    0  501    0  0.00000000000E+00 -0.00000000000E+00 -0.14689245581E+04  0.14689245581E+04  0.25500000000E-02 0. -1.
    8880023    1    1    2    0    0  0.91160924273E+03  0.58109507043E+03  0.13069314734E+03  0.12726326247E+04  0.65864270000E+03 0.  0.
    8880022    1    1    2    0    0 -0.91160924273E+03 -0.58109507043E+03 -0.56606324770E+03  0.12298463911E+04  0.15294330000E+03 0.  0.
<mgrwt>
<rscale>  0 0.12199427E+04</rscale>
<asrwt>0</asrwt>
<pdfrwt beam="1">  1        2 0.22598840E+00 0.12659041E+04</pdfrwt>
<pdfrwt beam="2">  1       -2 0.15900838E+00 0.12659041E+04</pdfrwt>
<totfact> 0.32692939E+00</totfact>
</mgrwt>
</event>
<event>
 4    1  0.7595604E-007  0.6618782E+03  0.7818608E-02  0.1022310E+00
          2   -1    0    0  501    0  0.00000000000E+00  0.00000000000E+00  0.10466566720E+04  0.10466566720E+04  0.25500000000E-02 0. -1.
         -2   -1    0    0    0  501 -0.00000000000E+00 -0.00000000000E+00 -0.43847546934E+03  0.43847546935E+03  0.25500000000E-02 0.  1.
    8880023    1    1    2    0    0 -0.62290487709E+02 -0.19809930028E+02 -0.17488810223E+03  0.68459374285E+03  0.65864270000E+03 0.  1.
    8880022    1    1    2    0    0  0.62290487709E+02  0.19809930028E+02  0.78306930494E+03  0.80053839854E+03  0.15294330000E+03 0.  0.
<mgrwt>
<rscale>  0 0.46862268E+03</rscale>
<asrwt>0</asrwt>
<pdfrwt beam="1">  1        2 0.16102410E+00 0.66187819E+03</pdfrwt>
<pdfrwt beam="2">  1       -2 0.67457766E-01 0.66187819E+03</pdfrwt>
<totfact> 0.48559889E+01</totfact>
</mgrwt>
</event>
<event>
 4    1  0.7595604E-007  0.8985560E+03  0.7818608E-02  0.9528354E-01
          2   -1    0    0  501    0  0.00000000000E+00  0.00000000000E+00  0.18976259561E+04  0.18976259561E+04  0.25500000000E-02 0. -1.
         -2   -1    0    0    0  501 -0.00000000000E+00 -0.00000000000E+00 -0.47349815882E+03  0.47349815882E+03  0.25500000000E-02 0.  1.
    8880023    1    1    2    0    0  0.60708871938E+03  0.70964766097E+02  0.99204118280E+02  0.90401569377E+03  0.65864270000E+03 0.  0.
    8880022    1    1    2    0    0 -0.60708871938E+03 -0.70964766097E+02  0.13249236790E+04  0.14671084211E+04  0.15294330000E+03 0.  0.
<mgrwt>
<rscale>  0 0.82225314E+03</rscale>
<asrwt>0</asrwt>
<pdfrwt beam="1">  1        2 0.29194245E+00 0.89855602E+03</pdfrwt>
<pdfrwt beam="2">  1       -2 0.72845872E-01 0.89855602E+03</pdfrwt>
<totfact> 0.13139074E+01</totfact>
</mgrwt>
</event>
<event>
 4    1  0.7595604E-007  0.8056740E+03  0.7818608E-02  0.9698659E-01
         -2   -1    0    0    0  501 -0.00000000000E+00  0.00000000000E+00  0.34482052494E+03  0.34482052495E+03  0.25500000000E-02 0.  1.
          2   -1    0    0  501    0  0.00000000000E+00 -0.00000000000E+00 -0.19935577637E+04  0.19935577637E+04  0.25500000000E-02 0. -1.
    8880023    1    1    2    0    0 -0.32562499174E+03 -0.33055815644E+03 -0.22997729212E+03  0.83785445704E+03  0.65864270000E+03 0.  0.
    8880022    1    1    2    0    0  0.32562499174E+03  0.33055815644E+03 -0.14187599466E+04  0.15005238316E+04  0.15294330000E+03 0.  0.
<mgrwt>
<rscale>  0 0.71096664E+03</rscale>
<asrwt>0</asrwt>
<pdfrwt beam="1">  1        2 0.30670119E+00 0.80567396E+03</pdfrwt>
<pdfrwt beam="2">  1       -2 0.53049313E-01 0.80567396E+03</pdfrwt>
<totfact> 0.23158554E+01</totfact>
</mgrwt>
</event>
<event>
 4    1  0.7595604E-007  0.6835265E+03  0.7818608E-02  0.1007395E+00
         -2   -1    0    0    0  501 -0.00000000000E+00  0.00000000000E+00  0.15087144565E+03  0.15087144567E+03  0.25500000000E-02 0.  1.
          2   -1    0    0  501    0  0.00000000000E+00 -0.00000000000E+00 -0.15170732232E+04  0.15170732232E+04  0.25500000000E-02 0. -1.
    8880023    1    1    2    0    0  0.12280850432E+03 -0.13533808883E+03 -0.79149083147E+03  0.10457850016E+04  0.65864270000E+03 0.  1.
    8880022    1    1    2    0    0 -0.12280850432E+03  0.13533808883E+03 -0.57471094606E+03  0.62215966725E+03  0.15294330000E+03 0.  0.
<mgrwt>
<rscale>  0 0.52523118E+03</rscale>
<asrwt>0</asrwt>
<pdfrwt beam="1">  1        2 0.23339587E+00 0.68352654E+03</pdfrwt>
<pdfrwt beam="2">  1       -2 0.23210993E-01 0.68352654E+03</pdfrwt>
<totfact> 0.20754144E+02</totfact>
</mgrwt>
</event>
<event>
 4    1  0.7595604E-007  0.6913723E+03  0.7818608E-02  0.1003507E+00
          2   -1    0    0  501    0  0.00000000000E+00  0.00000000000E+00  0.48879850519E+03  0.48879850520E+03  0.25500000000E-02 0. -1.
         -2   -1    0    0    0  501 -0.00000000000E+00 -0.00000000000E+00 -0.50403429246E+03  0.50403429247E+03  0.25500000000E-02 0.  1.
    8880023    1    1    2    0    0  0.46646473142E+02 -0.20496234311E+03 -0.13853929619E+03  0.70511615951E+03  0.65864270000E+03 0.  0.
    8880022    1    1    2    0    0 -0.46646473142E+02  0.20496234311E+03  0.12330350892E+03  0.28771663816E+03  0.15294330000E+03 0.  0.
<mgrwt>
<rscale>  0 0.54138838E+03</rscale>
<asrwt>0</asrwt>
<pdfrwt beam="1">  1        2 0.75199770E-01 0.69137230E+03</pdfrwt>
<pdfrwt beam="2">  1       -2 0.77543738E-01 0.69137230E+03</pdfrwt>
<totfact> 0.95071636E+01</totfact>
</mgrwt>
</event>
<event>
 4    1  0.7595604E-007  0.7077506E+03  0.7818608E-02  0.9966451E-01
          2   -1    0    0  501    0  0.00000000000E+00  0.00000000000E+00  0.91828800025E+03  0.91828800025E+03  0.25500000000E-02 0. -1.
         -2   -1    0    0    0  501 -0.00000000000E+00 -0.00000000000E+00 -0.50444676631E+03  0.50444676632E+03  0.25500000000E-02 0.  1.
    8880023    1    1    2    0    0 -0.14840732146E+03 -0.21231111941E+03 -0.20313874659E+03  0.73632621922E+03  0.65864270000E+03 0.  1.
    8880022    1    1    2    0    0  0.14840732146E+03  0.21231111941E+03  0.61697998053E+03  0.68640854735E+03  0.15294330000E+03 0.  0.
<mgrwt>
<rscale>  0 0.57146115E+03</rscale>
<asrwt>0</asrwt>
<pdfrwt beam="1">  1        2 0.14127508E+00 0.70775063E+03</pdfrwt>
<pdfrwt beam="2">  1       -2 0.77607195E-01 0.70775063E+03</pdfrwt>
<totfact> 0.42963719E+01</totfact>
</mgrwt>
</event>
<event>
 4    1  0.7595604E-007  0.7745602E+03  0.7818608E-02  0.9768774E-01
          2   -1    0    0  501    0  0.00000000000E+00  0.00000000000E+00  0.90861833990E+03  0.90861833991E+03  0.25500000000E-02 0. -1.
         -2   -1    0    0    0  501 -0.00000000000E+00 -0.00000000000E+00 -0.98100611933E+03  0.98100611933E+03  0.25500000000E-02 0.  1.
    8880023    1    1    2    0    0  0.40383036869E+02 -0.40558908360E+03 -0.75393147314E+03  0.10809052534E+04  0.65864270000E+03 0.  0.
    8880022    1    1    2    0    0 -0.40383036869E+02  0.40558908360E+03  0.68154369372E+03  0.80871920582E+03  0.15294330000E+03 0.  0.
<mgrwt>
<rscale>  0 0.67065579E+03</rscale>
<asrwt>0</asrwt>
<pdfrwt beam="1">  1        2 0.13978744E+00 0.77456020E+03</pdfrwt>
<pdfrwt beam="2">  1       -2 0.15092402E+00 0.77456020E+03</pdfrwt>
<totfact> 0.86513061E+00</totfact>
</mgrwt>
</event>
<event>
 4    1  0.7996895E-007  0.6942355E+03  0.7818608E-02  0.1002201E+00
         -2   -1    0    0    0  501 -0.00000000000E+00  0.00000000000E+00  0.50672774520E+03  0.50672774521E+03  0.25500000000E-02 0.  1.
          2   -1    0    0  501    0  0.00000000000E+00 -0.00000000000E+00 -0.18143306112E+04  0.18143306112E+04  0.25500000000E-02 0. -1.
    8880023    1    1    2    0    0  0.21623977448E+03  0.37323561027E+02  0.25209623612E+03  0.73859014806E+03  0.65864270000E+03 0.  1.
    8880022    1    1    2    0    0 -0.21623977448E+03 -0.37323561027E+02 -0.15596991021E+04  0.15824682083E+04  0.15294330000E+03 0.  0.
<mgrwt>
<rscale>  0 0.54695552E+03</rscale>
<asrwt>0</asrwt>
<pdfrwt beam="1">  1        2 0.27912778E+00 0.69423547E+03</pdfrwt>
<pdfrwt beam="2">  1       -2 0.77958115E-01 0.69423547E+03</pdfrwt>
<totfact> 0.12898414E+01</totfact>
</mgrwt>
</event>
<event>
 4    1  0.7595604E-007  0.8421611E+03  0.7818608E-02  0.9626119E-01
         -2   -1    0    0    0  501 -0.00000000000E+00  0.00000000000E+00  0.47604347193E+03  0.47604347193E+03  0.25500000000E-02 0.  1.
          2   -1    0    0  501    0  0.00000000000E+00 -0.00000000000E+00 -0.14062794818E+04  0.14062794818E+04  0.25500000000E-02 0. -1.
    8880023    1    1    2    0    0 -0.51148457887E+03 -0.11750989585E+03 -0.46824548421E+02  0.84346179204E+03  0.65864270000E+03 0.  1.
    8880022    1    1    2    0    0  0.51148457887E+03  0.11750989585E+03 -0.88341146148E+03  0.10388611617E+04  0.15294330000E+03 0.  0.
<mgrwt>
<rscale>  0 0.75591328E+03</rscale>
<asrwt>0</asrwt>
<pdfrwt beam="1">  1        2 0.21635069E+00 0.84216106E+03</pdfrwt>
<pdfrwt beam="2">  1       -2 0.73237458E-01 0.84216106E+03</pdfrwt>
<totfact> 0.24442652E+01</totfact>
</mgrwt>
</event>
<event>
 4    1  0.7595604E-007  0.6769642E+03  0.7818608E-02  0.1011096E+00
          2   -1    0    0  501    0  0.00000000000E+00  0.00000000000E+00  0.89775947249E+03  0.89775947250E+03  0.25500000000E-02 0. -1.
         -2   -1    0    0    0  501 -0.00000000000E+00 -0.00000000000E+00 -0.95573456603E+03  0.95573456603E+03  0.25500000000E-02 0.  1.
    8880023    1    1    2    0    0 -0.71101909857E+00 -0.15642833362E+03 -0.81847097315E+03  0.10621559534E+04  0.65864270000E+03 0.  1.
    8880022    1    1    2    0    0  0.71101909857E+00  0.15642833362E+03  0.76049587962E+03  0.79133808517E+03  0.15294330000E+03 0.  0.
<mgrwt>
<rscale>  0 0.51041463E+03</rscale>
<asrwt>0</asrwt>
<pdfrwt beam="1">  1        2 0.13811684E+00 0.67696421E+03</pdfrwt>
<pdfrwt beam="2">  1       -2 0.14703609E+00 0.67696421E+03</pdfrwt>
<totfact> 0.95382014E+00</totfact>
</mgrwt>
</event>
<event>
 4    1  0.9354929E-007  0.7109756E+03  0.7818608E-02  0.9954396E-01
         -2   -1    0    0    0  501 -0.00000000000E+00  0.00000000000E+00  0.67180147209E+03  0.67180147210E+03  0.25500000000E-02 0.  1.
          2   -1    0    0  501    0  0.00000000000E+00 -0.00000000000E+00 -0.29740990934E+04  0.29740990934E+04  0.25500000000E-02 0. -1.
    8880023    1    1    2    0    0  0.25376869800E+02 -0.26651857345E+03  0.47273309187E+03  0.85379325245E+03  0.65864270000E+03 0.  1.
    8880022    1    1    2    0    0 -0.25376869800E+02  0.26651857345E+03 -0.27750307132E+04  0.27921073131E+04  0.15294330000E+03 0.  0.
<mgrwt>
<rscale>  0 0.57695934E+03</rscale>
<asrwt>0</asrwt>
<pdfrwt beam="1">  1        2 0.45755370E+00 0.71097563E+03</pdfrwt>
<pdfrwt beam="2">  1       -2 0.10335407E+00 0.71097563E+03</pdfrwt>
<totfact> 0.14849702E+00</totfact>
</mgrwt>
</event>
<event>
 4    1  0.7595604E-007  0.7077928E+03  0.7818608E-02  0.9966290E-01
         -2   -1    0    0    0  501 -0.00000000000E+00  0.00000000000E+00  0.34664809169E+03  0.34664809169E+03  0.25500000000E-02 0.  1.
          2   -1    0    0  501    0  0.00000000000E+00 -0.00000000000E+00 -0.98496142942E+03  0.98496142943E+03  0.25500000000E-02 0. -1.
    8880023    1    1    2    0    0 -0.69402149180E+02 -0.24968730108E+03 -0.99896673527E+02  0.71480763725E+03  0.65864270000E+03 0.  1.
    8880022    1    1    2    0    0  0.69402149180E+02  0.24968730108E+03 -0.53841666421E+03  0.61680188387E+03  0.15294330000E+03 0.  0.
<mgrwt>
<rscale>  0 0.57153376E+03</rscale>
<asrwt>0</asrwt>
<pdfrwt beam="1">  1        2 0.15153253E+00 0.70779278E+03</pdfrwt>
<pdfrwt beam="2">  1       -2 0.53330476E-01 0.70779278E+03</pdfrwt>
<totfact> 0.86847474E+01</totfact>
</mgrwt>
</event>
<event>
 4    1  0.7595604E-007  0.6698810E+03  0.7818608E-02  0.1015748E+00
          2   -1    0    0  501    0  0.00000000000E+00  0.00000000000E+00  0.14023173539E+04  0.14023173539E+04  0.25500000000E-02 0. -1.
         -2   -1    0    0    0  501 -0.00000000000E+00 -0.00000000000E+00 -0.15435099494E+03  0.15435099496E+03  0.25500000000E-02 0.  1.
    8880023    1    1    2    0    0  0.14372370740E+02 -0.12134148352E+03  0.67414812068E+03  0.95037688079E+03  0.65864270000E+03 0.  1.
    8880022    1    1    2    0    0 -0.14372370740E+02  0.12134148352E+03  0.57381823826E+03  0.60629146806E+03  0.15294330000E+03 0.  0.
<mgrwt>
<rscale>  0 0.49252606E+03</rscale>
<asrwt>0</asrwt>
<pdfrwt beam="1">  1        2 0.21574113E+00 0.66988098E+03</pdfrwt>
<pdfrwt beam="2">  1       -2 0.23746307E-01 0.66988098E+03</pdfrwt>
<totfact> 0.23118195E+02</totfact>
</mgrwt>
</event>
<event>
 4    1  0.7595604E-007  0.9761302E+03  0.7818608E-02  0.9413475E-01
          2   -1    0    0  501    0  0.00000000000E+00  0.00000000000E+00  0.13274504803E+04  0.13274504803E+04  0.25500000000E-02 0. -1.
         -2   -1    0    0    0  501 -0.00000000000E+00 -0.00000000000E+00 -0.70754218560E+03  0.70754218560E+03  0.25500000000E-02 0.  1.
    8880023    1    1    2    0    0  0.67880164191E+03 -0.24134701636E+03  0.81663671268E+03  0.12726844770E+04  0.65864270000E+03 0. -1.
    8880022    1    1    2    0    0 -0.67880164191E+03  0.24134701636E+03 -0.19672841796E+03  0.76230818887E+03  0.15294330000E+03 0.  0.
<mgrwt>
<rscale>  0 0.90974978E+03</rscale>
<asrwt>0</asrwt>
<pdfrwt beam="1">  1        2 0.20422315E+00 0.97613025E+03</pdfrwt>
<pdfrwt beam="2">  1       -2 0.10885264E+00 0.97613025E+03</pdfrwt>
<totfact> 0.10697147E+01</totfact>
</mgrwt>
</event>
<event>
 4    1  0.7595604E-007  0.7220001E+03  0.7818608E-02  0.9915875E-01
         -2   -1    0    0    0  501 -0.00000000000E+00  0.00000000000E+00  0.86491777664E+03  0.86491777665E+03  0.25500000000E-02 0.  1.
          2   -1    0    0  501    0  0.00000000000E+00 -0.00000000000E+00 -0.14042059422E+04  0.14042059422E+04  0.25500000000E-02 0. -1.
    8880023    1    1    2    0    0 -0.88799435765E+02 -0.28211454102E+03  0.68809671353E+03  0.99737718416E+03  0.65864270000E+03 0.  0.
    8880022    1    1    2    0    0  0.88799435765E+02  0.28211454102E+03 -0.12273848791E+04  0.12717465347E+04  0.15294330000E+03 0.  0.
<mgrwt>
<rscale>  0 0.59498025E+03</rscale>
<asrwt>0</asrwt>
<pdfrwt beam="1">  1        2 0.21603168E+00 0.72200011E+03</pdfrwt>
<pdfrwt beam="2">  1       -2 0.13306427E+00 0.72200011E+03</pdfrwt>
<totfact> 0.60551976E+00</totfact>
</mgrwt>
</event>
<event>
 4    1  0.7595604E-007  0.7199300E+03  0.7818608E-02  0.9922823E-01
          2   -1    0    0  501    0  0.00000000000E+00  0.00000000000E+00  0.18513059549E+04  0.18513059549E+04  0.25500000000E-02 0. -1.
         -2   -1    0    0    0  501 -0.00000000000E+00 -0.00000000000E+00 -0.29481264212E+03  0.29481264213E+03  0.25500000000E-02 0.  1.
    8880023    1    1    2    0    0  0.16497750972E+03  0.23931455138E+03  0.19542855700E+03  0.74598361937E+03  0.65864270000E+03 0.  1.
    8880022    1    1    2    0    0 -0.16497750972E+03 -0.23931455138E+03  0.13610647558E+04  0.14001349777E+04  0.15294330000E+03 0.  0.
<mgrwt>
<rscale>  0 0.59167835E+03</rscale>
<asrwt>0</asrwt>
<pdfrwt beam="1">  1        2 0.28481630E+00 0.71993002E+03</pdfrwt>
<pdfrwt beam="2">  1       -2 0.45355791E-01 0.71993002E+03</pdfrwt>
<totfact> 0.38459096E+01</totfact>
</mgrwt>
</event>
<event>
 4    1  0.7595604E-007  0.6699622E+03  0.7818608E-02  0.1015690E+00
         -2   -1    0    0    0  501 -0.00000000000E+00  0.00000000000E+00  0.47488149127E+03  0.47488149128E+03  0.25500000000E-02 0.  1.
          2   -1    0    0  501    0  0.00000000000E+00 -0.00000000000E+00 -0.13434198733E+04  0.13434198733E+04  0.25500000000E-02 0. -1.
    8880023    1    1    2    0    0  0.12095107304E+03  0.20246996051E+02  0.22545682295E+03  0.70688053319E+03  0.65864270000E+03 0.  1.
    8880022    1    1    2    0    0 -0.12095107304E+03 -0.20246996051E+02 -0.10939952050E+04  0.11114208314E+04  0.15294330000E+03 0.  0.
<mgrwt>
<rscale>  0 0.49274540E+03</rscale>
<asrwt>0</asrwt>
<pdfrwt beam="1">  1        2 0.20667998E+00 0.66996217E+03</pdfrwt>
<pdfrwt beam="2">  1       -2 0.73058692E-01 0.66996217E+03</pdfrwt>
<totfact> 0.27203300E+01</totfact>
</mgrwt>
</event>
<event>
 4    1  0.7595604E-007  0.6988296E+03  0.7818608E-02  0.1000209E+00
         -2   -1    0    0    0  501 -0.00000000000E+00  0.00000000000E+00  0.74592249502E+02  0.74592249546E+02  0.25500000000E-02 0.  1.
          2   -1    0    0  501    0  0.00000000000E+00 -0.00000000000E+00 -0.34780606379E+04  0.34780606379E+04  0.25500000000E-02 0. -1.
    8880023    1    1    2    0    0  0.19786044151E+03 -0.12411240639E+03 -0.19218967074E+04  0.20450060645E+04  0.65864270000E+03 0.  0.
    8880022    1    1    2    0    0 -0.19786044151E+03  0.12411240639E+03 -0.14815716810E+04  0.15076468229E+04  0.15294330000E+03 0.  0.
<mgrwt>
<rscale>  0 0.55558630E+03</rscale>
<asrwt>0</asrwt>
<pdfrwt beam="1">  1        2 0.53508613E+00 0.69882963E+03</pdfrwt>
<pdfrwt beam="2">  1       -2 0.11475733E-01 0.69882963E+03</pdfrwt>
<totfact> 0.49997905E+01</totfact>
</mgrwt>
</event>
<event>
 4    1  0.7595604E-007  0.7084829E+03  0.7818608E-02  0.9963678E-01
          2   -1    0    0  501    0  0.00000000000E+00  0.00000000000E+00  0.71084362503E+03  0.71084362503E+03  0.25500000000E-02 0. -1.
         -2   -1    0    0    0  501 -0.00000000000E+00 -0.00000000000E+00 -0.44262475338E+03  0.44262475339E+03  0.25500000000E-02 0.  1.
    8880023    1    1    2    0    0 -0.17206283062E+03  0.19629612116E+03 -0.55167304466E+02  0.71062748512E+03  0.65864270000E+03 0.  1.
    8880022    1    1    2    0    0  0.17206283062E+03 -0.19629612116E+03  0.32338617611E+03  0.44284089330E+03  0.15294330000E+03 0.  0.
<mgrwt>
<rscale>  0 0.57271970E+03</rscale>
<asrwt>0</asrwt>
<pdfrwt beam="1">  1        2 0.10936056E+00 0.70848288E+03</pdfrwt>
<pdfrwt beam="2">  1       -2 0.68096116E-01 0.70848288E+03</pdfrwt>
<totfact> 0.80527483E+01</totfact>
</mgrwt>
</event>
<event>
 4    1  0.7595604E-007  0.7327901E+03  0.7818608E-02  0.9881470E-01
         -2   -1    0    0    0  501 -0.00000000000E+00  0.00000000000E+00  0.13545342924E+04  0.13545342924E+04  0.25500000000E-02 0.  1.
          2   -1    0    0  501    0  0.00000000000E+00 -0.00000000000E+00 -0.26328174237E+03  0.26328174238E+03  0.25500000000E-02 0. -1.
    8880023    1    1    2    0    0 -0.21199943486E+03  0.24130352514E+03  0.10184608236E+04  0.12546887292E+04  0.65864270000E+03 0.  1.
    8880022    1    1    2    0    0  0.21199943486E+03 -0.24130352514E+03  0.72791726417E+02  0.36312730560E+03  0.15294330000E+03 0.  0.
<mgrwt>
<rscale>  0 0.61167815E+03</rscale>
<asrwt>0</asrwt>
<pdfrwt beam="1">  1        2 0.40504884E-01 0.73279012E+03</pdfrwt>
<pdfrwt beam="2">  1       -2 0.20838989E+00 0.73279012E+03</pdfrwt>
<totfact> 0.15192815E+01</totfact>
</mgrwt>
</event>
<event>
 4    1  0.7595604E-007  0.1525169E+04  0.7818608E-02  0.8892065E-01
          2   -1    0    0  501    0  0.00000000000E+00  0.00000000000E+00  0.26014849576E+04  0.26014849576E+04  0.25500000000E-02 0. -1.
         -2   -1    0    0    0  501 -0.00000000000E+00 -0.00000000000E+00 -0.11611874935E+04  0.11611874935E+04  0.25500000000E-02 0.  1.
    8880023    1    1    2    0    0  0.13471171096E+04  0.27857865186E+03 -0.28420341596E+03  0.15514226890E+04  0.65864270000E+03 0.  0.
    8880022    1    1    2    0    0 -0.13471171096E+04 -0.27857865186E+03  0.17245008800E+04  0.22112497621E+04  0.15294330000E+03 0.  0.
<mgrwt>
<rscale>  0 0.14886070E+04</rscale>
<asrwt>0</asrwt>
<pdfrwt beam="1">  1        2 0.40022845E+00 0.15251691E+04</pdfrwt>
<pdfrwt beam="2">  1       -2 0.17864423E+00 0.15251691E+04</pdfrwt>
<totfact> 0.52855572E-01</totfact>
</mgrwt>
</event>
<event>
 4    1  0.7595604E-007  0.6791905E+03  0.7818608E-02  0.1009785E+00
          2   -1    0    0  501    0  0.00000000000E+00  0.00000000000E+00  0.13651687114E+04  0.13651687114E+04  0.25500000000E-02 0. -1.
         -2   -1    0    0    0  501 -0.00000000000E+00 -0.00000000000E+00 -0.15100985382E+03  0.15100985384E+03  0.25500000000E-02 0.  1.
    8880023    1    1    2    0    0  0.60173383160E+02 -0.15449494344E+03  0.96537190616E+03  0.11803569998E+04  0.65864270000E+03 0.  1.
    8880022    1    1    2    0    0 -0.60173383160E+02  0.15449494344E+03  0.24878695145E+03  0.33582156544E+03  0.15294330000E+03 0. -1.
<mgrwt>
<rscale>  0 0.51560052E+03</rscale>
<asrwt>0</asrwt>
<pdfrwt beam="1">  1        2 0.21002595E+00 0.67919050E+03</pdfrwt>
<pdfrwt beam="2">  1       -2 0.23232285E-01 0.67919050E+03</pdfrwt>
<totfact> 0.25211620E+02</totfact>
</mgrwt>
</event>
<event>
 4    1  0.7595604E-007  0.9070898E+03  0.7818608E-02  0.9514745E-01
          2   -1    0    0  501    0  0.00000000000E+00  0.00000000000E+00  0.24510582936E+04  0.24510582936E+04  0.25500000000E-02 0. -1.
         -2   -1    0    0    0  501 -0.00000000000E+00 -0.00000000000E+00 -0.27820559768E+03  0.27820559769E+03  0.25500000000E-02 0.  1.
    8880023    1    1    2    0    0  0.62354846039E+03 -0.13748954127E+02  0.78326378772E+03  0.11984632175E+04  0.65864270000E+03 0.  0.
    8880022    1    1    2    0    0 -0.62354846039E+03  0.13748954127E+02  0.13895889082E+04  0.15308006738E+04  0.15294330000E+03 0.  0.
<mgrwt>
<rscale>  0 0.83205431E+03</rscale>
<asrwt>0</asrwt>
<pdfrwt beam="1">  1        2 0.37708589E+00 0.90708981E+03</pdfrwt>
<pdfrwt beam="2">  1       -2 0.42800861E-01 0.90708981E+03</pdfrwt>
<totfact> 0.19658301E+01</totfact>
</mgrwt>
</event>
<event>
 4    1  0.7595604E-007  0.8403298E+03  0.7818608E-02  0.9629559E-01
          2   -1    0    0  501    0  0.00000000000E+00  0.00000000000E+00  0.16411726780E+04  0.16411726780E+04  0.25500000000E-02 0. -1.
         -2   -1    0    0    0  501 -0.00000000000E+00 -0.00000000000E+00 -0.29735971041E+03  0.29735971043E+03  0.25500000000E-02 0.  1.
    8880023    1    1    2    0    0  0.20309637223E+03  0.48072425169E+03  0.68415948825E+03  0.10836181773E+04  0.65864270000E+03 0.  1.
    8880022    1    1    2    0    0 -0.20309637223E+03 -0.48072425169E+03  0.65965347938E+03  0.85491421116E+03  0.15294330000E+03 0.  0.
<mgrwt>
<rscale>  0 0.75370304E+03</rscale>
<asrwt>0</asrwt>
<pdfrwt beam="1">  1        2 0.25248811E+00 0.84032979E+03</pdfrwt>
<pdfrwt beam="2">  1       -2 0.45747647E-01 0.84032979E+03</pdfrwt>
<totfact> 0.48610444E+01</totfact>
</mgrwt>
</event>
<event>
 4    1  0.7595604E-007  0.8102278E+03  0.7818608E-02  0.9689103E-01
         -2   -1    0    0    0  501 -0.00000000000E+00  0.00000000000E+00  0.61540808322E+03  0.61540808322E+03  0.25500000000E-02 0.  1.
          2   -1    0    0  501    0  0.00000000000E+00 -0.00000000000E+00 -0.18830284363E+04  0.18830284363E+04  0.25500000000E-02 0. -1.
    8880023    1    1    2    0    0  0.47148012076E+03 -0.19114446048E+02  0.29246061687E+03  0.86139554503E+03  0.65864270000E+03 0.  1.
    8880022    1    1    2    0    0 -0.47148012076E+03  0.19114446048E+02 -0.15600809699E+04  0.16370409744E+04  0.15294330000E+03 0.  0.
<mgrwt>
<rscale>  0 0.71669337E+03</rscale>
<asrwt>0</asrwt>
<pdfrwt beam="1">  1        2 0.28969668E+00 0.81022779E+03</pdfrwt>
<pdfrwt beam="2">  1       -2 0.94678167E-01 0.81022779E+03</pdfrwt>
<totfact> 0.74634546E+00</totfact>
</mgrwt>
</event>
