<event>
 4    1  0.8287789E-007  0.7155539E+03  0.7818608E-02  0.9937927E-01
          2   -1    0    0  501    0  0.00000000000E+00  0.00000000000E+00  0.14066237487E+04  0.14066237487E+04  0.25500000000E-02 0. -1.
         -2   -1    0    0    0  501 -0.00000000000E+00 -0.00000000000E+00 -0.32239734237E+03  0.32239734238E+03  0.25500000000E-02 0.  1.
    8880023    1    1    2    0    0 -0.19250513598E+03 -0.20285206335E+03  0.11939206489E+04  0.13919281264E+04  0.65864270000E+03 0. -1.
    8880022    1    1    2    0    0  0.19250513598E+03  0.20285206335E+03 -0.10969424254E+03  0.33709296469E+03  0.15294330000E+03 0.  0.
<mgrwt>
<rscale>  0 0.58457853E+03</rscale>
<asrwt>0</asrwt>
<pdfrwt beam="1">  1        2 0.21640365E+00 0.71555391E+03</pdfrwt>
<pdfrwt beam="2">  1       -2 0.49599592E-01 0.71555391E+03</pdfrwt>
<totfact> 0.56479985E+01</totfact>
</mgrwt>
</event>
<event>
 4    1  0.8879751E-007  0.1066495E+04  0.7818608E-02  0.9299310E-01
         -2   -1    0    0    0  501 -0.00000000000E+00  0.00000000000E+00  0.22289009128E+04  0.22289009128E+04  0.25500000000E-02 0.  1.
          2   -1    0    0  501    0  0.00000000000E+00 -0.00000000000E+00 -0.14257153358E+04  0.14257153358E+04  0.25500000000E-02 0. -1.
    8880023    1    1    2    0    0 -0.22826927724E+03  0.80715270422E+03 -0.11226529632E+04  0.15484709338E+04  0.65864270000E+03 0.  0.
    8880022    1    1    2    0    0  0.22826927724E+03 -0.80715270422E+03  0.19258385402E+04  0.21061453147E+04  0.15294330000E+03 0.  0.
<mgrwt>
<rscale>  0 0.10084645E+04</rscale>
<asrwt>0</asrwt>
<pdfrwt beam="1">  1        2 0.21934082E+00 0.10664955E+04</pdfrwt>
<pdfrwt beam="2">  1       -2 0.34290783E+00 0.10664955E+04</pdfrwt>
<totfact> 0.24118029E-01</totfact>
</mgrwt>
</event>
<event>
 4    1  0.8287789E-007  0.1032360E+04  0.7818608E-02  0.9340394E-01
         -2   -1    0    0    0  501 -0.00000000000E+00  0.00000000000E+00  0.42570766229E+03  0.42570766230E+03  0.25500000000E-02 0.  1.
          2   -1    0    0  501    0  0.00000000000E+00 -0.00000000000E+00 -0.33252629086E+04  0.33252629086E+04  0.25500000000E-02 0. -1.
    8880023    1    1    2    0    0  0.47093837516E+03 -0.64044750622E+03 -0.27370702029E+04  0.29252896375E+04  0.65864270000E+03 0.  0.
    8880022    1    1    2    0    0 -0.47093837516E+03  0.64044750622E+03 -0.16248504341E+03  0.82568093339E+03  0.15294330000E+03 0.  0.
<mgrwt>
<rscale>  0 0.97147625E+03</rscale>
<asrwt>0</asrwt>
<pdfrwt beam="1">  1        2 0.51157889E+00 0.10323595E+04</pdfrwt>
<pdfrwt beam="2">  1       -2 0.65493489E-01 0.10323595E+04</pdfrwt>
<totfact> 0.23605282E+00</totfact>
</mgrwt>
</event>
<event>
 4    1  0.8287789E-007  0.6697846E+03  0.7818608E-02  0.1015818E+00
         -2   -1    0    0    0  501 -0.00000000000E+00  0.00000000000E+00  0.31552194987E+03  0.31552194988E+03  0.25500000000E-02 0.  1.
          2   -1    0    0  501    0  0.00000000000E+00 -0.00000000000E+00 -0.10943383735E+04  0.10943383735E+04  0.25500000000E-02 0. -1.
    8880023    1    1    2    0    0 -0.21127016569E+02  0.11981191383E+03 -0.94159809511E+03  0.11555165185E+04  0.65864270000E+03 0. -1.
    8880022    1    1    2    0    0  0.21127016569E+02 -0.11981191383E+03  0.16278167146E+03  0.25434380492E+03  0.15294330000E+03 0.  0.
<mgrwt>
<rscale>  0 0.49226529E+03</rscale>
<asrwt>0</asrwt>
<pdfrwt beam="1">  1        2 0.16835975E+00 0.66978463E+03</pdfrwt>
<pdfrwt beam="2">  1       -2 0.48541839E-01 0.66978463E+03</pdfrwt>
<totfact> 0.90177648E+01</totfact>
</mgrwt>
</event>
<event>
 4    1  0.8287789E-007  0.1150417E+04  0.7818608E-02  0.9206895E-01
          2   -1    0    0  501    0  0.00000000000E+00  0.00000000000E+00  0.27853339054E+04  0.27853339054E+04  0.25500000000E-02 0. -1.
         -2   -1    0    0    0  501 -0.00000000000E+00 -0.00000000000E+00 -0.64535962745E+03  0.64535962746E+03  0.25500000000E-02 0.  1.
    8880023    1    1    2    0    0  0.66825015601E+03 -0.66565133936E+03  0.72041604575E+02  0.11526708878E+04  0.65864270000E+03 0.  1.
    8880022    1    1    2    0    0 -0.66825015601E+03  0.66565133936E+03  0.20679326734E+04  0.22780226450E+04  0.15294330000E+03 0.  0.
<mgrwt>
<rscale>  0 0.10982543E+04</rscale>
<asrwt>0</asrwt>
<pdfrwt beam="1">  1        2 0.42851291E+00 0.11504174E+04</pdfrwt>
<pdfrwt beam="2">  1       -2 0.99286095E-01 0.11504174E+04</pdfrwt>
<totfact> 0.19699521E+00</totfact>
</mgrwt>
</event>
<event>
 4    1  0.8287789E-007  0.7223828E+03  0.7818608E-02  0.9914604E-01
          2   -1    0    0  501    0  0.00000000000E+00  0.00000000000E+00  0.58627647559E+03  0.58627647560E+03  0.25500000000E-02 0. -1.
         -2   -1    0    0    0  501 -0.00000000000E+00 -0.00000000000E+00 -0.75553322203E+03  0.75553322204E+03  0.25500000000E-02 0.  1.
    8880023    1    1    2    0    0 -0.17388154932E+03  0.24039943781E+03  0.28630359695E+03  0.77704995900E+03  0.65864270000E+03 0. -1.
    8880022    1    1    2    0    0  0.17388154932E+03 -0.24039943781E+03 -0.45556034339E+03  0.56475973863E+03  0.15294330000E+03 0.  0.
<mgrwt>
<rscale>  0 0.59558688E+03</rscale>
<asrwt>0</asrwt>
<pdfrwt beam="1">  1        2 0.90196380E-01 0.72238279E+03</pdfrwt>
<pdfrwt beam="2">  1       -2 0.11623588E+00 0.72238279E+03</pdfrwt>
<totfact> 0.29737701E+01</totfact>
</mgrwt>
</event>
<event>
 4    1  0.8287789E-007  0.7842228E+03  0.7818608E-02  0.9746010E-01
          2   -1    0    0  501    0  0.00000000000E+00  0.00000000000E+00  0.22584015057E+04  0.22584015057E+04  0.25500000000E-02 0. -1.
         -2   -1    0    0    0  501 -0.00000000000E+00 -0.00000000000E+00 -0.17285377941E+03  0.17285377943E+03  0.25500000000E-02 0.  1.
    8880023    1    1    2    0    0  0.27021029365E+03 -0.32890961831E+03  0.14858605428E+04  0.16801151445E+04  0.65864270000E+03 0.  0.
    8880022    1    1    2    0    0 -0.27021029365E+03  0.32890961831E+03  0.59968718340E+03  0.75114014056E+03  0.15294330000E+03 0. -1.
<mgrwt>
<rscale>  0 0.68342252E+03</rscale>
<asrwt>0</asrwt>
<pdfrwt beam="1">  1        2 0.34744636E+00 0.78422277E+03</pdfrwt>
<pdfrwt beam="2">  1       -2 0.26592891E-01 0.78422277E+03</pdfrwt>
<totfact> 0.63130639E+01</totfact>
</mgrwt>
</event>
<event>
 4    1  0.8287789E-007  0.7284636E+03  0.7818608E-02  0.9894924E-01
         -2   -1    0    0    0  501 -0.00000000000E+00  0.00000000000E+00  0.24439427855E+03  0.24439427857E+03  0.25500000000E-02 0.  1.
          2   -1    0    0  501    0  0.00000000000E+00 -0.00000000000E+00 -0.20132751782E+04  0.20132751782E+04  0.25500000000E-02 0. -1.
    8880023    1    1    2    0    0  0.21026968351E+03  0.22942469608E+03 -0.17666061228E+04  0.19109046105E+04  0.65864270000E+03 0.  0.
    8880022    1    1    2    0    0 -0.21026968351E+03 -0.22942469608E+03 -0.22747768094E+01  0.34676484626E+03  0.15294330000E+03 0.  0.
<mgrwt>
<rscale>  0 0.60507934E+03</rscale>
<asrwt>0</asrwt>
<pdfrwt beam="1">  1        2 0.30973463E+00 0.72846361E+03</pdfrwt>
<pdfrwt beam="2">  1       -2 0.37599121E-01 0.72846361E+03</pdfrwt>
<totfact> 0.45296708E+01</totfact>
</mgrwt>
</event>
<event>
 4    1  0.8287789E-007  0.1003393E+04  0.7818608E-02  0.9377132E-01
         -2   -1    0    0    0  501 -0.00000000000E+00  0.00000000000E+00  0.41459588777E+03  0.41459588778E+03  0.25500000000E-02 0.  1.
          2   -1    0    0  501    0  0.00000000000E+00 -0.00000000000E+00 -0.23826156235E+04  0.23826156235E+04  0.25500000000E-02 0. -1.
    8880023    1    1    2    0    0  0.37675725824E+03 -0.65653782535E+03 -0.46180964524E+03  0.11045661150E+04  0.65864270000E+03 0.  0.
    8880022    1    1    2    0    0 -0.37675725824E+03  0.65653782535E+03 -0.15062100905E+04  0.16926453962E+04  0.15294330000E+03 0.  0.
<mgrwt>
<rscale>  0 0.93981798E+03</rscale>
<asrwt>0</asrwt>
<pdfrwt beam="1">  1        2 0.36655624E+00 0.10033933E+04</pdfrwt>
<pdfrwt beam="2">  1       -2 0.63783984E-01 0.10033933E+04</pdfrwt>
<totfact> 0.93308312E+00</totfact>
</mgrwt>
</event>
<event>
 4    1  0.8287789E-007  0.6746355E+03  0.7818608E-02  0.1012537E+00
         -2   -1    0    0    0  501 -0.00000000000E+00  0.00000000000E+00  0.26209998668E+03  0.26209998669E+03  0.25500000000E-02 0.  1.
          2   -1    0    0  501    0  0.00000000000E+00 -0.00000000000E+00 -0.75891398335E+03  0.75891398335E+03  0.25500000000E-02 0. -1.
    8880023    1    1    2    0    0  0.14371944194E+03  0.25838349848E+02 -0.42662278504E+03  0.79821056451E+03  0.65864270000E+03 0. -1.
    8880022    1    1    2    0    0 -0.14371944194E+03 -0.25838349848E+02 -0.70191211629E+02  0.22280340554E+03  0.15294330000E+03 0.  1.
<mgrwt>
<rscale>  0 0.50478683E+03</rscale>
<asrwt>0</asrwt>
<pdfrwt beam="1">  1        2 0.11675600E+00 0.67463553E+03</pdfrwt>
<pdfrwt beam="2">  1       -2 0.40323075E-01 0.67463553E+03</pdfrwt>
<totfact> 0.21776258E+02</totfact>
</mgrwt>
</event>
<event>
 4    1  0.8287789E-007  0.1087425E+04  0.7818608E-02  0.9275188E-01
         -2   -1    0    0    0  501 -0.00000000000E+00  0.00000000000E+00  0.61598310301E+03  0.61598310302E+03  0.25500000000E-02 0.  1.
          2   -1    0    0  501    0  0.00000000000E+00 -0.00000000000E+00 -0.22633946850E+04  0.22633946850E+04  0.25500000000E-02 0. -1.
    8880023    1    1    2    0    0  0.85158314123E+03 -0.15325964017E+03 -0.16787136151E+04  0.20001429878E+04  0.65864270000E+03 0. -1.
    8880022    1    1    2    0    0 -0.85158314123E+03  0.15325964017E+03  0.31302033072E+02  0.87923480028E+03  0.15294330000E+03 0.  0.
<mgrwt>
<rscale>  0 0.10309955E+04</rscale>
<asrwt>0</asrwt>
<pdfrwt beam="1">  1        2 0.34821456E+00 0.10874247E+04</pdfrwt>
<pdfrwt beam="2">  1       -2 0.94766632E-01 0.10874247E+04</pdfrwt>
<totfact> 0.44312196E+00</totfact>
</mgrwt>
</event>
<event>
 4    1  0.8287789E-007  0.1155237E+04  0.7818608E-02  0.9201913E-01
          2   -1    0    0  501    0  0.00000000000E+00  0.00000000000E+00  0.12484353554E+04  0.12484353554E+04  0.25500000000E-02 0. -1.
         -2   -1    0    0    0  501 -0.00000000000E+00 -0.00000000000E+00 -0.14833292319E+04  0.14833292319E+04  0.25500000000E-02 0.  1.
    8880023    1    1    2    0    0  0.14000959532E+03 -0.93870055659E+03 -0.98045133372E+03  0.15152083836E+04  0.65864270000E+03 0.  0.
    8880022    1    1    2    0    0 -0.14000959532E+03  0.93870055659E+03  0.74555745717E+03  0.12165562037E+04  0.15294330000E+03 0.  0.
<mgrwt>
<rscale>  0 0.11033701E+04</rscale>
<asrwt>0</asrwt>
<pdfrwt beam="1">  1        2 0.19206698E+00 0.11552366E+04</pdfrwt>
<pdfrwt beam="2">  1       -2 0.22820450E+00 0.11552366E+04</pdfrwt>
<totfact> 0.15181822E+00</totfact>
</mgrwt>
</event>
<event>
 4    1  0.8287789E-007  0.6881129E+03  0.7818608E-02  0.1005063E+00
         -2   -1    0    0    0  501 -0.00000000000E+00  0.00000000000E+00  0.42540046224E+03  0.42540046225E+03  0.25500000000E-02 0.  1.
          2   -1    0    0  501    0  0.00000000000E+00 -0.00000000000E+00 -0.99919339591E+03  0.99919339591E+03  0.25500000000E-02 0. -1.
    8880023    1    1    2    0    0  0.19865102148E+03  0.15062142926E+02 -0.82164816257E+03  0.10717299127E+04  0.65864270000E+03 0. -1.
    8880022    1    1    2    0    0 -0.19865102148E+03 -0.15062142926E+02  0.24785522891E+03  0.35286394545E+03  0.15294330000E+03 0.  0.
<mgrwt>
<rscale>  0 0.53484983E+03</rscale>
<asrwt>0</asrwt>
<pdfrwt beam="1">  1        2 0.15372206E+00 0.68811286E+03</pdfrwt>
<pdfrwt beam="2">  1       -2 0.65446225E-01 0.68811286E+03</pdfrwt>
<totfact> 0.55382633E+01</totfact>
</mgrwt>
</event>
<event>
 4    1  0.8287789E-007  0.6976539E+03  0.7818608E-02  0.1000708E+00
          2   -1    0    0  501    0  0.00000000000E+00  0.00000000000E+00  0.12019630001E+04  0.12019630001E+04  0.25500000000E-02 0. -1.
         -2   -1    0    0    0  501 -0.00000000000E+00 -0.00000000000E+00 -0.79507416110E+03  0.79507416111E+03  0.25500000000E-02 0.  1.
    8880023    1    1    2    0    0 -0.22984787551E+03  0.89869937758E+01  0.10707628876E+04  0.12779883331E+04  0.65864270000E+03 0. -1.
    8880022    1    1    2    0    0  0.22984787551E+03 -0.89869937758E+01 -0.66387404852E+03  0.71904882814E+03  0.15294330000E+03 0.  0.
<mgrwt>
<rscale>  0 0.55341045E+03</rscale>
<asrwt>0</asrwt>
<pdfrwt beam="1">  1        2 0.18491739E+00 0.69765394E+03</pdfrwt>
<pdfrwt beam="2">  1       -2 0.12231910E+00 0.69765394E+03</pdfrwt>
<totfact> 0.98205182E+00</totfact>
</mgrwt>
</event>
<event>
 4    1  0.8287789E-007  0.8874034E+03  0.7818608E-02  0.9546563E-01
          2   -1    0    0  501    0  0.00000000000E+00  0.00000000000E+00  0.15738117827E+04  0.15738117827E+04  0.25500000000E-02 0. -1.
         -2   -1    0    0    0  501 -0.00000000000E+00 -0.00000000000E+00 -0.11431574153E+04  0.11431574153E+04  0.25500000000E-02 0.  1.
    8880023    1    1    2    0    0  0.17067870065E+03 -0.56968714446E+03  0.13475186476E+04  0.16134718384E+04  0.65864270000E+03 0.  0.
    8880022    1    1    2    0    0 -0.17067870065E+03  0.56968714446E+03 -0.91686428023E+03  0.11034973597E+04  0.15294330000E+03 0.  0.
<mgrwt>
<rscale>  0 0.80936244E+03</rscale>
<asrwt>0</asrwt>
<pdfrwt beam="1">  1        2 0.24212489E+00 0.88740344E+03</pdfrwt>
<pdfrwt beam="2">  1       -2 0.17587037E+00 0.88740344E+03</pdfrwt>
<totfact> 0.22536825E+00</totfact>
</mgrwt>
</event>
<event>
 4    1  0.8287789E-007  0.8923524E+03  0.7818608E-02  0.9538422E-01
         -2   -1    0    0    0  501 -0.00000000000E+00  0.00000000000E+00  0.11716999043E+04  0.11716999043E+04  0.25500000000E-02 0.  1.
          2   -1    0    0  501    0  0.00000000000E+00 -0.00000000000E+00 -0.10826124469E+04  0.10826124469E+04  0.25500000000E-02 0. -1.
    8880023    1    1    2    0    0 -0.39154936549E+03 -0.45735297635E+03 -0.78057834742E+03  0.11855780925E+04  0.65864270000E+03 0.  0.
    8880022    1    1    2    0    0  0.39154936549E+03  0.45735297635E+03  0.86966580489E+03  0.10687342587E+04  0.15294330000E+03 0.  0.
<mgrwt>
<rscale>  0 0.81509464E+03</rscale>
<asrwt>0</asrwt>
<pdfrwt beam="1">  1        2 0.16655576E+00 0.89235243E+03</pdfrwt>
<pdfrwt beam="2">  1       -2 0.18026152E+00 0.89235243E+03</pdfrwt>
<totfact> 0.40469997E+00</totfact>
</mgrwt>
</event>
<event>
 4    1  0.8287789E-007  0.6938107E+03  0.7818608E-02  0.1002392E+00
         -2   -1    0    0    0  501 -0.00000000000E+00  0.00000000000E+00  0.12897635235E+03  0.12897635238E+03  0.25500000000E-02 0.  1.
          2   -1    0    0  501    0  0.00000000000E+00 -0.00000000000E+00 -0.28160397693E+04  0.28160397693E+04  0.25500000000E-02 0. -1.
    8880023    1    1    2    0    0 -0.11628267069E+03  0.18450313463E+03 -0.25553367418E+04  0.26478517965E+04  0.65864270000E+03 0.  0.
    8880022    1    1    2    0    0  0.11628267069E+03 -0.18450313463E+03 -0.13172667520E+03  0.29716432519E+03  0.15294330000E+03 0.  0.
<mgrwt>
<rscale>  0 0.54613926E+03</rscale>
<asrwt>0</asrwt>
<pdfrwt beam="1">  1        2 0.43323684E+00 0.69381069E+03</pdfrwt>
<pdfrwt beam="2">  1       -2 0.19842518E-01 0.69381069E+03</pdfrwt>
<totfact> 0.51772537E+01</totfact>
</mgrwt>
</event>
<event>
 4    1  0.8287789E-007  0.8317982E+03  0.7818608E-02  0.9645844E-01
         -2   -1    0    0    0  501 -0.00000000000E+00  0.00000000000E+00  0.84077469092E+03  0.84077469093E+03  0.25500000000E-02 0.  1.
          2   -1    0    0  501    0  0.00000000000E+00 -0.00000000000E+00 -0.89080224999E+03  0.89080225000E+03  0.25500000000E-02 0. -1.
    8880023    1    1    2    0    0 -0.22872284805E+03 -0.45361212824E+03 -0.55434185137E+03  0.99959151584E+03  0.65864270000E+03 0. -1.
    8880022    1    1    2    0    0  0.22872284805E+03  0.45361212824E+03  0.50431429230E+03  0.73198542508E+03  0.15294330000E+03 0.  0.
<mgrwt>
<rscale>  0 0.74334849E+03</rscale>
<asrwt>0</asrwt>
<pdfrwt beam="1">  1        2 0.13704650E+00 0.83179824E+03</pdfrwt>
<pdfrwt beam="2">  1       -2 0.12934995E+00 0.83179824E+03</pdfrwt>
<totfact> 0.13180843E+01</totfact>
</mgrwt>
</event>
<event>
 4    1  0.8287789E-007  0.7960746E+03  0.7818608E-02  0.9719349E-01
          2   -1    0    0  501    0  0.00000000000E+00  0.00000000000E+00  0.20597669367E+04  0.20597669367E+04  0.25500000000E-02 0. -1.
         -2   -1    0    0    0  501 -0.00000000000E+00 -0.00000000000E+00 -0.21960977399E+03  0.21960977400E+03  0.25500000000E-02 0.  1.
    8880023    1    1    2    0    0 -0.30062955230E+03 -0.33097807971E+03  0.14965089056E+04  0.16950733694E+04  0.65864270000E+03 0. -1.
    8880022    1    1    2    0    0  0.30062955230E+03  0.33097807971E+03  0.34364825708E+03  0.58430334123E+03  0.15294330000E+03 0.  1.
<mgrwt>
<rscale>  0 0.69876378E+03</rscale>
<asrwt>0</asrwt>
<pdfrwt beam="1">  1        2 0.31688723E+00 0.79607463E+03</pdfrwt>
<pdfrwt beam="2">  1       -2 0.33786118E-01 0.79607463E+03</pdfrwt>
<totfact> 0.51987187E+01</totfact>
</mgrwt>
</event>
<event>
 4    1  0.8287789E-007  0.7685125E+03  0.7818608E-02  0.9783548E-01
          2   -1    0    0  501    0  0.00000000000E+00  0.00000000000E+00  0.16078396488E+04  0.16078396488E+04  0.25500000000E-02 0. -1.
         -2   -1    0    0    0  501 -0.00000000000E+00 -0.00000000000E+00 -0.54565190938E+03  0.54565190939E+03  0.25500000000E-02 0.  1.
    8880023    1    1    2    0    0 -0.40071793458E+02  0.39394855035E+03  0.14092515029E+04  0.16051794958E+04  0.65864270000E+03 0.  0.
    8880022    1    1    2    0    0  0.40071793458E+02 -0.39394855035E+03 -0.34706376343E+03  0.54831206247E+03  0.15294330000E+03 0.  0.
<mgrwt>
<rscale>  0 0.66252975E+03</rscale>
<asrwt>0</asrwt>
<pdfrwt beam="1">  1        2 0.24735994E+00 0.76851247E+03</pdfrwt>
<pdfrwt beam="2">  1       -2 0.83946449E-01 0.76851247E+03</pdfrwt>
<totfact> 0.14012420E+01</totfact>
</mgrwt>
</event>
<event>
 4    1  0.8287789E-007  0.6756968E+03  0.7818608E-02  0.1011871E+00
          2   -1    0    0  501    0  0.00000000000E+00  0.00000000000E+00  0.99837368300E+03  0.99837368300E+03  0.25500000000E-02 0. -1.
         -2   -1    0    0    0  501 -0.00000000000E+00 -0.00000000000E+00 -0.28883898659E+03  0.28883898660E+03  0.25500000000E-02 0.  1.
    8880023    1    1    2    0    0  0.14214441028E+03  0.50506465093E+02  0.80597134940E+03  0.10517394918E+04  0.65864270000E+03 0. -1.
    8880022    1    1    2    0    0 -0.14214441028E+03 -0.50506465093E+02 -0.96436652992E+02  0.23547317776E+03  0.15294330000E+03 0.  0.
<mgrwt>
<rscale>  0 0.50737903E+03</rscale>
<asrwt>0</asrwt>
<pdfrwt beam="1">  1        2 0.15359595E+00 0.67569678E+03</pdfrwt>
<pdfrwt beam="2">  1       -2 0.44436768E-01 0.67569678E+03</pdfrwt>
<totfact> 0.12346280E+02</totfact>
</mgrwt>
</event>
<event>
 4    1  0.8287789E-007  0.6871709E+03  0.7818608E-02  0.1005527E+00
         -2   -1    0    0    0  501 -0.00000000000E+00  0.00000000000E+00  0.10936119425E+04  0.10936119425E+04  0.25500000000E-02 0.  1.
          2   -1    0    0  501    0  0.00000000000E+00 -0.00000000000E+00 -0.57628773255E+03  0.57628773256E+03  0.25500000000E-02 0. -1.
    8880023    1    1    2    0    0  0.74278073362E+02  0.18131866573E+03 -0.34751686835E+03  0.77004666792E+03  0.65864270000E+03 0. -1.
    8880022    1    1    2    0    0 -0.74278073362E+02 -0.18131866573E+03  0.86484107825E+03  0.89985300709E+03  0.15294330000E+03 0.  0.
<mgrwt>
<rscale>  0 0.53291663E+03</rscale>
<asrwt>0</asrwt>
<pdfrwt beam="1">  1        2 0.88659651E-01 0.68717094E+03</pdfrwt>
<pdfrwt beam="2">  1       -2 0.16824799E+00 0.68717094E+03</pdfrwt>
<totfact> 0.11681396E+01</totfact>
</mgrwt>
</event>
<event>
 4    1  0.8287789E-007  0.1068940E+04  0.7818608E-02  0.9296452E-01
          2   -1    0    0  501    0  0.00000000000E+00  0.00000000000E+00  0.26469762978E+04  0.26469762978E+04  0.25500000000E-02 0. -1.
         -2   -1    0    0    0  501 -0.00000000000E+00 -0.00000000000E+00 -0.45820184032E+03  0.45820184032E+03  0.25500000000E-02 0.  1.
    8880023    1    1    2    0    0 -0.37170804282E+03  0.75541776863E+03  0.19384081082E+04  0.22136077056E+04  0.65864270000E+03 0.  0.
    8880022    1    1    2    0    0  0.37170804282E+03 -0.75541776863E+03  0.25036634932E+03  0.89157043252E+03  0.15294330000E+03 0.  0.
<mgrwt>
<rscale>  0 0.10111017E+04</rscale>
<asrwt>0</asrwt>
<pdfrwt beam="1">  1        2 0.40722712E+00 0.10689402E+04</pdfrwt>
<pdfrwt beam="2">  1       -2 0.70492591E-01 0.10689402E+04</pdfrwt>
<totfact> 0.52525269E+00</totfact>
</mgrwt>
</event>
<event>
 4    1  0.8287789E-007  0.7593294E+03  0.7818608E-02  0.9806847E-01
         -2   -1    0    0    0  501 -0.00000000000E+00  0.00000000000E+00  0.95004519616E+03  0.95004519616E+03  0.25500000000E-02 0.  1.
          2   -1    0    0  501    0  0.00000000000E+00 -0.00000000000E+00 -0.35958923637E+03  0.35958923638E+03  0.25500000000E-02 0. -1.
    8880023    1    1    2    0    0 -0.27314285185E+03 -0.26108216312E+03  0.34723912853E+03  0.83495876070E+03  0.65864270000E+03 0.  0.
    8880022    1    1    2    0    0  0.27314285185E+03  0.26108216312E+03  0.24321683125E+03  0.47467567184E+03  0.15294330000E+03 0. -1.
<mgrwt>
<rscale>  0 0.64996400E+03</rscale>
<asrwt>0</asrwt>
<pdfrwt beam="1">  1        2 0.55321421E-01 0.75932939E+03</pdfrwt>
<pdfrwt beam="2">  1       -2 0.14616080E+00 0.75932939E+03</pdfrwt>
<totfact> 0.29097882E+01</totfact>
</mgrwt>
</event>
<event>
 4    1  0.8287789E-007  0.1161620E+04  0.7818608E-02  0.9195364E-01
         -2   -1    0    0    0  501 -0.00000000000E+00  0.00000000000E+00  0.15908518797E+04  0.15908518797E+04  0.25500000000E-02 0.  1.
          2   -1    0    0  501    0  0.00000000000E+00 -0.00000000000E+00 -0.18122276681E+04  0.18122276681E+04  0.25500000000E-02 0. -1.
    8880023    1    1    2    0    0 -0.84394616162E+03  0.45089412092E+03 -0.14374616763E+04  0.18481495906E+04  0.65864270000E+03 0.  0.
    8880022    1    1    2    0    0  0.84394616162E+03 -0.45089412092E+03  0.12160858879E+04  0.15549299572E+04  0.15294330000E+03 0.  0.
<mgrwt>
<rscale>  0 0.11101404E+04</rscale>
<asrwt>0</asrwt>
<pdfrwt beam="1">  1        2 0.27880426E+00 0.11616199E+04</pdfrwt>
<pdfrwt beam="2">  1       -2 0.24474644E+00 0.11616199E+04</pdfrwt>
<totfact> 0.57453058E-01</totfact>
</mgrwt>
</event>
<event>
 4    1  0.8287789E-007  0.1101237E+04  0.7818608E-02  0.9259680E-01
          2   -1    0    0  501    0  0.00000000000E+00  0.00000000000E+00  0.32176106999E+04  0.32176106999E+04  0.25500000000E-02 0. -1.
         -2   -1    0    0    0  501 -0.00000000000E+00 -0.00000000000E+00 -0.81120999832E+03  0.81120999833E+03  0.25500000000E-02 0.  1.
    8880023    1    1    2    0    0  0.76101331375E+03  0.44695838392E+03  0.28309410114E+04  0.30375895504E+04  0.65864270000E+03 0.  0.
    8880022    1    1    2    0    0 -0.76101331375E+03 -0.44695838392E+03 -0.42454030982E+03  0.99123114779E+03  0.15294330000E+03 0.  0.
<mgrwt>
<rscale>  0 0.10458106E+04</rscale>
<asrwt>0</asrwt>
<pdfrwt beam="1">  1        2 0.49501704E+00 0.11012372E+04</pdfrwt>
<pdfrwt beam="2">  1       -2 0.12480154E+00 0.11012372E+04</pdfrwt>
<totfact> 0.61172325E-01</totfact>
</mgrwt>
</event>
<event>
 4    1  0.8287789E-007  0.8958230E+03  0.7818608E-02  0.9532771E-01
         -2   -1    0    0    0  501 -0.00000000000E+00  0.00000000000E+00  0.38179487049E+03  0.38179487050E+03  0.25500000000E-02 0.  1.
          2   -1    0    0  501    0  0.00000000000E+00 -0.00000000000E+00 -0.20819599348E+04  0.20819599348E+04  0.25500000000E-02 0. -1.
    8880023    1    1    2    0    0 -0.60719657885E+03  0.97155450145E+00 -0.15942504664E+04  0.18286971824E+04  0.65864270000E+03 0. -1.
    8880022    1    1    2    0    0  0.60719657885E+03 -0.97155450145E+00 -0.10591459793E+03  0.63505762286E+03  0.15294330000E+03 0.  1.
<mgrwt>
<rscale>  0 0.81910302E+03</rscale>
<asrwt>0</asrwt>
<pdfrwt beam="1">  1        2 0.32030152E+00 0.89582299E+03</pdfrwt>
<pdfrwt beam="2">  1       -2 0.58737673E-01 0.89582299E+03</pdfrwt>
<totfact> 0.16563512E+01</totfact>
</mgrwt>
</event>
<event>
 4    1  0.8287789E-007  0.1588802E+04  0.7818608E-02  0.8849348E-01
         -2   -1    0    0    0  501 -0.00000000000E+00  0.00000000000E+00  0.15712828630E+04  0.15712828630E+04  0.25500000000E-02 0.  1.
          2   -1    0    0  501    0  0.00000000000E+00 -0.00000000000E+00 -0.19795030335E+04  0.19795030335E+04  0.25500000000E-02 0. -1.
    8880023    1    1    2    0    0 -0.11911824075E+03  0.14409350651E+04 -0.11082305092E+04  0.19371288251E+04  0.65864270000E+03 0.  0.
    8880022    1    1    2    0    0  0.11911824075E+03 -0.14409350651E+04  0.70001033858E+03  0.16136570715E+04  0.15294330000E+03 0.  0.
<mgrwt>
<rscale>  0 0.15539510E+04</rscale>
<asrwt>0</asrwt>
<pdfrwt beam="1">  1        2 0.30453893E+00 0.15888024E+04</pdfrwt>
<pdfrwt beam="2">  1       -2 0.24173583E+00 0.15888024E+04</pdfrwt>
<totfact> 0.46052479E-01</totfact>
</mgrwt>
</event>
<event>
 4    1  0.8287789E-007  0.7578977E+03  0.7818608E-02  0.9810581E-01
         -2   -1    0    0    0  501 -0.00000000000E+00  0.00000000000E+00  0.11214558482E+04  0.11214558482E+04  0.25500000000E-02 0.  1.
          2   -1    0    0  501    0  0.00000000000E+00 -0.00000000000E+00 -0.56635514657E+03  0.56635514658E+03  0.25500000000E-02 0. -1.
    8880023    1    1    2    0    0  0.19863854054E+03  0.31802741117E+03 -0.24044788685E+03  0.79512520813E+03  0.65864270000E+03 0.  0.
    8880022    1    1    2    0    0 -0.19863854054E+03 -0.31802741117E+03  0.79554858846E+03  0.89268578663E+03  0.15294330000E+03 0.  0.
<mgrwt>
<rscale>  0 0.64797795E+03</rscale>
<asrwt>0</asrwt>
<pdfrwt beam="1">  1        2 0.87131561E-01 0.75789769E+03</pdfrwt>
<pdfrwt beam="2">  1       -2 0.17253167E+00 0.75789769E+03</pdfrwt>
<totfact> 0.11039334E+01</totfact>
</mgrwt>
</event>
<event>
 4    1  0.8287789E-007  0.8050408E+03  0.7818608E-02  0.9700001E-01
         -2   -1    0    0    0  501 -0.00000000000E+00  0.00000000000E+00  0.53894677645E+03  0.53894677645E+03  0.25500000000E-02 0.  1.
          2   -1    0    0  501    0  0.00000000000E+00 -0.00000000000E+00 -0.22045369174E+04  0.22045369174E+04  0.25500000000E-02 0. -1.
    8880023    1    1    2    0    0 -0.35218253672E+03 -0.30041299900E+03 -0.19975557265E+04  0.21536758335E+04  0.65864270000E+03 0.  1.
    8880022    1    1    2    0    0  0.35218253672E+03  0.30041299900E+03  0.33196558553E+03  0.58980786035E+03  0.15294330000E+03 0.  0.
<mgrwt>
<rscale>  0 0.71016737E+03</rscale>
<asrwt>0</asrwt>
<pdfrwt beam="1">  1        2 0.33915952E+00 0.80504082E+03</pdfrwt>
<pdfrwt beam="2">  1       -2 0.82914890E-01 0.80504082E+03</pdfrwt>
<totfact> 0.67540947E+00</totfact>
</mgrwt>
</event>
<event>
 4    1  0.8287789E-007  0.7425854E+03  0.7818608E-02  0.9852479E-01
         -2   -1    0    0    0  501 -0.00000000000E+00  0.00000000000E+00  0.24612932144E+03  0.24612932145E+03  0.25500000000E-02 0.  1.
          2   -1    0    0  501    0  0.00000000000E+00 -0.00000000000E+00 -0.14226912434E+04  0.14226912434E+04  0.25500000000E-02 0. -1.
    8880023    1    1    2    0    0  0.13349438508E+03  0.31591472253E+03 -0.10206899347E+04  0.12622365118E+04  0.65864270000E+03 0. -1.
    8880022    1    1    2    0    0 -0.13349438508E+03 -0.31591472253E+03 -0.15587198732E+03  0.40658405306E+03  0.15294330000E+03 0.  1.
<mgrwt>
<rscale>  0 0.62620680E+03</rscale>
<asrwt>0</asrwt>
<pdfrwt beam="1">  1        2 0.21887557E+00 0.74258540E+03</pdfrwt>
<pdfrwt beam="2">  1       -2 0.37866050E-01 0.74258540E+03</pdfrwt>
<totfact> 0.94136689E+01</totfact>
</mgrwt>
</event>
<event>
 4    1  0.8287789E-007  0.7394281E+03  0.7818608E-02  0.9861616E-01
         -2   -1    0    0    0  501 -0.00000000000E+00  0.00000000000E+00  0.43597771447E+03  0.43597771447E+03  0.25500000000E-02 0.  1.
          2   -1    0    0  501    0  0.00000000000E+00 -0.00000000000E+00 -0.15851401965E+04  0.15851401966E+04  0.25500000000E-02 0. -1.
    8880023    1    1    2    0    0  0.30797029073E+03  0.13452878180E+03  0.74300720914E+02  0.74315173181E+03  0.65864270000E+03 0.  1.
    8880022    1    1    2    0    0 -0.30797029073E+03 -0.13452878180E+03 -0.12234632030E+04  0.12779661792E+04  0.15294330000E+03 0.  0.
<mgrwt>
<rscale>  0 0.62158141E+03</rscale>
<asrwt>0</asrwt>
<pdfrwt beam="1">  1        2 0.24386772E+00 0.73942809E+03</pdfrwt>
<pdfrwt beam="2">  1       -2 0.67073495E-01 0.73942809E+03</pdfrwt>
<totfact> 0.23806252E+01</totfact>
</mgrwt>
</event>
<event>
 4    1  0.8287789E-007  0.6962833E+03  0.7818608E-02  0.1001298E+00
          2   -1    0    0  501    0  0.00000000000E+00  0.00000000000E+00  0.23988392921E+04  0.23988392921E+04  0.25500000000E-02 0. -1.
         -2   -1    0    0    0  501 -0.00000000000E+00 -0.00000000000E+00 -0.15163388728E+03  0.15163388730E+03  0.25500000000E-02 0.  1.
    8880023    1    1    2    0    0  0.17440070379E+03 -0.14347357972E+03  0.21515926341E+04  0.22614511586E+04  0.65864270000E+03 0. -1.
    8880022    1    1    2    0    0 -0.17440070379E+03  0.14347357972E+03  0.95612770770E+02  0.28902202081E+03  0.15294330000E+03 0.  0.
<mgrwt>
<rscale>  0 0.55084603E+03</rscale>
<asrwt>0</asrwt>
<pdfrwt beam="1">  1        2 0.36905220E+00 0.69628333E+03</pdfrwt>
<pdfrwt beam="2">  1       -2 0.23328290E-01 0.69628333E+03</pdfrwt>
<totfact> 0.67509433E+01</totfact>
</mgrwt>
</event>
<event>
 4    1  0.8287789E-007  0.9140951E+03  0.7818608E-02  0.9503773E-01
         -2   -1    0    0    0  501 -0.00000000000E+00  0.00000000000E+00  0.41525647572E+03  0.41525647572E+03  0.25500000000E-02 0.  1.
          2   -1    0    0  501    0  0.00000000000E+00 -0.00000000000E+00 -0.17886186461E+04  0.17886186461E+04  0.25500000000E-02 0. -1.
    8880023    1    1    2    0    0 -0.63293132919E+03  0.34024385769E+02 -0.12363933537E+04  0.15376080312E+04  0.65864270000E+03 0. -1.
    8880022    1    1    2    0    0  0.63293132919E+03 -0.34024385769E+02 -0.13696881670E+03  0.66626709064E+03  0.15294330000E+03 0.  0.
<mgrwt>
<rscale>  0 0.84006231E+03</rscale>
<asrwt>0</asrwt>
<pdfrwt beam="1">  1        2 0.27517210E+00 0.91409514E+03</pdfrwt>
<pdfrwt beam="2">  1       -2 0.63885612E-01 0.91409514E+03</pdfrwt>
<totfact> 0.20029775E+01</totfact>
</mgrwt>
</event>
<event>
 4    1  0.8287789E-007  0.6956804E+03  0.7818608E-02  0.1001562E+00
         -2   -1    0    0    0  501 -0.00000000000E+00  0.00000000000E+00  0.17364355403E+04  0.17364355403E+04  0.25500000000E-02 0.  1.
          2   -1    0    0  501    0  0.00000000000E+00 -0.00000000000E+00 -0.62509000135E+03  0.62509000135E+03  0.25500000000E-02 0. -1.
    8880023    1    1    2    0    0  0.21014777315E+03  0.77452437298E+02 -0.41581048750E+03  0.81047488202E+03  0.65864270000E+03 0. -1.
    8880022    1    1    2    0    0 -0.21014777315E+03 -0.77452437298E+02  0.15271560265E+04  0.15510506597E+04  0.15294330000E+03 0.  0.
<mgrwt>
<rscale>  0 0.54970803E+03</rscale>
<asrwt>0</asrwt>
<pdfrwt beam="1">  1        2 0.96167695E-01 0.69568037E+03</pdfrwt>
<pdfrwt beam="2">  1       -2 0.26714392E+00 0.69568037E+03</pdfrwt>
<totfact> 0.24831330E+00</totfact>
</mgrwt>
</event>
<event>
 4    1  0.8287789E-007  0.7338996E+03  0.7818608E-02  0.9878087E-01
         -2   -1    0    0    0  501 -0.00000000000E+00  0.00000000000E+00  0.36310867778E+03  0.36310867779E+03  0.25500000000E-02 0.  1.
          2   -1    0    0  501    0  0.00000000000E+00 -0.00000000000E+00 -0.12182637796E+04  0.12182637796E+04  0.25500000000E-02 0. -1.
    8880023    1    1    2    0    0 -0.25976811481E+03  0.19318105795E+03 -0.95991615284E+03  0.12083243031E+04  0.65864270000E+03 0. -1.
    8880022    1    1    2    0    0  0.25976811481E+03 -0.19318105795E+03  0.10476105102E+03  0.37304815433E+03  0.15294330000E+03 0.  0.
<mgrwt>
<rscale>  0 0.61335127E+03</rscale>
<asrwt>0</asrwt>
<pdfrwt beam="1">  1        2 0.18742520E+00 0.73389959E+03</pdfrwt>
<pdfrwt beam="2">  1       -2 0.55862874E-01 0.73389959E+03</pdfrwt>
<totfact> 0.56654887E+01</totfact>
</mgrwt>
</event>
<event>
 4    1  0.8287789E-007  0.7352167E+03  0.7818608E-02  0.9874106E-01
         -2   -1    0    0    0  501 -0.00000000000E+00  0.00000000000E+00  0.23247681828E+03  0.23247681830E+03  0.25500000000E-02 0.  1.
          2   -1    0    0  501    0  0.00000000000E+00 -0.00000000000E+00 -0.28590492085E+04  0.28590492085E+04  0.25500000000E-02 0. -1.
    8880023    1    1    2    0    0  0.30927039058E+03  0.10528636971E+03 -0.26299477773E+04  0.27307817401E+04  0.65864270000E+03 0. -1.
    8880022    1    1    2    0    0 -0.30927039058E+03 -0.10528636971E+03  0.33753871436E+01  0.36074428670E+03  0.15294330000E+03 0.  0.
<mgrwt>
<rscale>  0 0.61532794E+03</rscale>
<asrwt>0</asrwt>
<pdfrwt beam="1">  1        2 0.43985370E+00 0.73521670E+03</pdfrwt>
<pdfrwt beam="2">  1       -2 0.35765666E-01 0.73521670E+03</pdfrwt>
<totfact> 0.16564974E+01</totfact>
</mgrwt>
</event>
<event>
 4    1  0.8287789E-007  0.7718231E+03  0.7818608E-02  0.9775407E-01
         -2   -1    0    0    0  501 -0.00000000000E+00  0.00000000000E+00  0.34750568702E+03  0.34750568703E+03  0.25500000000E-02 0.  1.
          2   -1    0    0  501    0  0.00000000000E+00 -0.00000000000E+00 -0.15843344853E+04  0.15843344853E+04  0.25500000000E-02 0. -1.
    8880023    1    1    2    0    0 -0.14162104613E+03 -0.37662210492E+03 -0.18261750693E+03  0.79313308512E+03  0.65864270000E+03 0.  1.
    8880022    1    1    2    0    0  0.14162104613E+03  0.37662210492E+03 -0.10542112913E+04  0.11387070872E+04  0.15294330000E+03 0.  0.
<mgrwt>
<rscale>  0 0.66699186E+03</rscale>
<asrwt>0</asrwt>
<pdfrwt beam="1">  1        2 0.24374376E+00 0.77182313E+03</pdfrwt>
<pdfrwt beam="2">  1       -2 0.53462414E-01 0.77182313E+03</pdfrwt>
<totfact> 0.38330728E+01</totfact>
</mgrwt>
</event>
<event>
 4    1  0.8287789E-007  0.8005523E+03  0.7818608E-02  0.9709603E-01
         -2   -1    0    0    0  501 -0.00000000000E+00  0.00000000000E+00  0.24473171189E+04  0.24473171189E+04  0.25500000000E-02 0.  1.
          2   -1    0    0  501    0  0.00000000000E+00 -0.00000000000E+00 -0.21076162911E+03  0.21076162913E+03  0.25500000000E-02 0. -1.
    8880023    1    1    2    0    0 -0.31858391068E+03  0.32492768125E+03  0.19274862856E+04  0.20871241683E+04  0.65864270000E+03 0.  0.
    8880022    1    1    2    0    0  0.31858391068E+03 -0.32492768125E+03  0.30906920416E+03  0.57095457977E+03  0.15294330000E+03 0.  0.
<mgrwt>
<rscale>  0 0.70447887E+03</rscale>
<asrwt>0</asrwt>
<pdfrwt beam="1">  1        2 0.32424867E-01 0.80055225E+03</pdfrwt>
<pdfrwt beam="2">  1       -2 0.37651032E+00 0.80055225E+03</pdfrwt>
<totfact> 0.18028069E+00</totfact>
</mgrwt>
</event>
<event>
 4    1  0.8287789E-007  0.7437590E+03  0.7818608E-02  0.9849130E-01
         -2   -1    0    0    0  501 -0.00000000000E+00  0.00000000000E+00  0.73591865014E+03  0.73591865015E+03  0.25500000000E-02 0.  1.
          2   -1    0    0  501    0  0.00000000000E+00 -0.00000000000E+00 -0.17282301918E+04  0.17282301918E+04  0.25500000000E-02 0. -1.
    8880023    1    1    2    0    0  0.33620839987E+03  0.79568113764E+02 -0.15909662133E+04  0.17562320095E+04  0.65864270000E+03 0. -1.
    8880022    1    1    2    0    0 -0.33620839987E+03 -0.79568113764E+02  0.59865467164E+03  0.70791683251E+03  0.15294330000E+03 0.  0.
<mgrwt>
<rscale>  0 0.62791307E+03</rscale>
<asrwt>0</asrwt>
<pdfrwt beam="1">  1        2 0.26588157E+00 0.74375895E+03</pdfrwt>
<pdfrwt beam="2">  1       -2 0.11321825E+00 0.74375895E+03</pdfrwt>
<totfact> 0.59717449E+00</totfact>
</mgrwt>
</event>
<event>
 4    1  0.8287789E-007  0.8052964E+03  0.7818608E-02  0.9699459E-01
         -2   -1    0    0    0  501 -0.00000000000E+00  0.00000000000E+00  0.13365539254E+03  0.13365539256E+03  0.25500000000E-02 0.  1.
          2   -1    0    0  501    0  0.00000000000E+00 -0.00000000000E+00 -0.39420201638E+04  0.39420201638E+04  0.25500000000E-02 0. -1.
    8880023    1    1    2    0    0  0.45306978592E+03  0.97056142791E+02 -0.31784799681E+04  0.32789079340E+04  0.65864270000E+03 0.  0.
    8880022    1    1    2    0    0 -0.45306978592E+03 -0.97056142791E+02 -0.62988480313E+03  0.79676762233E+03  0.15294330000E+03 0.  0.
<mgrwt>
<rscale>  0 0.71049014E+03</rscale>
<asrwt>0</asrwt>
<pdfrwt beam="1">  1        2 0.60646455E+00 0.80529642E+03</pdfrwt>
<pdfrwt beam="2">  1       -2 0.20562371E-01 0.80529642E+03</pdfrwt>
<totfact> 0.84163607E+00</totfact>
</mgrwt>
</event>
<event>
 4    1  0.8287789E-007  0.6650822E+03  0.7818608E-02  0.1019465E+00
         -2   -1    0    0    0  501 -0.00000000000E+00  0.00000000000E+00  0.54792887102E+03  0.54792887103E+03  0.25500000000E-02 0.  1.
          2   -1    0    0  501    0  0.00000000000E+00 -0.00000000000E+00 -0.50293014217E+03  0.50293014217E+03  0.25500000000E-02 0. -1.
    8880023    1    1    2    0    0 -0.85239586864E-01 -0.92326329267E+02 -0.24623171927E+03  0.70919984784E+03  0.65864270000E+03 0. -1.
    8880022    1    1    2    0    0  0.85239586864E-01  0.92326329267E+02  0.29123044813E+03  0.34165916536E+03  0.15294330000E+03 0.  0.
<mgrwt>
<rscale>  0 0.47880342E+03</rscale>
<asrwt>0</asrwt>
<pdfrwt beam="1">  1        2 0.77373868E-01 0.66508222E+03</pdfrwt>
<pdfrwt beam="2">  1       -2 0.84296749E-01 0.66508222E+03</pdfrwt>
<totfact> 0.76355040E+01</totfact>
</mgrwt>
</event>
<event>
 4    1  0.8287789E-007  0.7080894E+03  0.7818608E-02  0.9965165E-01
          2   -1    0    0  501    0  0.00000000000E+00  0.00000000000E+00  0.12056757730E+04  0.12056757730E+04  0.25500000000E-02 0. -1.
         -2   -1    0    0    0  501 -0.00000000000E+00 -0.00000000000E+00 -0.66081522164E+03  0.66081522165E+03  0.25500000000E-02 0.  1.
    8880023    1    1    2    0    0  0.18647859560E+03  0.18112464496E+03  0.10569276001E+04  0.12721975326E+04  0.65864270000E+03 0. -1.
    8880022    1    1    2    0    0 -0.18647859560E+03 -0.18112464496E+03 -0.51206704878E+03  0.59429346210E+03  0.15294330000E+03 0.  0.
<mgrwt>
<rscale>  0 0.57204418E+03</rscale>
<asrwt>0</asrwt>
<pdfrwt beam="1">  1        2 0.18548858E+00 0.70808941E+03</pdfrwt>
<pdfrwt beam="2">  1       -2 0.10166388E+00 0.70808941E+03</pdfrwt>
<totfact> 0.15292665E+01</totfact>
</mgrwt>
</event>
<event>
 4    1  0.8287789E-007  0.7054125E+03  0.7818608E-02  0.9975448E-01
          2   -1    0    0  501    0  0.00000000000E+00  0.00000000000E+00  0.20224268292E+04  0.20224268292E+04  0.25500000000E-02 0. -1.
         -2   -1    0    0    0  501 -0.00000000000E+00 -0.00000000000E+00 -0.31218717477E+03  0.31218717478E+03  0.25500000000E-02 0.  1.
    8880023    1    1    2    0    0 -0.24557456882E+03  0.59074403863E+02  0.18701857056E+04  0.19987999985E+04  0.65864270000E+03 0.  0.
    8880022    1    1    2    0    0  0.24557456882E+03 -0.59074403863E+02 -0.15994605116E+03  0.33581400557E+03  0.15294330000E+03 0.  0.
<mgrwt>
<rscale>  0 0.56740044E+03</rscale>
<asrwt>0</asrwt>
<pdfrwt beam="1">  1        2 0.31114259E+00 0.70541255E+03</pdfrwt>
<pdfrwt beam="2">  1       -2 0.48028797E-01 0.70541255E+03</pdfrwt>
<totfact> 0.27720248E+01</totfact>
</mgrwt>
</event>
<event>
 4    1  0.1399295E-006  0.6605638E+03  0.7818608E-02  0.1023586E+00
          2   -1    0    0  501    0  0.00000000000E+00  0.00000000000E+00  0.25315123400E+04  0.25315123400E+04  0.25500000000E-02 0. -1.
         -2   -1    0    0    0  501 -0.00000000000E+00 -0.00000000000E+00 -0.83017457936E+03  0.83017457937E+03  0.25500000000E-02 0.  1.
    8880023    1    1    2    0    0  0.16792846907E+02 -0.47458210393E+02  0.24800441142E+04  0.25665079965E+04  0.65864270000E+03 0. -1.
    8880022    1    1    2    0    0 -0.16792846907E+02  0.47458210393E+02 -0.77870635351E+03  0.79517892292E+03  0.15294330000E+03 0.  0.
<mgrwt>
<rscale>  0 0.46414413E+03</rscale>
<asrwt>0</asrwt>
<pdfrwt beam="1">  1        2 0.38946344E+00 0.66056377E+03</pdfrwt>
<pdfrwt beam="2">  1       -2 0.12771917E+00 0.66056377E+03</pdfrwt>
<totfact> 0.16262559E+00</totfact>
</mgrwt>
</event>
<event>
 4    1  0.8287789E-007  0.6651844E+03  0.7818608E-02  0.1019379E+00
          2   -1    0    0  501    0  0.00000000000E+00  0.00000000000E+00  0.23316352827E+04  0.23316352827E+04  0.25500000000E-02 0. -1.
         -2   -1    0    0    0  501 -0.00000000000E+00 -0.00000000000E+00 -0.14092233415E+03  0.14092233417E+03  0.25500000000E-02 0.  1.
    8880023    1    1    2    0    0 -0.41314117690E+02  0.83386340263E+02  0.21948971922E+04  0.22934785870E+04  0.65864270000E+03 0. -1.
    8880022    1    1    2    0    0  0.41314117690E+02 -0.83386340263E+02 -0.41842436421E+01  0.17907902996E+03  0.15294330000E+03 0.  0.
<mgrwt>
<rscale>  0 0.47911316E+03</rscale>
<asrwt>0</asrwt>
<pdfrwt beam="1">  1        2 0.35871311E+00 0.66518444E+03</pdfrwt>
<pdfrwt beam="2">  1       -2 0.21680360E-01 0.66518444E+03</pdfrwt>
<totfact> 0.84155992E+01</totfact>
</mgrwt>
</event>
<event>
 4    1  0.8287789E-007  0.7040766E+03  0.7818608E-02  0.9980692E-01
          2   -1    0    0  501    0  0.00000000000E+00  0.00000000000E+00  0.25327168683E+04  0.25327168683E+04  0.25500000000E-02 0. -1.
         -2   -1    0    0    0  501 -0.00000000000E+00 -0.00000000000E+00 -0.13503616760E+03  0.13503616763E+03  0.25500000000E-02 0.  1.
    8880023    1    1    2    0    0  0.24809097848E+03  0.19091076162E+02  0.22127345060E+04  0.23220503447E+04  0.65864270000E+03 0.  0.
    8880022    1    1    2    0    0 -0.24809097848E+03 -0.19091076162E+02  0.18494619464E+03  0.34570269122E+03  0.15294330000E+03 0.  0.
<mgrwt>
<rscale>  0 0.56505001E+03</rscale>
<asrwt>0</asrwt>
<pdfrwt beam="1">  1        2 0.38964875E+00 0.70407656E+03</pdfrwt>
<pdfrwt beam="2">  1       -2 0.20774795E-01 0.70407656E+03</pdfrwt>
<totfact> 0.69596547E+01</totfact>
</mgrwt>
</event>
<event>
 4    1  0.8287789E-007  0.9336039E+03  0.7818608E-02  0.9474108E-01
         -2   -1    0    0    0  501 -0.00000000000E+00  0.00000000000E+00  0.45850179993E+03  0.45850179994E+03  0.25500000000E-02 0.  1.
          2   -1    0    0  501    0  0.00000000000E+00 -0.00000000000E+00 -0.18241534091E+04  0.18241534091E+04  0.25500000000E-02 0. -1.
    8880023    1    1    2    0    0 -0.58299389538E+03  0.31292841283E+03 -0.12998167772E+04  0.16003561898E+04  0.65864270000E+03 0.  0.
    8880022    1    1    2    0    0  0.58299389538E+03 -0.31292841283E+03 -0.65834831991E+02  0.68229901929E+03  0.15294330000E+03 0.  0.
<mgrwt>
<rscale>  0 0.86219975E+03</rscale>
<asrwt>0</asrwt>
<pdfrwt beam="1">  1        2 0.28063898E+00 0.93360392E+03</pdfrwt>
<pdfrwt beam="2">  1       -2 0.70538739E-01 0.93360392E+03</pdfrwt>
<totfact> 0.15413535E+01</totfact>
</mgrwt>
</event>
<event>
 4    1  0.8287789E-007  0.7002667E+03  0.7818608E-02  0.9996096E-01
         -2   -1    0    0    0  501 -0.00000000000E+00  0.00000000000E+00  0.71728861489E+03  0.71728861489E+03  0.25500000000E-02 0.  1.
          2   -1    0    0  501    0  0.00000000000E+00 -0.00000000000E+00 -0.34040197324E+03  0.34040197325E+03  0.25500000000E-02 0. -1.
    8880023    1    1    2    0    0 -0.13420479391E+03 -0.19634758975E+03  0.21836331354E+03  0.73352303690E+03  0.65864270000E+03 0. -1.
    8880022    1    1    2    0    0  0.13420479391E+03  0.19634758975E+03  0.15852332810E+03  0.32416755124E+03  0.15294330000E+03 0.  1.
<mgrwt>
<rscale>  0 0.55821731E+03</rscale>
<asrwt>0</asrwt>
<pdfrwt beam="1">  1        2 0.52369534E-01 0.70026674E+03</pdfrwt>
<pdfrwt beam="2">  1       -2 0.11035210E+00 0.70026674E+03</pdfrwt>
<totfact> 0.62987085E+01</totfact>
</mgrwt>
</event>
<event>
 4    1  0.8287789E-007  0.8853649E+03  0.7818608E-02  0.9549946E-01
          2   -1    0    0  501    0  0.00000000000E+00  0.00000000000E+00  0.16593687566E+04  0.16593687566E+04  0.25500000000E-02 0. -1.
         -2   -1    0    0    0  501 -0.00000000000E+00 -0.00000000000E+00 -0.71477012497E+03  0.71477012498E+03  0.25500000000E-02 0.  1.
    8880023    1    1    2    0    0  0.43368623496E+03  0.40246364117E+03  0.13688365867E+04  0.16302099681E+04  0.65864270000E+03 0. -1.
    8880022    1    1    2    0    0 -0.43368623496E+03 -0.40246364117E+03 -0.42423795501E+03  0.74392891350E+03  0.15294330000E+03 0.  0.
<mgrwt>
<rscale>  0 0.80699551E+03</rscale>
<asrwt>0</asrwt>
<pdfrwt beam="1">  1        2 0.25528750E+00 0.88536486E+03</pdfrwt>
<pdfrwt beam="2">  1       -2 0.10996464E+00 0.88536486E+03</pdfrwt>
<totfact> 0.68572302E+00</totfact>
</mgrwt>
</event>
<event>
 4    1  0.8287789E-007  0.1334075E+04  0.7818608E-02  0.9036679E-01
         -2   -1    0    0    0  501 -0.00000000000E+00  0.00000000000E+00  0.14593652482E+04  0.14593652482E+04  0.25500000000E-02 0.  1.
          2   -1    0    0  501    0  0.00000000000E+00 -0.00000000000E+00 -0.40414110018E+04  0.40414110018E+04  0.25500000000E-02 0. -1.
    8880023    1    1    2    0    0 -0.81028260433E+03 -0.83029352665E+03 -0.36687771823E+04  0.39038034606E+04  0.65864270000E+03 0.  0.
    8880022    1    1    2    0    0  0.81028260433E+03  0.83029352665E+03  0.10867314287E+04  0.15969727895E+04  0.15294330000E+03 0.  0.
<mgrwt>
<rscale>  0 0.12910674E+04</rscale>
<asrwt>0</asrwt>
<pdfrwt beam="1">  1        2 0.62175553E+00 0.13340748E+04</pdfrwt>
<pdfrwt beam="2">  1       -2 0.22451773E+00 0.13340748E+04</pdfrwt>
<totfact> 0.28773125E-02</totfact>
</mgrwt>
</event>
<event>
 4    1  0.8287789E-007  0.8516161E+03  0.7818608E-02  0.9608654E-01
          2   -1    0    0  501    0  0.00000000000E+00  0.00000000000E+00  0.28198095479E+04  0.28198095479E+04  0.25500000000E-02 0. -1.
         -2   -1    0    0    0  501 -0.00000000000E+00 -0.00000000000E+00 -0.26918214903E+03  0.26918214904E+03  0.25500000000E-02 0.  1.
    8880023    1    1    2    0    0 -0.18635516138E+03 -0.50666715191E+03  0.23391694881E+04  0.24893701913E+04  0.65864270000E+03 0.  0.
    8880022    1    1    2    0    0  0.18635516138E+03  0.50666715191E+03  0.21145791079E+03  0.59962150565E+03  0.15294330000E+03 0.  0.
<mgrwt>
<rscale>  0 0.76726023E+03</rscale>
<asrwt>0</asrwt>
<pdfrwt beam="1">  1        2 0.43381687E+00 0.85161614E+03</pdfrwt>
<pdfrwt beam="2">  1       -2 0.41412637E-01 0.85161614E+03</pdfrwt>
<totfact> 0.12916812E+01</totfact>
</mgrwt>
</event>
<event>
 4    1  0.8287789E-007  0.8405363E+03  0.7818608E-02  0.9629170E-01
          2   -1    0    0  501    0  0.00000000000E+00  0.00000000000E+00  0.37816083616E+04  0.37816083616E+04  0.25500000000E-02 0. -1.
         -2   -1    0    0    0  501 -0.00000000000E+00 -0.00000000000E+00 -0.15877241510E+03  0.15877241512E+03  0.25500000000E-02 0.  1.
    8880023    1    1    2    0    0  0.48041412999E+03 -0.20467858733E+03  0.29894068434E+04  0.31053268012E+04  0.65864270000E+03 0.  1.
    8880022    1    1    2    0    0 -0.48041412999E+03  0.20467858733E+03  0.63342910309E+03  0.83505397554E+03  0.15294330000E+03 0.  0.
<mgrwt>
<rscale>  0 0.75395250E+03</rscale>
<asrwt>0</asrwt>
<pdfrwt beam="1">  1        2 0.58178591E+00 0.84053630E+03</pdfrwt>
<pdfrwt beam="2">  1       -2 0.24426525E-01 0.84053630E+03</pdfrwt>
<totfact> 0.81380971E+00</totfact>
</mgrwt>
</event>
<event>
 4    1  0.8287789E-007  0.7171292E+03  0.7818608E-02  0.9932422E-01
         -2   -1    0    0    0  501 -0.00000000000E+00  0.00000000000E+00  0.43284408097E+03  0.43284408098E+03  0.25500000000E-02 0.  1.
          2   -1    0    0  501    0  0.00000000000E+00 -0.00000000000E+00 -0.73855646702E+03  0.73855646702E+03  0.25500000000E-02 0. -1.
    8880023    1    1    2    0    0 -0.87817196097E+02 -0.26972617796E+03 -0.41808740033E+03  0.83010321743E+03  0.65864270000E+03 0. -1.
    8880022    1    1    2    0    0  0.87817196097E+02  0.26972617796E+03  0.11237501427E+03  0.34129733057E+03  0.15294330000E+03 0.  0.
<mgrwt>
<rscale>  0 0.58715377E+03</rscale>
<asrwt>0</asrwt>
<pdfrwt beam="1">  1        2 0.11362407E+00 0.71712919E+03</pdfrwt>
<pdfrwt beam="2">  1       -2 0.66591397E-01 0.71712919E+03</pdfrwt>
<totfact> 0.80443105E+01</totfact>
</mgrwt>
</event>
<event>
 4    1  0.8287789E-007  0.8164619E+03  0.7818608E-02  0.9676271E-01
         -2   -1    0    0    0  501 -0.00000000000E+00  0.00000000000E+00  0.29255207214E+03  0.29255207215E+03  0.25500000000E-02 0.  1.
          2   -1    0    0  501    0  0.00000000000E+00 -0.00000000000E+00 -0.19730578600E+04  0.19730578600E+04  0.25500000000E-02 0. -1.
    8880023    1    1    2    0    0 -0.44409804366E+03  0.18861791053E+03 -0.15355381837E+04  0.17391053759E+04  0.65864270000E+03 0. -1.
    8880022    1    1    2    0    0  0.44409804366E+03 -0.18861791053E+03 -0.14496760423E+03  0.52650455634E+03  0.15294330000E+03 0.  0.
<mgrwt>
<rscale>  0 0.72447351E+03</rscale>
<asrwt>0</asrwt>
<pdfrwt beam="1">  1        2 0.30354735E+00 0.81646188E+03</pdfrwt>
<pdfrwt beam="2">  1       -2 0.45008012E-01 0.81646188E+03</pdfrwt>
<totfact> 0.33128037E+01</totfact>
</mgrwt>
</event>
<event>
 4    1  0.8287789E-007  0.7104811E+03  0.7818608E-02  0.9956219E-01
          2   -1    0    0  501    0  0.00000000000E+00  0.00000000000E+00  0.14118181576E+04  0.14118181576E+04  0.25500000000E-02 0. -1.
         -2   -1    0    0    0  501 -0.00000000000E+00 -0.00000000000E+00 -0.29149994328E+03  0.29149994329E+03  0.25500000000E-02 0.  1.
    8880023    1    1    2    0    0  0.15233169015E+03 -0.21855932485E+03  0.11921841653E+04  0.13878351533E+04  0.65864270000E+03 0. -1.
    8880022    1    1    2    0    0 -0.15233169015E+03  0.21855932485E+03 -0.71865951023E+02  0.31548294762E+03  0.15294330000E+03 0.  0.
<mgrwt>
<rscale>  0 0.57612353E+03</rscale>
<asrwt>0</asrwt>
<pdfrwt beam="1">  1        2 0.21720280E+00 0.71048105E+03</pdfrwt>
<pdfrwt beam="2">  1       -2 0.44846145E-01 0.71048105E+03</pdfrwt>
<totfact> 0.68733822E+01</totfact>
</mgrwt>
</event>
<event>
 4    1  0.8287789E-007  0.6934693E+03  0.7818608E-02  0.1002545E+00
          2   -1    0    0  501    0  0.00000000000E+00  0.00000000000E+00  0.10695830525E+04  0.10695830525E+04  0.25500000000E-02 0. -1.
         -2   -1    0    0    0  501 -0.00000000000E+00 -0.00000000000E+00 -0.19779333551E+04  0.19779333551E+04  0.25500000000E-02 0.  1.
    8880023    1    1    2    0    0 -0.70670870950E+02  0.20517081889E+03  0.94672727252E+03  0.11735383128E+04  0.65864270000E+03 0. -1.
    8880022    1    1    2    0    0  0.70670870950E+02 -0.20517081889E+03 -0.18550775751E+04  0.18739780948E+04  0.15294330000E+03 0.  0.
<mgrwt>
<rscale>  0 0.54548084E+03</rscale>
<asrwt>0</asrwt>
<pdfrwt beam="1">  1        2 0.16455124E+00 0.69346928E+03</pdfrwt>
<pdfrwt beam="2">  1       -2 0.30429744E+00 0.69346928E+03</pdfrwt>
<totfact> 0.72217230E-01</totfact>
</mgrwt>
</event>
<event>
 4    1  0.8287789E-007  0.6861815E+03  0.7818608E-02  0.1006023E+00
         -2   -1    0    0    0  501 -0.00000000000E+00  0.00000000000E+00  0.16742039215E+04  0.16742039215E+04  0.25500000000E-02 0.  1.
          2   -1    0    0  501    0  0.00000000000E+00 -0.00000000000E+00 -0.40224517391E+03  0.40224517392E+03  0.25500000000E-02 0. -1.
    8880023    1    1    2    0    0  0.18411261058E+03  0.56012018862E+02 -0.90382209599E+02  0.69210833668E+03  0.65864270000E+03 0. -1.
    8880022    1    1    2    0    0 -0.18411261058E+03 -0.56012018862E+02  0.13623409572E+04  0.13843407587E+04  0.15294330000E+03 0.  0.
<mgrwt>
<rscale>  0 0.53086321E+03</rscale>
<asrwt>0</asrwt>
<pdfrwt beam="1">  1        2 0.61883872E-01 0.68618147E+03</pdfrwt>
<pdfrwt beam="2">  1       -2 0.25756984E+00 0.68618147E+03</pdfrwt>
<totfact> 0.47402229E+00</totfact>
</mgrwt>
</event>
<event>
 4    1  0.8287789E-007  0.6667097E+03  0.7818608E-02  0.1018140E+00
          2   -1    0    0  501    0  0.00000000000E+00  0.00000000000E+00  0.62978896094E+03  0.62978896094E+03  0.25500000000E-02 0. -1.
         -2   -1    0    0    0  501 -0.00000000000E+00 -0.00000000000E+00 -0.33032370509E+03  0.33032370510E+03  0.25500000000E-02 0.  1.
    8880023    1    1    2    0    0  0.97199313249E+02  0.35268416171E+02  0.36998063611E+03  0.76248766878E+03  0.65864270000E+03 0. -1.
    8880022    1    1    2    0    0 -0.97199313249E+02 -0.35268416171E+02 -0.70515380270E+02  0.19762499727E+03  0.15294330000E+03 0.  0.
<mgrwt>
<rscale>  0 0.48363769E+03</rscale>
<asrwt>0</asrwt>
<pdfrwt beam="1">  1        2 0.96890609E-01 0.66670966E+03</pdfrwt>
<pdfrwt beam="2">  1       -2 0.50819032E-01 0.66670966E+03</pdfrwt>
<totfact> 0.17357406E+02</totfact>
</mgrwt>
</event>
<event>
 4    1  0.8287789E-007  0.8588444E+03  0.7818608E-02  0.9595622E-01
         -2   -1    0    0    0  501 -0.00000000000E+00  0.00000000000E+00  0.31238349550E+03  0.31238349551E+03  0.25500000000E-02 0.  1.
          2   -1    0    0  501    0  0.00000000000E+00 -0.00000000000E+00 -0.43509947139E+04  0.43509947139E+04  0.25500000000E-02 0. -1.
    8880023    1    1    2    0    0  0.47363036465E+03 -0.28191791290E+03 -0.39987946795E+04  0.40899844165E+04  0.65864270000E+03 0. -1.
    8880022    1    1    2    0    0 -0.47363036465E+03  0.28191791290E+03 -0.39816538846E+02  0.57339379288E+03  0.15294330000E+03 0.  0.
<mgrwt>
<rscale>  0 0.77586596E+03</rscale>
<asrwt>0</asrwt>
<pdfrwt beam="1">  1        2 0.66938376E+00 0.85884436E+03</pdfrwt>
<pdfrwt beam="2">  1       -2 0.48059002E-01 0.85884436E+03</pdfrwt>
<totfact> 0.77025305E-01</totfact>
</mgrwt>
</event>
<event>
 4    1  0.8287789E-007  0.6912551E+03  0.7818608E-02  0.1003562E+00
         -2   -1    0    0    0  501 -0.00000000000E+00  0.00000000000E+00  0.21752471132E+03  0.21752471133E+03  0.25500000000E-02 0.  1.
          2   -1    0    0  501    0  0.00000000000E+00 -0.00000000000E+00 -0.19448560397E+04  0.19448560397E+04  0.25500000000E-02 0. -1.
    8880023    1    1    2    0    0  0.15185610156E+03  0.14478636445E+03 -0.17691401850E+04  0.18993921573E+04  0.65864270000E+03 0. -1.
    8880022    1    1    2    0    0 -0.15185610156E+03 -0.14478636445E+03  0.41808856606E+02  0.26298859370E+03  0.15294330000E+03 0.  0.
<mgrwt>
<rscale>  0 0.54115706E+03</rscale>
<asrwt>0</asrwt>
<pdfrwt beam="1">  1        2 0.29920861E+00 0.69125507E+03</pdfrwt>
<pdfrwt beam="2">  1       -2 0.33465342E-01 0.69125507E+03</pdfrwt>
<totfact> 0.61919679E+01</totfact>
</mgrwt>
</event>
<event>
 4    1  0.8287789E-007  0.6630990E+03  0.7818608E-02  0.1021185E+00
         -2   -1    0    0    0  501 -0.00000000000E+00  0.00000000000E+00  0.23182311604E+03  0.23182311605E+03  0.25500000000E-02 0.  1.
          2   -1    0    0  501    0  0.00000000000E+00 -0.00000000000E+00 -0.10925123185E+04  0.10925123185E+04  0.25500000000E-02 0. -1.
    8880023    1    1    2    0    0 -0.63727739963E+02  0.42764564064E+02 -0.92790737070E+03  0.11404877587E+04  0.65864270000E+03 0. -1.
    8880022    1    1    2    0    0  0.63727739963E+02 -0.42764564064E+02  0.67218168234E+02  0.18384767591E+03  0.15294330000E+03 0.  0.
<mgrwt>
<rscale>  0 0.47261584E+03</rscale>
<asrwt>0</asrwt>
<pdfrwt beam="1">  1        2 0.16807882E+00 0.66309897E+03</pdfrwt>
<pdfrwt beam="2">  1       -2 0.35665095E-01 0.66309897E+03</pdfrwt>
<totfact> 0.16560903E+02</totfact>
</mgrwt>
</event>
<event>
 4    1  0.8287789E-007  0.8536251E+03  0.7818608E-02  0.9605005E-01
         -2   -1    0    0    0  501 -0.00000000000E+00  0.00000000000E+00  0.69030362538E+03  0.69030362538E+03  0.25500000000E-02 0.  1.
          2   -1    0    0  501    0  0.00000000000E+00 -0.00000000000E+00 -0.10088003213E+04  0.10088003213E+04  0.25500000000E-02 0. -1.
    8880023    1    1    2    0    0  0.47417082268E+03  0.26462729201E+03 -0.62416114803E+03  0.10574747835E+04  0.65864270000E+03 0. -1.
    8880022    1    1    2    0    0 -0.47417082268E+03 -0.26462729201E+03  0.30566445210E+03  0.64162916319E+03  0.15294330000E+03 0.  0.
<mgrwt>
<rscale>  0 0.76965777E+03</rscale>
<asrwt>0</asrwt>
<pdfrwt beam="1">  1        2 0.15520005E+00 0.85362508E+03</pdfrwt>
<pdfrwt beam="2">  1       -2 0.10620056E+00 0.85362508E+03</pdfrwt>
<totfact> 0.17893863E+01</totfact>
</mgrwt>
</event>
<event>
 4    1  0.8287789E-007  0.6901508E+03  0.7818608E-02  0.1004081E+00
         -2   -1    0    0    0  501 -0.00000000000E+00  0.00000000000E+00  0.14750641655E+03  0.14750641657E+03  0.25500000000E-02 0.  1.
          2   -1    0    0  501    0  0.00000000000E+00 -0.00000000000E+00 -0.16070666888E+04  0.16070666888E+04  0.25500000000E-02 0. -1.
    8880023    1    1    2    0    0  0.49724495689E+02 -0.20006350625E+03 -0.86221342787E+03  0.11044094048E+04  0.65864270000E+03 0. -1.
    8880022    1    1    2    0    0 -0.49724495689E+02  0.20006350625E+03 -0.59734684434E+03  0.65016370051E+03  0.15294330000E+03 0.  0.
<mgrwt>
<rscale>  0 0.53896442E+03</rscale>
<asrwt>0</asrwt>
<pdfrwt beam="1">  1        2 0.24724102E+00 0.69015081E+03</pdfrwt>
<pdfrwt beam="2">  1       -2 0.22693296E-01 0.69015081E+03</pdfrwt>
<totfact> 0.19260510E+02</totfact>
</mgrwt>
</event>
<event>
 4    1  0.8287789E-007  0.7161518E+03  0.7818608E-02  0.9935829E-01
          2   -1    0    0  501    0  0.00000000000E+00  0.00000000000E+00  0.76385868996E+03  0.76385868997E+03  0.25500000000E-02 0. -1.
         -2   -1    0    0    0  501 -0.00000000000E+00 -0.00000000000E+00 -0.53770111303E+03  0.53770111303E+03  0.25500000000E-02 0.  1.
    8880023    1    1    2    0    0  0.10428140594E+02  0.28098824602E+03  0.50561008201E+03  0.87664981709E+03  0.65864270000E+03 0.  0.
    8880022    1    1    2    0    0 -0.10428140594E+02 -0.28098824602E+03 -0.27945250507E+03  0.42490998591E+03  0.15294330000E+03 0.  0.
<mgrwt>
<rscale>  0 0.58555856E+03</rscale>
<asrwt>0</asrwt>
<pdfrwt beam="1">  1        2 0.11751672E+00 0.71615176E+03</pdfrwt>
<pdfrwt beam="2">  1       -2 0.82723249E-01 0.71615176E+03</pdfrwt>
<totfact> 0.47685884E+01</totfact>
</mgrwt>
</event>
<event>
 4    1  0.8287789E-007  0.7108616E+03  0.7818608E-02  0.9954815E-01
         -2   -1    0    0    0  501 -0.00000000000E+00  0.00000000000E+00  0.45959015999E+03  0.45959016000E+03  0.25500000000E-02 0.  1.
          2   -1    0    0  501    0  0.00000000000E+00 -0.00000000000E+00 -0.17331999915E+04  0.17331999915E+04  0.25500000000E-02 0. -1.
    8880023    1    1    2    0    0 -0.12562515515E+03 -0.23607687725E+03 -0.15958302160E+04  0.17469969251E+04  0.65864270000E+03 0. -1.
    8880022    1    1    2    0    0  0.12562515515E+03  0.23607687725E+03  0.32222038447E+03  0.44579322647E+03  0.15294330000E+03 0.  0.
<mgrwt>
<rscale>  0 0.57676683E+03</rscale>
<asrwt>0</asrwt>
<pdfrwt beam="1">  1        2 0.26664615E+00 0.71086157E+03</pdfrwt>
<pdfrwt beam="2">  1       -2 0.70706179E-01 0.71086157E+03</pdfrwt>
<totfact> 0.17674520E+01</totfact>
</mgrwt>
</event>
<event>
 4    1  0.8287789E-007  0.8842743E+03  0.7818608E-02  0.9551763E-01
         -2   -1    0    0    0  501 -0.00000000000E+00  0.00000000000E+00  0.41683372005E+03  0.41683372006E+03  0.25500000000E-02 0.  1.
          2   -1    0    0  501    0  0.00000000000E+00 -0.00000000000E+00 -0.23381879404E+04  0.23381879404E+04  0.25500000000E-02 0. -1.
    8880023    1    1    2    0    0  0.55494605127E+03 -0.20041393567E+03 -0.16978297522E+03  0.90042619374E+03  0.65864270000E+03 0.  1.
    8880022    1    1    2    0    0 -0.55494605127E+03  0.20041393567E+03 -0.17515712452E+04  0.18545954668E+04  0.15294330000E+03 0.  0.
<mgrwt>
<rscale>  0 0.80572790E+03</rscale>
<asrwt>0</asrwt>
<pdfrwt beam="1">  1        2 0.35972121E+00 0.88427432E+03</pdfrwt>
<pdfrwt beam="2">  1       -2 0.64128266E-01 0.88427432E+03</pdfrwt>
<totfact> 0.99195833E+00</totfact>
</mgrwt>
</event>
<event>
 4    1  0.8287789E-007  0.7026931E+03  0.7818608E-02  0.9986207E-01
          2   -1    0    0  501    0  0.00000000000E+00  0.00000000000E+00  0.49805284631E+03  0.49805284632E+03  0.25500000000E-02 0. -1.
         -2   -1    0    0    0  501 -0.00000000000E+00 -0.00000000000E+00 -0.74662305445E+03  0.74662305446E+03  0.25500000000E-02 0.  1.
    8880023    1    1    2    0    0 -0.17443061055E+03 -0.17187602545E+03  0.18235613749E+03  0.72596926462E+03  0.65864270000E+03 0. -1.
    8880022    1    1    2    0    0  0.17443061055E+03  0.17187602545E+03 -0.43092634563E+03  0.51870663616E+03  0.15294330000E+03 0.  0.
<mgrwt>
<rscale>  0 0.56259177E+03</rscale>
<asrwt>0</asrwt>
<pdfrwt beam="1">  1        2 0.76623515E-01 0.70269311E+03</pdfrwt>
<pdfrwt beam="2">  1       -2 0.11486509E+00 0.70269311E+03</pdfrwt>
<totfact> 0.37152328E+01</totfact>
</mgrwt>
</event>
<event>
 4    1  0.8287789E-007  0.7892440E+03  0.7818608E-02  0.9734554E-01
          2   -1    0    0  501    0  0.00000000000E+00  0.00000000000E+00  0.34391706186E+04  0.34391706186E+04  0.25500000000E-02 0. -1.
         -2   -1    0    0    0  501 -0.00000000000E+00 -0.00000000000E+00 -0.28418555777E+03  0.28418555779E+03  0.25500000000E-02 0.  1.
    8880023    1    1    2    0    0  0.22626145643E+03 -0.37135112396E+03  0.31653650589E+04  0.32622755963E+04  0.65864270000E+03 0.  0.
    8880022    1    1    2    0    0 -0.22626145643E+03  0.37135112396E+03 -0.10379998087E+02  0.46108058006E+03  0.15294330000E+03 0.  0.
<mgrwt>
<rscale>  0 0.68996198E+03</rscale>
<asrwt>0</asrwt>
<pdfrwt beam="1">  1        2 0.52910314E+00 0.78924401E+03</pdfrwt>
<pdfrwt beam="2">  1       -2 0.43720857E-01 0.78924401E+03</pdfrwt>
<totfact> 0.47718156E+00</totfact>
</mgrwt>
</event>
<event>
 4    1  0.8287789E-007  0.6854136E+03  0.7818608E-02  0.1006413E+00
          2   -1    0    0  501    0  0.00000000000E+00  0.00000000000E+00  0.75943937467E+03  0.75943937468E+03  0.25500000000E-02 0. -1.
         -2   -1    0    0    0  501 -0.00000000000E+00 -0.00000000000E+00 -0.49165666326E+03  0.49165666327E+03  0.25500000000E-02 0.  1.
    8880023    1    1    2    0    0  0.18923296552E+03  0.13131384940E+02  0.54959572342E+03  0.87854835608E+03  0.65864270000E+03 0. -1.
    8880022    1    1    2    0    0 -0.18923296552E+03 -0.13131384940E+02 -0.28181301201E+03  0.37254768186E+03  0.15294330000E+03 0.  0.
<mgrwt>
<rscale>  0 0.52925300E+03</rscale>
<asrwt>0</asrwt>
<pdfrwt beam="1">  1        2 0.11683683E+00 0.68541356E+03</pdfrwt>
<pdfrwt beam="2">  1       -2 0.75639487E-01 0.68541356E+03</pdfrwt>
<totfact> 0.58867329E+01</totfact>
</mgrwt>
</event>
<event>
 4    1  0.8287789E-007  0.6656921E+03  0.7818608E-02  0.1018960E+00
          2   -1    0    0  501    0  0.00000000000E+00  0.00000000000E+00  0.77537601868E+03  0.77537601869E+03  0.25500000000E-02 0. -1.
         -2   -1    0    0    0  501 -0.00000000000E+00 -0.00000000000E+00 -0.14997957736E+04  0.14997957736E+04  0.25500000000E-02 0.  1.
    8880023    1    1    2    0    0 -0.90098881658E+02  0.34899770669E+02  0.62533951388E+03  0.91334304418E+03  0.65864270000E+03 0. -1.
    8880022    1    1    2    0    0  0.90098881658E+02 -0.34899770669E+02 -0.13497592688E+04  0.13618287481E+04  0.15294330000E+03 0.  0.
<mgrwt>
<rscale>  0 0.48063910E+03</rscale>
<asrwt>0</asrwt>
<pdfrwt beam="1">  1        2 0.11928862E+00 0.66569213E+03</pdfrwt>
<pdfrwt beam="2">  1       -2 0.23073781E+00 0.66569213E+03</pdfrwt>
<totfact> 0.31613721E+00</totfact>
</mgrwt>
</event>
<event>
 4    1  0.8287789E-007  0.7008494E+03  0.7818608E-02  0.9993696E-01
         -2   -1    0    0    0  501 -0.00000000000E+00  0.00000000000E+00  0.80754295328E+03  0.80754295328E+03  0.25500000000E-02 0.  1.
          2   -1    0    0  501    0  0.00000000000E+00 -0.00000000000E+00 -0.30042546726E+03  0.30042546727E+03  0.25500000000E-02 0. -1.
    8880023    1    1    2    0    0  0.95878987846E+02  0.21951522585E+03  0.35576330484E+03  0.78597547673E+03  0.65864270000E+03 0.  0.
    8880022    1    1    2    0    0 -0.95878987846E+02 -0.21951522585E+03  0.15135418118E+03  0.32199294381E+03  0.15294330000E+03 0.  1.
<mgrwt>
<rscale>  0 0.55927541E+03</rscale>
<asrwt>0</asrwt>
<pdfrwt beam="1">  1        2 0.46219303E-01 0.70084943E+03</pdfrwt>
<pdfrwt beam="2">  1       -2 0.12423738E+00 0.70084943E+03</pdfrwt>
<totfact> 0.54086132E+01</totfact>
</mgrwt>
</event>
<event>
 4    1  0.8287789E-007  0.7726493E+03  0.7818608E-02  0.9773396E-01
         -2   -1    0    0    0  501 -0.00000000000E+00  0.00000000000E+00  0.49648588254E+03  0.49648588254E+03  0.25500000000E-02 0.  1.
          2   -1    0    0  501    0  0.00000000000E+00 -0.00000000000E+00 -0.17082511870E+04  0.17082511870E+04  0.25500000000E-02 0. -1.
    8880023    1    1    2    0    0  0.10830939757E+03 -0.38916048347E+03 -0.14987244716E+04  0.16861678610E+04  0.65864270000E+03 0.  0.
    8880022    1    1    2    0    0 -0.10830939757E+03  0.38916048347E+03  0.28695916708E+03  0.51856920858E+03  0.15294330000E+03 0.  0.
<mgrwt>
<rscale>  0 0.66810021E+03</rscale>
<asrwt>0</asrwt>
<pdfrwt beam="1">  1        2 0.26280787E+00 0.77264935E+03</pdfrwt>
<pdfrwt beam="2">  1       -2 0.76382444E-01 0.77264935E+03</pdfrwt>
<totfact> 0.15254098E+01</totfact>
</mgrwt>
</event>
<event>
 4    1  0.8287789E-007  0.8958586E+03  0.7818608E-02  0.9532713E-01
         -2   -1    0    0    0  501 -0.00000000000E+00  0.00000000000E+00  0.41634251443E+03  0.41634251444E+03  0.25500000000E-02 0.  1.
          2   -1    0    0  501    0  0.00000000000E+00 -0.00000000000E+00 -0.18255700149E+04  0.18255700149E+04  0.25500000000E-02 0. -1.
    8880023    1    1    2    0    0  0.16955924674E+03  0.58309700436E+03 -0.13400025008E+04  0.16118837933E+04  0.65864270000E+03 0.  0.
    8880022    1    1    2    0    0 -0.16955924674E+03 -0.58309700436E+03 -0.69224999643E+02  0.63002873604E+03  0.15294330000E+03 0.  0.
<mgrwt>
<rscale>  0 0.81914412E+03</rscale>
<asrwt>0</asrwt>
<pdfrwt beam="1">  1        2 0.28085692E+00 0.89585862E+03</pdfrwt>
<pdfrwt beam="2">  1       -2 0.64052695E-01 0.89585862E+03</pdfrwt>
<totfact> 0.19046896E+01</totfact>
</mgrwt>
</event>
<event>
 4    1  0.8287789E-007  0.7996798E+03  0.7818608E-02  0.9711489E-01
         -2   -1    0    0    0  501 -0.00000000000E+00  0.00000000000E+00  0.18492094018E+03  0.18492094020E+03  0.25500000000E-02 0.  1.
          2   -1    0    0  501    0  0.00000000000E+00 -0.00000000000E+00 -0.31495161110E+04  0.31495161110E+04  0.25500000000E-02 0. -1.
    8880023    1    1    2    0    0 -0.45280187029E+03  0.25456369314E+02 -0.26340825976E+04  0.27527947432E+04  0.65864270000E+03 0. -1.
    8880022    1    1    2    0    0  0.45280187029E+03 -0.25456369314E+02 -0.33051257318E+03  0.58164230806E+03  0.15294330000E+03 0.  0.
<mgrwt>
<rscale>  0 0.70336853E+03</rscale>
<asrwt>0</asrwt>
<pdfrwt beam="1">  1        2 0.48454090E+00 0.79967979E+03</pdfrwt>
<pdfrwt beam="2">  1       -2 0.28449378E-01 0.79967979E+03</pdfrwt>
<totfact> 0.16710376E+01</totfact>
</mgrwt>
</event>
<event>
 4    1  0.8287789E-007  0.7732344E+03  0.7818608E-02  0.9771976E-01
          2   -1    0    0  501    0  0.00000000000E+00  0.00000000000E+00  0.21320288098E+04  0.21320288098E+04  0.25500000000E-02 0. -1.
         -2   -1    0    0    0  501 -0.00000000000E+00 -0.00000000000E+00 -0.34409788042E+03  0.34409788043E+03  0.25500000000E-02 0.  1.
    8880023    1    1    2    0    0  0.39924437986E+03  0.68448651590E+02  0.18805830088E+04  0.20333430483E+04  0.65864270000E+03 0. -1.
    8880022    1    1    2    0    0 -0.39924437986E+03 -0.68448651590E+02 -0.92652079419E+02  0.44278364196E+03  0.15294330000E+03 0.  0.
<mgrwt>
<rscale>  0 0.66888386E+03</rscale>
<asrwt>0</asrwt>
<pdfrwt beam="1">  1        2 0.32800443E+00 0.77323444E+03</pdfrwt>
<pdfrwt beam="2">  1       -2 0.52938136E-01 0.77323444E+03</pdfrwt>
<totfact> 0.19613586E+01</totfact>
</mgrwt>
</event>
<event>
 4    1  0.8287789E-007  0.7009964E+03  0.7818608E-02  0.9993093E-01
          2   -1    0    0  501    0  0.00000000000E+00  0.00000000000E+00  0.14133497002E+04  0.14133497002E+04  0.25500000000E-02 0. -1.
         -2   -1    0    0    0  501 -0.00000000000E+00 -0.00000000000E+00 -0.22250451760E+03  0.22250451762E+03  0.25500000000E-02 0.  1.
    8880023    1    1    2    0    0 -0.23109503800E+03 -0.64659474799E+02  0.11521836756E+04  0.13486746060E+04  0.65864270000E+03 0. -1.
    8880022    1    1    2    0    0  0.23109503800E+03  0.64659474799E+02  0.38661506911E+02  0.28717961175E+03  0.15294330000E+03 0.  0.
<mgrwt>
<rscale>  0 0.55954154E+03</rscale>
<asrwt>0</asrwt>
<pdfrwt beam="1">  1        2 0.21743842E+00 0.70099641E+03</pdfrwt>
<pdfrwt beam="2">  1       -2 0.34231464E-01 0.70099641E+03</pdfrwt>
<totfact> 0.11600269E+02</totfact>
</mgrwt>
</event>
<event>
 4    1  0.8287789E-007  0.1139770E+04  0.7818608E-02  0.9218018E-01
         -2   -1    0    0    0  501 -0.00000000000E+00  0.00000000000E+00  0.58862676924E+03  0.58862676925E+03  0.25500000000E-02 0.  1.
          2   -1    0    0  501    0  0.00000000000E+00 -0.00000000000E+00 -0.20350869421E+04  0.20350869421E+04  0.25500000000E-02 0. -1.
    8880023    1    1    2    0    0  0.92344210225E+03 -0.11189169393E+03 -0.38256626076E+03  0.12022612934E+04  0.65864270000E+03 0.  0.
    8880022    1    1    2    0    0 -0.92344210225E+03  0.11189169393E+03 -0.10638939121E+04  0.14214524180E+04  0.15294330000E+03 0.  0.
<mgrwt>
<rscale>  0 0.10869376E+04</rscale>
<asrwt>0</asrwt>
<pdfrwt beam="1">  1        2 0.31309030E+00 0.11397698E+04</pdfrwt>
<pdfrwt beam="2">  1       -2 0.90557965E-01 0.11397698E+04</pdfrwt>
<totfact> 0.65641141E+00</totfact>
</mgrwt>
</event>
<event>
 4    1  0.8287789E-007  0.8621043E+03  0.7818608E-02  0.9589831E-01
          2   -1    0    0  501    0  0.00000000000E+00  0.00000000000E+00  0.23821451964E+04  0.23821451964E+04  0.25500000000E-02 0. -1.
         -2   -1    0    0    0  501 -0.00000000000E+00 -0.00000000000E+00 -0.35547936575E+03  0.35547936576E+03  0.25500000000E-02 0.  1.
    8880023    1    1    2    0    0 -0.27797514742E+03  0.48181270209E+03  0.29306285436E+03  0.91055461415E+03  0.65864270000E+03 0.  1.
    8880022    1    1    2    0    0  0.27797514742E+03 -0.48181270209E+03  0.17336029763E+04  0.18270699480E+04  0.15294330000E+03 0.  0.
<mgrwt>
<rscale>  0 0.77972893E+03</rscale>
<asrwt>0</asrwt>
<pdfrwt beam="1">  1        2 0.36648387E+00 0.86210433E+03</pdfrwt>
<pdfrwt beam="2">  1       -2 0.54689134E-01 0.86210433E+03</pdfrwt>
<totfact> 0.13155842E+01</totfact>
</mgrwt>
</event>
<event>
 4    1  0.8287789E-007  0.9407229E+03  0.7818608E-02  0.9463589E-01
         -2   -1    0    0    0  501 -0.00000000000E+00  0.00000000000E+00  0.81102805637E+03  0.81102805637E+03  0.25500000000E-02 0.  1.
          2   -1    0    0  501    0  0.00000000000E+00 -0.00000000000E+00 -0.82719771055E+03  0.82719771055E+03  0.25500000000E-02 0. -1.
    8880023    1    1    2    0    0 -0.58836720156E+03  0.32399588166E+03 -0.91925016286E+02  0.94520352839E+03  0.65864270000E+03 0. -1.
    8880022    1    1    2    0    0  0.58836720156E+03 -0.32399588166E+03  0.75755362107E+02  0.69302223853E+03  0.15294330000E+03 0.  1.
<mgrwt>
<rscale>  0 0.87022286E+03</rscale>
<asrwt>0</asrwt>
<pdfrwt beam="1">  1        2 0.12726119E+00 0.94072286E+03</pdfrwt>
<pdfrwt beam="2">  1       -2 0.12477355E+00 0.94072286E+03</pdfrwt>
<totfact> 0.15824438E+01</totfact>
</mgrwt>
</event>
<event>
 4    1  0.8287789E-007  0.6751231E+03  0.7818608E-02  0.1012229E+00
          2   -1    0    0  501    0  0.00000000000E+00  0.00000000000E+00  0.70410489135E+03  0.70410489135E+03  0.25500000000E-02 0. -1.
         -2   -1    0    0    0  501 -0.00000000000E+00 -0.00000000000E+00 -0.44994875236E+03  0.44994875237E+03  0.25500000000E-02 0.  1.
    8880023    1    1    2    0    0  0.14811343730E+03 -0.65833617493E+01  0.49154430376E+03  0.83510893887E+03  0.65864270000E+03 0. -1.
    8880022    1    1    2    0    0 -0.14811343730E+03  0.65833617493E+01 -0.23738816478E+03  0.31894470485E+03  0.15294330000E+03 0.  0.
<mgrwt>
<rscale>  0 0.50598354E+03</rscale>
<asrwt>0</asrwt>
<pdfrwt beam="1">  1        2 0.10832383E+00 0.67512305E+03</pdfrwt>
<pdfrwt beam="2">  1       -2 0.69222885E-01 0.67512305E+03</pdfrwt>
<totfact> 0.78838537E+01</totfact>
</mgrwt>
</event>
<event>
 4    1  0.8287789E-007  0.8134541E+03  0.7818608E-02  0.9682427E-01
          2   -1    0    0  501    0  0.00000000000E+00  0.00000000000E+00  0.38084581226E+04  0.38084581226E+04  0.25500000000E-02 0. -1.
         -2   -1    0    0    0  501 -0.00000000000E+00 -0.00000000000E+00 -0.44284545211E+03  0.44284545212E+03  0.25500000000E-02 0.  1.
    8880023    1    1    2    0    0  0.33468427021E+03 -0.34041698977E+03  0.36051088771E+04  0.36957431606E+04  0.65864270000E+03 0.  0.
    8880022    1    1    2    0    0 -0.33468427021E+03  0.34041698977E+03 -0.23949620662E+03  0.55556041404E+03  0.15294330000E+03 0.  0.
<mgrwt>
<rscale>  0 0.72072808E+03</rscale>
<asrwt>0</asrwt>
<pdfrwt beam="1">  1        2 0.58591661E+00 0.81345405E+03</pdfrwt>
<pdfrwt beam="2">  1       -2 0.68130072E-01 0.81345405E+03</pdfrwt>
<totfact> 0.10368138E+00</totfact>
</mgrwt>
</event>
<event>
 4    1  0.8287789E-007  0.7439117E+03  0.7818608E-02  0.9848696E-01
         -2   -1    0    0    0  501 -0.00000000000E+00  0.00000000000E+00  0.13183865819E+03  0.13183865822E+03  0.25500000000E-02 0.  1.
          2   -1    0    0  501    0  0.00000000000E+00 -0.00000000000E+00 -0.36174518417E+04  0.36174518417E+04  0.25500000000E-02 0. -1.
    8880023    1    1    2    0    0  0.16348402420E+03 -0.30474148067E+03 -0.31718877930E+04  0.32579559195E+04  0.65864270000E+03 0. -1.
    8880022    1    1    2    0    0 -0.16348402420E+03  0.30474148067E+03 -0.31372539057E+03  0.49133458041E+03  0.15294330000E+03 0.  0.
<mgrwt>
<rscale>  0 0.62813464E+03</rscale>
<asrwt>0</asrwt>
<pdfrwt beam="1">  1        2 0.55653098E+00 0.74391169E+03</pdfrwt>
<pdfrwt beam="2">  1       -2 0.20282873E-01 0.74391169E+03</pdfrwt>
<totfact> 0.15133717E+01</totfact>
</mgrwt>
</event>
<event>
 4    1  0.8287789E-007  0.7842092E+03  0.7818608E-02  0.9746041E-01
         -2   -1    0    0    0  501 -0.00000000000E+00  0.00000000000E+00  0.35932355225E+03  0.35932355226E+03  0.25500000000E-02 0.  1.
          2   -1    0    0  501    0  0.00000000000E+00 -0.00000000000E+00 -0.15359562148E+04  0.15359562148E+04  0.25500000000E-02 0. -1.
    8880023    1    1    2    0    0  0.83436765954E+01 -0.42556336664E+03 -0.18553527319E+03  0.80585813877E+03  0.65864270000E+03 0.  1.
    8880022    1    1    2    0    0 -0.83436765954E+01  0.42556336664E+03 -0.99109738933E+03  0.10894216283E+04  0.15294330000E+03 0.  0.
<mgrwt>
<rscale>  0 0.68340471E+03</rscale>
<asrwt>0</asrwt>
<pdfrwt beam="1">  1        2 0.23630095E+00 0.78420916E+03</pdfrwt>
<pdfrwt beam="2">  1       -2 0.55280547E-01 0.78420916E+03</pdfrwt>
<totfact> 0.37991010E+01</totfact>
</mgrwt>
</event>
<event>
 4    1  0.8287789E-007  0.7463633E+03  0.7818608E-02  0.9841784E-01
          2   -1    0    0  501    0  0.00000000000E+00  0.00000000000E+00  0.16476832703E+04  0.16476832703E+04  0.25500000000E-02 0. -1.
         -2   -1    0    0    0  501 -0.00000000000E+00 -0.00000000000E+00 -0.21457603748E+03  0.21457603749E+03  0.25500000000E-02 0.  1.
    8880023    1    1    2    0    0 -0.49655042762E+02  0.34753762747E+03  0.64665554389E+03  0.98753310045E+03  0.65864270000E+03 0.  1.
    8880022    1    1    2    0    0  0.49655042762E+02 -0.34753762747E+03  0.78645168893E+03  0.87472620734E+03  0.15294330000E+03 0.  0.
<mgrwt>
<rscale>  0 0.63167569E+03</rscale>
<asrwt>0</asrwt>
<pdfrwt beam="1">  1        2 0.25348974E+00 0.74636334E+03</pdfrwt>
<pdfrwt beam="2">  1       -2 0.33011697E-01 0.74636334E+03</pdfrwt>
<totfact> 0.91705721E+01</totfact>
</mgrwt>
</event>
<event>
 4    1  0.8287789E-007  0.7043959E+03  0.7818608E-02  0.9979432E-01
          2   -1    0    0  501    0  0.00000000000E+00  0.00000000000E+00  0.13761191173E+04  0.13761191173E+04  0.25500000000E-02 0. -1.
         -2   -1    0    0    0  501 -0.00000000000E+00 -0.00000000000E+00 -0.34246225170E+03  0.34246225171E+03  0.25500000000E-02 0.  1.
    8880023    1    1    2    0    0  0.23255230535E+03 -0.91009713822E+02  0.11928241762E+04  0.13852808612E+04  0.65864270000E+03 0. -1.
    8880022    1    1    2    0    0 -0.23255230535E+03  0.91009713822E+02 -0.15916731062E+03  0.33330050783E+03  0.15294330000E+03 0.  0.
<mgrwt>
<rscale>  0 0.56561385E+03</rscale>
<asrwt>0</asrwt>
<pdfrwt beam="1">  1        2 0.21171063E+00 0.70439588E+03</pdfrwt>
<pdfrwt beam="2">  1       -2 0.52686501E-01 0.70439588E+03</pdfrwt>
<totfact> 0.52008713E+01</totfact>
</mgrwt>
</event>
<event>
 4    1  0.8287789E-007  0.8082135E+03  0.7818608E-02  0.9693310E-01
         -2   -1    0    0    0  501 -0.00000000000E+00  0.00000000000E+00  0.83501853880E+03  0.83501853880E+03  0.25500000000E-02 0.  1.
          2   -1    0    0  501    0  0.00000000000E+00 -0.00000000000E+00 -0.64283748867E+03  0.64283748868E+03  0.25500000000E-02 0. -1.
    8880023    1    1    2    0    0 -0.38645750726E+03  0.26466869245E+03 -0.21759402022E+03  0.83699240473E+03  0.65864270000E+03 0. -1.
    8880022    1    1    2    0    0  0.38645750726E+03 -0.26466869245E+03  0.40977507034E+03  0.64086362275E+03  0.15294330000E+03 0.  1.
<mgrwt>
<rscale>  0 0.71416501E+03</rscale>
<asrwt>0</asrwt>
<pdfrwt beam="1">  1        2 0.98898075E-01 0.80821354E+03</pdfrwt>
<pdfrwt beam="2">  1       -2 0.12846439E+00 0.80821354E+03</pdfrwt>
<totfact> 0.20573342E+01</totfact>
</mgrwt>
</event>
<event>
 4    1  0.8287789E-007  0.8220589E+03  0.7818608E-02  0.9664985E-01
          2   -1    0    0  501    0  0.00000000000E+00  0.00000000000E+00  0.18461545371E+04  0.18461545371E+04  0.25500000000E-02 0. -1.
         -2   -1    0    0    0  501 -0.00000000000E+00 -0.00000000000E+00 -0.37650895530E+03  0.37650895531E+03  0.25500000000E-02 0.  1.
    8880023    1    1    2    0    0 -0.18262889900E+03  0.45674652937E+03  0.14958616455E+04  0.17068634906E+04  0.65864270000E+03 0. -1.
    8880022    1    1    2    0    0  0.18262889900E+03 -0.45674652937E+03 -0.26216063698E+02  0.51580000180E+03  0.15294330000E+03 0.  0.
<mgrwt>
<rscale>  0 0.73140367E+03</rscale>
<asrwt>0</asrwt>
<pdfrwt beam="1">  1        2 0.28402377E+00 0.82205895E+03</pdfrwt>
<pdfrwt beam="2">  1       -2 0.57924455E-01 0.82205895E+03</pdfrwt>
<totfact> 0.23171399E+01</totfact>
</mgrwt>
</event>
<event>
 4    1  0.8287789E-007  0.6817643E+03  0.7818608E-02  0.1008343E+00
          2   -1    0    0  501    0  0.00000000000E+00  0.00000000000E+00  0.64633763685E+03  0.64633763685E+03  0.25500000000E-02 0. -1.
         -2   -1    0    0    0  501 -0.00000000000E+00 -0.00000000000E+00 -0.41259936918E+03  0.41259936918E+03  0.25500000000E-02 0.  1.
    8880023    1    1    2    0    0  0.90106898108E+02  0.15123852550E+03  0.38307463600E+03  0.78201581038E+03  0.65864270000E+03 0. -1.
    8880022    1    1    2    0    0 -0.90106898108E+02 -0.15123852550E+03 -0.14933636832E+03  0.27692119565E+03  0.15294330000E+03 0.  0.
<mgrwt>
<rscale>  0 0.52138626E+03</rscale>
<asrwt>0</asrwt>
<pdfrwt beam="1">  1        2 0.99436560E-01 0.68176429E+03</pdfrwt>
<pdfrwt beam="2">  1       -2 0.63476826E-01 0.68176429E+03</pdfrwt>
<totfact> 0.10565067E+02</totfact>
</mgrwt>
</event>
<event>
 4    1  0.9738848E-007  0.6627725E+03  0.7818608E-02  0.1021480E+00
         -2   -1    0    0    0  501 -0.00000000000E+00  0.00000000000E+00  0.75113877348E+03  0.75113877348E+03  0.25500000000E-02 0.  1.
          2   -1    0    0  501    0  0.00000000000E+00 -0.00000000000E+00 -0.14831226350E+04  0.14831226350E+04  0.25500000000E-02 0. -1.
    8880023    1    1    2    0    0  0.43590218934E+02  0.59641735344E+02 -0.13978820540E+04  0.15470428847E+04  0.65864270000E+03 0. -1.
    8880022    1    1    2    0    0 -0.43590218934E+02 -0.59641735344E+02  0.66589819247E+03  0.68721852385E+03  0.15294330000E+03 0.  0.
<mgrwt>
<rscale>  0 0.47156280E+03</rscale>
<asrwt>0</asrwt>
<pdfrwt beam="1">  1        2 0.22817271E+00 0.66277255E+03</pdfrwt>
<pdfrwt beam="2">  1       -2 0.11555981E+00 0.66277255E+03</pdfrwt>
<totfact> 0.78492601E+00</totfact>
</mgrwt>
</event>
<event>
 4    1  0.8287789E-007  0.6665861E+03  0.7818608E-02  0.1018238E+00
          2   -1    0    0  501    0  0.00000000000E+00  0.00000000000E+00  0.10647130169E+04  0.10647130169E+04  0.25500000000E-02 0. -1.
         -2   -1    0    0    0  501 -0.00000000000E+00 -0.00000000000E+00 -0.61885768328E+03  0.61885768328E+03  0.25500000000E-02 0.  1.
    8880023    1    1    2    0    0  0.10143812422E+03  0.15399243195E+02  0.94220139296E+03  0.11541579185E+04  0.65864270000E+03 0. -1.
    8880022    1    1    2    0    0 -0.10143812422E+03 -0.15399243195E+02 -0.49634605934E+03  0.52941278165E+03  0.15294330000E+03 0.  0.
<mgrwt>
<rscale>  0 0.48327769E+03</rscale>
<asrwt>0</asrwt>
<pdfrwt beam="1">  1        2 0.16380200E+00 0.66658611E+03</pdfrwt>
<pdfrwt beam="2">  1       -2 0.95208875E-01 0.66658611E+03</pdfrwt>
<totfact> 0.21816806E+01</totfact>
</mgrwt>
</event>
<event>
 4    1  0.8287789E-007  0.6781085E+03  0.7818608E-02  0.1010414E+00
          2   -1    0    0  501    0  0.00000000000E+00  0.00000000000E+00  0.17074069347E+04  0.17074069347E+04  0.25500000000E-02 0. -1.
         -2   -1    0    0    0  501 -0.00000000000E+00 -0.00000000000E+00 -0.29020808170E+03  0.29020808171E+03  0.25500000000E-02 0.  1.
    8880023    1    1    2    0    0 -0.16117898957E+03 -0.65018149697E+01  0.15817960076E+04  0.17210199755E+04  0.65864270000E+03 0. -1.
    8880022    1    1    2    0    0  0.16117898957E+03  0.65018149697E+01 -0.16459715465E+03  0.27659504083E+03  0.15294330000E+03 0.  0.
<mgrwt>
<rscale>  0 0.51310246E+03</rscale>
<asrwt>0</asrwt>
<pdfrwt beam="1">  1        2 0.26267799E+00 0.67810851E+03</pdfrwt>
<pdfrwt beam="2">  1       -2 0.44647397E-01 0.67810851E+03</pdfrwt>
<totfact> 0.47781635E+01</totfact>
</mgrwt>
</event>
<event>
 4    1  0.8287789E-007  0.1014825E+04  0.7818608E-02  0.9362414E-01
          2   -1    0    0  501    0  0.00000000000E+00  0.00000000000E+00  0.12563720825E+04  0.12563720825E+04  0.25500000000E-02 0. -1.
         -2   -1    0    0    0  501 -0.00000000000E+00 -0.00000000000E+00 -0.93065586029E+03  0.93065586029E+03  0.25500000000E-02 0.  1.
    8880023    1    1    2    0    0 -0.61034508071E+03  0.47279902939E+03  0.77849251426E+03  0.12790312118E+04  0.65864270000E+03 0. -1.
    8880022    1    1    2    0    0  0.61034508071E+03 -0.47279902939E+03 -0.45277629209E+03  0.90799673096E+03  0.15294330000E+03 0.  0.
<mgrwt>
<rscale>  0 0.95234515E+03</rscale>
<asrwt>0</asrwt>
<pdfrwt beam="1">  1        2 0.19328801E+00 0.10148252E+04</pdfrwt>
<pdfrwt beam="2">  1       -2 0.14317783E+00 0.10148252E+04</pdfrwt>
<totfact> 0.58814514E+00</totfact>
</mgrwt>
</event>
<event>
 4    1  0.1347899E-006  0.7329574E+03  0.7818608E-02  0.9880958E-01
          2   -1    0    0  501    0  0.00000000000E+00  0.00000000000E+00  0.13029865566E+04  0.13029865566E+04  0.25500000000E-02 0. -1.
         -2   -1    0    0    0  501 -0.00000000000E+00 -0.00000000000E+00 -0.13025385517E+04  0.13025385517E+04  0.25500000000E-02 0.  1.
    8880023    1    1    2    0    0  0.36264130704E+02 -0.31953285647E+03  0.11712951964E+04  0.13817231911E+04  0.65864270000E+03 0.  0.
    8880022    1    1    2    0    0 -0.36264130704E+02  0.31953285647E+03 -0.11708471915E+04  0.12238019172E+04  0.15294330000E+03 0.  0.
<mgrwt>
<rscale>  0 0.61193088E+03</rscale>
<asrwt>0</asrwt>
<pdfrwt beam="1">  1        2 0.20045947E+00 0.73295739E+03</pdfrwt>
<pdfrwt beam="2">  1       -2 0.20039055E+00 0.73295739E+03</pdfrwt>
<totfact> 0.22461289E+00</totfact>
</mgrwt>
</event>
<event>
 4    1  0.8287789E-007  0.7161015E+03  0.7818608E-02  0.9936005E-01
         -2   -1    0    0    0  501 -0.00000000000E+00  0.00000000000E+00  0.32314279107E+03  0.32314279108E+03  0.25500000000E-02 0.  1.
          2   -1    0    0  501    0  0.00000000000E+00 -0.00000000000E+00 -0.95917202852E+03  0.95917202853E+03  0.25500000000E-02 0. -1.
    8880023    1    1    2    0    0  0.22873336546E+03 -0.16331618661E+03 -0.64277780232E+03  0.96227056419E+03  0.65864270000E+03 0.  0.
    8880022    1    1    2    0    0 -0.22873336546E+03  0.16331618661E+03  0.67485648758E+01  0.32004425542E+03  0.15294330000E+03 0.  0.
<mgrwt>
<rscale>  0 0.58547627E+03</rscale>
<asrwt>0</asrwt>
<pdfrwt beam="1">  1        2 0.14756493E+00 0.71610148E+03</pdfrwt>
<pdfrwt beam="2">  1       -2 0.49714276E-01 0.71610148E+03</pdfrwt>
<totfact> 0.10411775E+02</totfact>
</mgrwt>
</event>
<event>
 4    1  0.8287789E-007  0.6633849E+03  0.7818608E-02  0.1020929E+00
         -2   -1    0    0    0  501 -0.00000000000E+00  0.00000000000E+00  0.14378690920E+03  0.14378690923E+03  0.25500000000E-02 0.  1.
          2   -1    0    0  501    0  0.00000000000E+00 -0.00000000000E+00 -0.25343197575E+04  0.25343197575E+04  0.25500000000E-02 0. -1.
    8880023    1    1    2    0    0  0.55959060374E+02 -0.56016467587E+02 -0.24147255886E+04  0.25041923120E+04  0.65864270000E+03 0. -1.
    8880022    1    1    2    0    0 -0.55959060374E+02  0.56016467587E+02  0.24192740296E+02  0.17391435472E+03  0.15294330000E+03 0.  0.
<mgrwt>
<rscale>  0 0.47352971E+03</rscale>
<asrwt>0</asrwt>
<pdfrwt beam="1">  1        2 0.38989531E+00 0.66338486E+03</pdfrwt>
<pdfrwt beam="2">  1       -2 0.22121065E-01 0.66338486E+03</pdfrwt>
<totfact> 0.62530746E+01</totfact>
</mgrwt>
</event>
<event>
 4    1  0.8287789E-007  0.7296734E+03  0.7818608E-02  0.9891118E-01
         -2   -1    0    0    0  501 -0.00000000000E+00  0.00000000000E+00  0.16847443479E+04  0.16847443479E+04  0.25500000000E-02 0.  1.
          2   -1    0    0  501    0  0.00000000000E+00 -0.00000000000E+00 -0.23333085348E+03  0.23333085350E+03  0.25500000000E-02 0. -1.
    8880023    1    1    2    0    0  0.25681274292E+03 -0.18072136513E+03  0.44948315300E+03  0.85700543046E+03  0.65864270000E+03 0. -1.
    8880022    1    1    2    0    0 -0.25681274292E+03  0.18072136513E+03  0.10019303414E+04  0.10610697710E+04  0.15294330000E+03 0.  0.
<mgrwt>
<rscale>  0 0.60693672E+03</rscale>
<asrwt>0</asrwt>
<pdfrwt beam="1">  1        2 0.35897054E-01 0.72967335E+03</pdfrwt>
<pdfrwt beam="2">  1       -2 0.25919144E+00 0.72967335E+03</pdfrwt>
<totfact> 0.84581747E+00</totfact>
</mgrwt>
</event>
<event>
 4    1  0.8287789E-007  0.1576935E+04  0.7818608E-02  0.8857137E-01
          2   -1    0    0  501    0  0.00000000000E+00  0.00000000000E+00  0.30295281372E+04  0.30295281372E+04  0.25500000000E-02 0. -1.
         -2   -1    0    0    0  501 -0.00000000000E+00 -0.00000000000E+00 -0.13969613231E+04  0.13969613231E+04  0.25500000000E-02 0.  1.
    8880023    1    1    2    0    0 -0.43617694336E+03  0.13647937267E+04 -0.66745919070E+03  0.17123738552E+04  0.65864270000E+03 0.  0.
    8880022    1    1    2    0    0  0.43617694336E+03 -0.13647937267E+04  0.23000260048E+04  0.27141156051E+04  0.15294330000E+03 0.  0.
<mgrwt>
<rscale>  0 0.15417772E+04</rscale>
<asrwt>0</asrwt>
<pdfrwt beam="1">  1        2 0.46608125E+00 0.15769345E+04</pdfrwt>
<pdfrwt beam="2">  1       -2 0.21491713E+00 0.15769345E+04</pdfrwt>
<totfact> 0.16572703E-01</totfact>
</mgrwt>
</event>
<event>
 4    1  0.8287789E-007  0.1129464E+04  0.7818608E-02  0.9228939E-01
          2   -1    0    0  501    0  0.00000000000E+00  0.00000000000E+00  0.12010656381E+04  0.12010656382E+04  0.25500000000E-02 0. -1.
         -2   -1    0    0    0  501 -0.00000000000E+00 -0.00000000000E+00 -0.34907175267E+04  0.34907175267E+04  0.25500000000E-02 0.  1.
    8880023    1    1    2    0    0  0.78744351840E+03  0.47096895201E+03  0.85234442009E+03  0.14149841925E+04  0.65864270000E+03 0.  0.
    8880022    1    1    2    0    0 -0.78744351840E+03 -0.47096895201E+03 -0.31419963087E+04  0.32767989723E+04  0.15294330000E+03 0.  0.
<mgrwt>
<rscale>  0 0.10759655E+04</rscale>
<asrwt>0</asrwt>
<pdfrwt beam="1">  1        2 0.18477933E+00 0.11294641E+04</pdfrwt>
<pdfrwt beam="2">  1       -2 0.53703346E+00 0.11294641E+04</pdfrwt>
<totfact> 0.18462829E-02</totfact>
</mgrwt>
</event>
<event>
 4    1  0.8287789E-007  0.1033877E+04  0.7818608E-02  0.9338520E-01
          2   -1    0    0  501    0  0.00000000000E+00  0.00000000000E+00  0.18564109537E+04  0.18564109537E+04  0.25500000000E-02 0. -1.
         -2   -1    0    0    0  501 -0.00000000000E+00 -0.00000000000E+00 -0.47460231192E+03  0.47460231192E+03  0.25500000000E-02 0.  1.
    8880023    1    1    2    0    0 -0.31202227095E+03  0.73330259908E+03  0.98395944801E+03  0.14272620646E+04  0.65864270000E+03 0.  1.
    8880022    1    1    2    0    0  0.31202227095E+03 -0.73330259908E+03  0.39784919376E+03  0.90375120104E+03  0.15294330000E+03 0.  0.
<mgrwt>
<rscale>  0 0.97312703E+03</rscale>
<asrwt>0</asrwt>
<pdfrwt beam="1">  1        2 0.28560168E+00 0.10338766E+04</pdfrwt>
<pdfrwt beam="2">  1       -2 0.73015742E-01 0.10338766E+04</pdfrwt>
<totfact> 0.13569191E+01</totfact>
</mgrwt>
</event>
<event>
 4    1  0.8287789E-007  0.7309342E+03  0.7818608E-02  0.9887188E-01
         -2   -1    0    0    0  501 -0.00000000000E+00  0.00000000000E+00  0.57335416568E+03  0.57335416568E+03  0.25500000000E-02 0.  1.
          2   -1    0    0  501    0  0.00000000000E+00 -0.00000000000E+00 -0.69413190989E+03  0.69413190989E+03  0.25500000000E-02 0. -1.
    8880023    1    1    2    0    0 -0.12143359407E+03 -0.29276001137E+03 -0.38620703723E+03  0.82669258125E+03  0.65864270000E+03 0. -1.
    8880022    1    1    2    0    0  0.12143359407E+03  0.29276001137E+03  0.26542929302E+03  0.44079349432E+03  0.15294330000E+03 0.  1.
<mgrwt>
<rscale>  0 0.60886222E+03</rscale>
<asrwt>0</asrwt>
<pdfrwt beam="1">  1        2 0.10678952E+00 0.73093416E+03</pdfrwt>
<pdfrwt beam="2">  1       -2 0.88208333E-01 0.73093416E+03</pdfrwt>
<totfact> 0.46502889E+01</totfact>
</mgrwt>
</event>
<event>
 4    1  0.8287789E-007  0.6786891E+03  0.7818608E-02  0.1010075E+00
          2   -1    0    0  501    0  0.00000000000E+00  0.00000000000E+00  0.27327088701E+04  0.27327088701E+04  0.25500000000E-02 0. -1.
         -2   -1    0    0    0  501 -0.00000000000E+00 -0.00000000000E+00 -0.81926525077E+02  0.81926525116E+02  0.25500000000E-02 0.  1.
    8880023    1    1    2    0    0 -0.11196315869E+03 -0.11946935802E+03  0.23030574560E+04  0.24009774111E+04  0.65864270000E+03 0.  1.
    8880022    1    1    2    0    0  0.11196315869E+03  0.11946935802E+03  0.34772488896E+03  0.41365798412E+03  0.15294330000E+03 0.  0.
<mgrwt>
<rscale>  0 0.51444799E+03</rscale>
<asrwt>0</asrwt>
<pdfrwt beam="1">  1        2 0.42041673E+00 0.67868909E+03</pdfrwt>
<pdfrwt beam="2">  1       -2 0.12604081E-01 0.67868909E+03</pdfrwt>
<totfact> 0.12560578E+02</totfact>
</mgrwt>
</event>
<event>
 4    1  0.8287789E-007  0.6952116E+03  0.7818608E-02  0.1001768E+00
          2   -1    0    0  501    0  0.00000000000E+00  0.00000000000E+00  0.12347165816E+04  0.12347165816E+04  0.25500000000E-02 0. -1.
         -2   -1    0    0    0  501 -0.00000000000E+00 -0.00000000000E+00 -0.57962593889E+03  0.57962593890E+03  0.25500000000E-02 0.  1.
    8880023    1    1    2    0    0  0.16555973467E+03  0.14865715526E+03  0.10956663780E+04  0.12976147324E+04  0.65864270000E+03 0. -1.
    8880022    1    1    2    0    0 -0.16555973467E+03 -0.14865715526E+03 -0.44057573525E+03  0.51672778816E+03  0.15294330000E+03 0.  0.
<mgrwt>
<rscale>  0 0.54881904E+03</rscale>
<asrwt>0</asrwt>
<pdfrwt beam="1">  1        2 0.18995640E+00 0.69521161E+03</pdfrwt>
<pdfrwt beam="2">  1       -2 0.89173221E-01 0.69521161E+03</pdfrwt>
<totfact> 0.20007809E+01</totfact>
</mgrwt>
</event>
<event>
 4    1  0.8287789E-007  0.7004455E+03  0.7818608E-02  0.9995358E-01
          2   -1    0    0  501    0  0.00000000000E+00  0.00000000000E+00  0.39395227571E+03  0.39395227572E+03  0.25500000000E-02 0. -1.
         -2   -1    0    0    0  501 -0.00000000000E+00 -0.00000000000E+00 -0.73639125301E+03  0.73639125301E+03  0.25500000000E-02 0.  1.
    8880023    1    1    2    0    0 -0.23289599815E+03  0.50725498806E+02 -0.19364605382E+02  0.70071307708E+03  0.65864270000E+03 0. -1.
    8880022    1    1    2    0    0  0.23289599815E+03 -0.50725498806E+02 -0.32307437192E+03  0.42963045165E+03  0.15294330000E+03 0.  0.
<mgrwt>
<rscale>  0 0.55854235E+03</rscale>
<asrwt>0</asrwt>
<pdfrwt beam="1">  1        2 0.60608043E-01 0.70044545E+03</pdfrwt>
<pdfrwt beam="2">  1       -2 0.11329096E+00 0.70044545E+03</pdfrwt>
<totfact> 0.50188906E+01</totfact>
</mgrwt>
</event>
<event>
 4    1  0.1437096E-006  0.6634436E+03  0.7818608E-02  0.1020876E+00
          2   -1    0    0  501    0  0.00000000000E+00  0.00000000000E+00  0.20588178215E+04  0.20588178215E+04  0.25500000000E-02 0. -1.
         -2   -1    0    0    0  501 -0.00000000000E+00 -0.00000000000E+00 -0.97687835082E+03  0.97687835082E+03  0.25500000000E-02 0.  1.
    8880023    1    1    2    0    0  0.21025383580E+02  0.76844903444E+02  0.19971070860E+04  0.21044225158E+04  0.65864270000E+03 0. -1.
    8880022    1    1    2    0    0 -0.21025383580E+02 -0.76844903444E+02 -0.91516761537E+03  0.93127365644E+03  0.15294330000E+03 0.  0.
<mgrwt>
<rscale>  0 0.47371654E+03</rscale>
<asrwt>0</asrwt>
<pdfrwt beam="1">  1        2 0.31674120E+00 0.66344360E+03</pdfrwt>
<pdfrwt beam="2">  1       -2 0.15028898E+00 0.66344360E+03</pdfrwt>
<totfact> 0.19535380E+00</totfact>
</mgrwt>
</event>
<event>
 4    1  0.8287789E-007  0.6770890E+03  0.7818608E-02  0.1011021E+00
         -2   -1    0    0    0  501 -0.00000000000E+00  0.00000000000E+00  0.16569409539E+04  0.16569409539E+04  0.25500000000E-02 0.  1.
          2   -1    0    0  501    0  0.00000000000E+00 -0.00000000000E+00 -0.32982215145E+03  0.32982215146E+03  0.25500000000E-02 0. -1.
    8880023    1    1    2    0    0  0.51926751182E+02  0.14813134875E+03  0.36932793935E+02  0.67809551060E+03  0.65864270000E+03 0. -1.
    8880022    1    1    2    0    0 -0.51926751182E+02 -0.14813134875E+03  0.12901860085E+04  0.13086675947E+04  0.15294330000E+03 0.  0.
<mgrwt>
<rscale>  0 0.51071010E+03</rscale>
<asrwt>0</asrwt>
<pdfrwt beam="1">  1        2 0.50741868E-01 0.67708898E+03</pdfrwt>
<pdfrwt beam="2">  1       -2 0.25491400E+00 0.67708898E+03</pdfrwt>
<totfact> 0.61466474E+00</totfact>
</mgrwt>
</event>
<event>
 4    1  0.8287789E-007  0.8274893E+03  0.7818608E-02  0.9654237E-01
         -2   -1    0    0    0  501 -0.00000000000E+00  0.00000000000E+00  0.17050748733E+03  0.17050748735E+03  0.25500000000E-02 0.  1.
          2   -1    0    0  501    0  0.00000000000E+00 -0.00000000000E+00 -0.32997034797E+04  0.32997034797E+04  0.25500000000E-02 0. -1.
    8880023    1    1    2    0    0  0.47009134632E+03 -0.17303877205E+03 -0.25880131584E+04  0.27170849462E+04  0.65864270000E+03 0.  0.
    8880022    1    1    2    0    0 -0.47009134632E+03  0.17303877205E+03 -0.54118283404E+03  0.75312602092E+03  0.15294330000E+03 0.  0.
<mgrwt>
<rscale>  0 0.73808088E+03</rscale>
<asrwt>0</asrwt>
<pdfrwt beam="1">  1        2 0.50764664E+00 0.82748927E+03</pdfrwt>
<pdfrwt beam="2">  1       -2 0.26231924E-01 0.82748927E+03</pdfrwt>
<totfact> 0.15461116E+01</totfact>
</mgrwt>
</event>
<event>
 4    1  0.8287789E-007  0.7747995E+03  0.7818608E-02  0.9768198E-01
         -2   -1    0    0    0  501 -0.00000000000E+00  0.00000000000E+00  0.26614902148E+03  0.26614902149E+03  0.25500000000E-02 0.  1.
          2   -1    0    0  501    0  0.00000000000E+00 -0.00000000000E+00 -0.17881655796E+04  0.17881655796E+04  0.25500000000E-02 0. -1.
    8880023    1    1    2    0    0 -0.30084454453E+03  0.27567478589E+03 -0.14027714645E+04  0.16025236396E+04  0.65864270000E+03 0. -1.
    8880022    1    1    2    0    0  0.30084454453E+03 -0.27567478589E+03 -0.11924509366E+03  0.45179096154E+03  0.15294330000E+03 0.  0.
<mgrwt>
<rscale>  0 0.67097506E+03</rscale>
<asrwt>0</asrwt>
<pdfrwt beam="1">  1        2 0.27510239E+00 0.77479948E+03</pdfrwt>
<pdfrwt beam="2">  1       -2 0.40946004E-01 0.77479948E+03</pdfrwt>
<totfact> 0.50638336E+01</totfact>
</mgrwt>
</event>
<event>
 4    1  0.8287789E-007  0.7749277E+03  0.7818608E-02  0.9767890E-01
         -2   -1    0    0    0  501 -0.00000000000E+00  0.00000000000E+00  0.12028093057E+04  0.12028093057E+04  0.25500000000E-02 0.  1.
          2   -1    0    0  501    0  0.00000000000E+00 -0.00000000000E+00 -0.30605844829E+03  0.30605844830E+03  0.25500000000E-02 0. -1.
    8880023    1    1    2    0    0 -0.39928272986E+03  0.85299354458E+02  0.52642150176E+03  0.93682041076E+03  0.65864270000E+03 0. -1.
    8880022    1    1    2    0    0  0.39928272986E+03 -0.85299354458E+02  0.37032935562E+03  0.57204734322E+03  0.15294330000E+03 0.  1.
<mgrwt>
<rscale>  0 0.67114602E+03</rscale>
<asrwt>0</asrwt>
<pdfrwt beam="1">  1        2 0.47085915E-01 0.77492766E+03</pdfrwt>
<pdfrwt beam="2">  1       -2 0.18504759E+00 0.77492766E+03</pdfrwt>
<totfact> 0.18215471E+01</totfact>
</mgrwt>
</event>
<event>
 4    1  0.8287789E-007  0.7564017E+03  0.7818608E-02  0.9814514E-01
          2   -1    0    0  501    0  0.00000000000E+00  0.00000000000E+00  0.11093928990E+04  0.11093928990E+04  0.25500000000E-02 0. -1.
         -2   -1    0    0    0  501 -0.00000000000E+00 -0.00000000000E+00 -0.35925942866E+03  0.35925942866E+03  0.25500000000E-02 0.  1.
    8880023    1    1    2    0    0 -0.12597911369E+03  0.34994664912E+03  0.75184752187E+03  0.10664981466E+04  0.65864270000E+03 0. -1.
    8880022    1    1    2    0    0  0.12597911369E+03 -0.34994664912E+03 -0.17140515786E+01  0.40215418101E+03  0.15294330000E+03 0.  0.
<mgrwt>
<rscale>  0 0.64589445E+03</rscale>
<asrwt>0</asrwt>
<pdfrwt beam="1">  1        2 0.17067583E+00 0.75640175E+03</pdfrwt>
<pdfrwt beam="2">  1       -2 0.55270683E-01 0.75640175E+03</pdfrwt>
<totfact> 0.67168224E+01</totfact>
</mgrwt>
</event>
<event>
 4    1  0.8287789E-007  0.1641321E+04  0.7818608E-02  0.8815796E-01
         -2   -1    0    0    0  501 -0.00000000000E+00  0.00000000000E+00  0.81179435773E+03  0.81179435774E+03  0.25500000000E-02 0.  1.
          2   -1    0    0  501    0  0.00000000000E+00 -0.00000000000E+00 -0.40505777738E+04  0.40505777738E+04  0.25500000000E-02 0. -1.
    8880023    1    1    2    0    0  0.15020251239E+04  0.63604960827E+02 -0.28711257979E+04  0.33071586925E+04  0.65864270000E+03 0.  0.
    8880022    1    1    2    0    0 -0.15020251239E+04 -0.63604960827E+02 -0.36765761819E+03  0.15552134391E+04  0.15294330000E+03 0.  0.
<mgrwt>
<rscale>  0 0.16077581E+04</rscale>
<asrwt>0</asrwt>
<pdfrwt beam="1">  1        2 0.62316580E+00 0.16413212E+04</pdfrwt>
<pdfrwt beam="2">  1       -2 0.12489144E+00 0.16413212E+04</pdfrwt>
<totfact> 0.14178988E-01</totfact>
</mgrwt>
</event>
<event>
 4    1  0.8287789E-007  0.6910262E+03  0.7818608E-02  0.1003669E+00
          2   -1    0    0  501    0  0.00000000000E+00  0.00000000000E+00  0.13288800633E+04  0.13288800633E+04  0.25500000000E-02 0. -1.
         -2   -1    0    0    0  501 -0.00000000000E+00 -0.00000000000E+00 -0.33179910920E+03  0.33179910921E+03  0.25500000000E-02 0.  1.
    8880023    1    1    2    0    0  0.30567345642E+02  0.20681552697E+03  0.11631829805E+04  0.13529641079E+04  0.65864270000E+03 0. -1.
    8880022    1    1    2    0    0 -0.30567345642E+02 -0.20681552697E+03 -0.16610202640E+03  0.30771506464E+03  0.15294330000E+03 0.  0.
<mgrwt>
<rscale>  0 0.54070469E+03</rscale>
<asrwt>0</asrwt>
<pdfrwt beam="1">  1        2 0.20444308E+00 0.69102622E+03</pdfrwt>
<pdfrwt beam="2">  1       -2 0.51046017E-01 0.69102622E+03</pdfrwt>
<totfact> 0.59115729E+01</totfact>
</mgrwt>
</event>
<event>
 4    1  0.8287789E-007  0.7217897E+03  0.7818608E-02  0.9916576E-01
         -2   -1    0    0    0  501 -0.00000000000E+00  0.00000000000E+00  0.52493733932E+03  0.52493733932E+03  0.25500000000E-02 0.  1.
          2   -1    0    0  501    0  0.00000000000E+00 -0.00000000000E+00 -0.91299291245E+03  0.91299291245E+03  0.25500000000E-02 0. -1.
    8880023    1    1    2    0    0 -0.28679292329E+03  0.70142587940E+02 -0.68281107428E+03  0.99358509093E+03  0.65864270000E+03 0.  0.
    8880022    1    1    2    0    0  0.28679292329E+03 -0.70142587940E+02  0.29475550115E+03  0.44434516084E+03  0.15294330000E+03 0.  0.
<mgrwt>
<rscale>  0 0.59464621E+03</rscale>
<asrwt>0</asrwt>
<pdfrwt beam="1">  1        2 0.14046045E+00 0.72178970E+03</pdfrwt>
<pdfrwt beam="2">  1       -2 0.80759591E-01 0.72178970E+03</pdfrwt>
<totfact> 0.39563964E+01</totfact>
</mgrwt>
</event>
<event>
 4    1  0.8287789E-007  0.6624997E+03  0.7818608E-02  0.1021730E+00
         -2   -1    0    0    0  501 -0.00000000000E+00  0.00000000000E+00  0.51352718086E+03  0.51352718086E+03  0.25500000000E-02 0.  1.
          2   -1    0    0  501    0  0.00000000000E+00 -0.00000000000E+00 -0.45775117939E+03  0.45775117940E+03  0.25500000000E-02 0. -1.
    8880023    1    1    2    0    0 -0.36044829263E+02 -0.61615347595E+02 -0.17513594910E+03  0.68525797165E+03  0.65864270000E+03 0.  0.
    8880022    1    1    2    0    0  0.36044829263E+02  0.61615347595E+02  0.23091195056E+03  0.28602038862E+03  0.15294330000E+03 0.  0.
<mgrwt>
<rscale>  0 0.47067459E+03</rscale>
<asrwt>0</asrwt>
<pdfrwt beam="1">  1        2 0.70423258E-01 0.66249973E+03</pdfrwt>
<pdfrwt beam="2">  1       -2 0.79004182E-01 0.66249973E+03</pdfrwt>
<totfact> 0.98485656E+01</totfact>
</mgrwt>
</event>
<event>
 4    1  0.8287789E-007  0.8163999E+03  0.7818608E-02  0.9676397E-01
         -2   -1    0    0    0  501 -0.00000000000E+00  0.00000000000E+00  0.19923585581E+04  0.19923585581E+04  0.25500000000E-02 0.  1.
          2   -1    0    0  501    0  0.00000000000E+00 -0.00000000000E+00 -0.45162553726E+03  0.45162553726E+03  0.25500000000E-02 0. -1.
    8880023    1    1    2    0    0 -0.47154714587E+03  0.10169532917E+03 -0.61555822263E+01  0.81642314287E+03  0.65864270000E+03 0. -1.
    8880022    1    1    2    0    0  0.47154714587E+03 -0.10169532917E+03  0.15468886031E+04  0.16275609525E+04  0.15294330000E+03 0.  0.
<mgrwt>
<rscale>  0 0.72439653E+03</rscale>
<asrwt>0</asrwt>
<pdfrwt beam="1">  1        2 0.69480852E-01 0.81639994E+03</pdfrwt>
<pdfrwt beam="2">  1       -2 0.30651670E+00 0.81639994E+03</pdfrwt>
<totfact> 0.20732836E+00</totfact>
</mgrwt>
</event>
<event>
 4    1  0.8287789E-007  0.6599794E+03  0.7818608E-02  0.1024178E+00
         -2   -1    0    0    0  501 -0.00000000000E+00  0.00000000000E+00  0.11835476026E+03  0.11835476029E+03  0.25500000000E-02 0.  1.
          2   -1    0    0  501    0  0.00000000000E+00 -0.00000000000E+00 -0.16515192409E+04  0.16515192409E+04  0.25500000000E-02 0. -1.
    8880023    1    1    2    0    0  0.35327784428E+02  0.22682505171E+02 -0.14446026424E+04  0.15882221347E+04  0.65864270000E+03 0. -1.
    8880022    1    1    2    0    0 -0.35327784428E+02 -0.22682505171E+02 -0.88561838196E+02  0.18165186647E+03  0.15294330000E+03 0.  0.
<mgrwt>
<rscale>  0 0.46208735E+03</rscale>
<asrwt>0</asrwt>
<pdfrwt beam="1">  1        2 0.25407987E+00 0.65997936E+03</pdfrwt>
<pdfrwt beam="2">  1       -2 0.18208426E-01 0.65997936E+03</pdfrwt>
<totfact> 0.26845024E+02</totfact>
</mgrwt>
</event>
<event>
 4    1  0.8287789E-007  0.9059761E+03  0.7818608E-02  0.9516505E-01
          2   -1    0    0  501    0  0.00000000000E+00  0.00000000000E+00  0.11480681261E+04  0.11480681262E+04  0.25500000000E-02 0. -1.
         -2   -1    0    0    0  501 -0.00000000000E+00 -0.00000000000E+00 -0.69307884446E+03  0.69307884446E+03  0.25500000000E-02 0.  1.
    8880023    1    1    2    0    0 -0.54158423356E+03  0.30605394808E+03  0.71061911622E+03  0.11514218322E+04  0.65864270000E+03 0.  0.
    8880022    1    1    2    0    0  0.54158423356E+03 -0.30605394808E+03 -0.25562983453E+03  0.68972513837E+03  0.15294330000E+03 0.  0.
<mgrwt>
<rscale>  0 0.83077814E+03</rscale>
<asrwt>0</asrwt>
<pdfrwt beam="1">  1        2 0.17662586E+00 0.90597611E+03</pdfrwt>
<pdfrwt beam="2">  1       -2 0.10662752E+00 0.90597611E+03</pdfrwt>
<totfact> 0.14450739E+01</totfact>
</mgrwt>
</event>
<event>
 4    1  0.8287789E-007  0.8416141E+03  0.7818608E-02  0.9627144E-01
          2   -1    0    0  501    0  0.00000000000E+00  0.00000000000E+00  0.20249951842E+04  0.20249951842E+04  0.25500000000E-02 0. -1.
         -2   -1    0    0    0  501 -0.00000000000E+00 -0.00000000000E+00 -0.44658181867E+03  0.44658181868E+03  0.25500000000E-02 0.  1.
    8880023    1    1    2    0    0  0.49341534917E+03  0.17619687627E+03  0.17137458802E+04  0.19092509511E+04  0.65864270000E+03 0.  0.
    8880022    1    1    2    0    0 -0.49341534917E+03 -0.17619687627E+03 -0.13533251467E+03  0.56232605181E+03  0.15294330000E+03 0.  0.
<mgrwt>
<rscale>  0 0.75525354E+03</rscale>
<asrwt>0</asrwt>
<pdfrwt beam="1">  1        2 0.31153772E+00 0.84161408E+03</pdfrwt>
<pdfrwt beam="2">  1       -2 0.68704894E-01 0.84161408E+03</pdfrwt>
<totfact> 0.12810562E+01</totfact>
</mgrwt>
</event>
<event>
 4    1  0.8287789E-007  0.6755764E+03  0.7818608E-02  0.1011945E+00
          2   -1    0    0  501    0  0.00000000000E+00  0.00000000000E+00  0.57029917001E+03  0.57029917001E+03  0.25500000000E-02 0. -1.
         -2   -1    0    0    0  501 -0.00000000000E+00 -0.00000000000E+00 -0.58654819816E+03  0.58654819817E+03  0.25500000000E-02 0.  1.
    8880023    1    1    2    0    0 -0.10660115827E+03 -0.10596924005E+03  0.32821763125E+03  0.75108608462E+03  0.65864270000E+03 0. -1.
    8880022    1    1    2    0    0  0.10660115827E+03  0.10596924005E+03 -0.34446665940E+03  0.40576128356E+03  0.15294330000E+03 0.  0.
<mgrwt>
<rscale>  0 0.50708739E+03</rscale>
<asrwt>0</asrwt>
<pdfrwt beam="1">  1        2 0.87738334E-01 0.67557642E+03</pdfrwt>
<pdfrwt beam="2">  1       -2 0.90238184E-01 0.67557642E+03</pdfrwt>
<totfact> 0.56341364E+01</totfact>
</mgrwt>
</event>
<event>
 4    1  0.8287789E-007  0.9424510E+03  0.7818608E-02  0.9461060E-01
         -2   -1    0    0    0  501 -0.00000000000E+00  0.00000000000E+00  0.33563805476E+03  0.33563805477E+03  0.25500000000E-02 0.  1.
          2   -1    0    0  501    0  0.00000000000E+00 -0.00000000000E+00 -0.22633304802E+04  0.22633304802E+04  0.25500000000E-02 0. -1.
    8880023    1    1    2    0    0  0.63060035299E+03  0.23821613921E+03 -0.64547177777E+03  0.11422993287E+04  0.65864270000E+03 0.  0.
    8880022    1    1    2    0    0 -0.63060035299E+03 -0.23821613921E+03 -0.12822206477E+04  0.14566692063E+04  0.15294330000E+03 0.  0.
<mgrwt>
<rscale>  0 0.87216637E+03</rscale>
<asrwt>0</asrwt>
<pdfrwt beam="1">  1        2 0.34820468E+00 0.94245103E+03</pdfrwt>
<pdfrwt beam="2">  1       -2 0.51636625E-01 0.94245103E+03</pdfrwt>
<totfact> 0.17092308E+01</totfact>
</mgrwt>
</event>
<event>
 4    1  0.8287789E-007  0.6621544E+03  0.7818608E-02  0.1022050E+00
          2   -1    0    0  501    0  0.00000000000E+00  0.00000000000E+00  0.74411368441E+03  0.74411368441E+03  0.25500000000E-02 0. -1.
         -2   -1    0    0    0  501 -0.00000000000E+00 -0.00000000000E+00 -0.29822431462E+03  0.29822431464E+03  0.25500000000E-02 0.  1.
    8880023    1    1    2    0    0  0.47074285636E+02 -0.49216828193E+02  0.53627219419E+03  0.85207767079E+03  0.65864270000E+03 0. -1.
    8880022    1    1    2    0    0 -0.47074285636E+02  0.49216828193E+02 -0.90382824402E+02  0.19026032825E+03  0.15294330000E+03 0.  0.
<mgrwt>
<rscale>  0 0.46953961E+03</rscale>
<asrwt>0</asrwt>
<pdfrwt beam="1">  1        2 0.11447903E+00 0.66215443E+03</pdfrwt>
<pdfrwt beam="2">  1       -2 0.45880664E-01 0.66215443E+03</pdfrwt>
<totfact> 0.17323945E+02</totfact>
</mgrwt>
</event>
<event>
 4    1  0.8287789E-007  0.7543140E+03  0.7818608E-02  0.9820057E-01
          2   -1    0    0  501    0  0.00000000000E+00  0.00000000000E+00  0.11312334195E+04  0.11312334195E+04  0.25500000000E-02 0. -1.
         -2   -1    0    0    0  501 -0.00000000000E+00 -0.00000000000E+00 -0.38806761615E+03  0.38806761616E+03  0.25500000000E-02 0.  1.
    8880023    1    1    2    0    0  0.16457471491E+03 -0.32877737195E+03  0.81953477862E+03  0.11138343040E+04  0.65864270000E+03 0.  0.
    8880022    1    1    2    0    0 -0.16457471491E+03  0.32877737195E+03 -0.76368975282E+02  0.40546673167E+03  0.15294330000E+03 0.  0.
<mgrwt>
<rscale>  0 0.64297208E+03</rscale>
<asrwt>0</asrwt>
<pdfrwt beam="1">  1        2 0.17403591E+00 0.75431400E+03</pdfrwt>
<pdfrwt beam="2">  1       -2 0.59702712E-01 0.75431400E+03</pdfrwt>
<totfact> 0.55442264E+01</totfact>
</mgrwt>
</event>
<event>
 4    1  0.8287789E-007  0.1044140E+04  0.7818608E-02  0.9325959E-01
         -2   -1    0    0    0  501 -0.00000000000E+00  0.00000000000E+00  0.13490656858E+04  0.13490656858E+04  0.25500000000E-02 0.  1.
          2   -1    0    0  501    0  0.00000000000E+00 -0.00000000000E+00 -0.19240842104E+04  0.19240842104E+04  0.25500000000E-02 0. -1.
    8880023    1    1    2    0    0 -0.16649915269E+03  0.79290348061E+03 -0.16290469533E+04  0.19349475651E+04  0.65864270000E+03 0.  0.
    8880022    1    1    2    0    0  0.16649915269E+03 -0.79290348061E+03  0.10540284287E+04  0.13382023311E+04  0.15294330000E+03 0.  0.
<mgrwt>
<rscale>  0 0.98427719E+03</rscale>
<asrwt>0</asrwt>
<pdfrwt beam="1">  1        2 0.29601296E+00 0.10441399E+04</pdfrwt>
<pdfrwt beam="2">  1       -2 0.20754857E+00 0.10441399E+04</pdfrwt>
<totfact> 0.86703040E-01</totfact>
</mgrwt>
</event>
<event>
 4    1  0.8287789E-007  0.1025152E+04  0.7818608E-02  0.9349367E-01
         -2   -1    0    0    0  501 -0.00000000000E+00  0.00000000000E+00  0.93059463568E+03  0.93059463568E+03  0.25500000000E-02 0.  1.
          2   -1    0    0  501    0  0.00000000000E+00 -0.00000000000E+00 -0.12060762723E+04  0.12060762723E+04  0.25500000000E-02 0. -1.
    8880023    1    1    2    0    0  0.49753271765E+03 -0.60793665015E+03  0.38897807138E+03  0.10964670182E+04  0.65864270000E+03 0.  0.
    8880022    1    1    2    0    0 -0.49753271765E+03  0.60793665015E+03 -0.66445970796E+03  0.10402038897E+04  0.15294330000E+03 0.  0.
<mgrwt>
<rscale>  0 0.96362369E+03</rscale>
<asrwt>0</asrwt>
<pdfrwt beam="1">  1        2 0.18555020E+00 0.10251517E+04</pdfrwt>
<pdfrwt beam="2">  1       -2 0.14316841E+00 0.10251517E+04</pdfrwt>
<totfact> 0.62939799E+00</totfact>
</mgrwt>
</event>
<event>
 4    1  0.8287789E-007  0.6615940E+03  0.7818608E-02  0.1022580E+00
         -2   -1    0    0    0  501 -0.00000000000E+00  0.00000000000E+00  0.10370455860E+04  0.10370455860E+04  0.25500000000E-02 0.  1.
          2   -1    0    0  501    0  0.00000000000E+00 -0.00000000000E+00 -0.71684187310E+03  0.71684187310E+03  0.25500000000E-02 0. -1.
    8880023    1    1    2    0    0 -0.13520646881E+02 -0.60939485861E+02 -0.55479884248E+03  0.86342827769E+03  0.65864270000E+03 0. -1.
    8880022    1    1    2    0    0  0.13520646881E+02  0.60939485861E+02  0.87500255535E+03  0.89045918139E+03  0.15294330000E+03 0.  0.
<mgrwt>
<rscale>  0 0.46767085E+03</rscale>
<asrwt>0</asrwt>
<pdfrwt beam="1">  1        2 0.11028337E+00 0.66159401E+03</pdfrwt>
<pdfrwt beam="2">  1       -2 0.15954547E+00 0.66159401E+03</pdfrwt>
<totfact> 0.10360903E+01</totfact>
</mgrwt>
</event>
<event>
 4    1  0.8287789E-007  0.6955567E+03  0.7818608E-02  0.1001616E+00
          2   -1    0    0  501    0  0.00000000000E+00  0.00000000000E+00  0.12870487697E+04  0.12870487697E+04  0.25500000000E-02 0. -1.
         -2   -1    0    0    0  501 -0.00000000000E+00 -0.00000000000E+00 -0.33337841124E+03  0.33337841125E+03  0.25500000000E-02 0.  1.
    8880023    1    1    2    0    0  0.19106731475E+03 -0.11611271142E+03  0.11083217989E+04  0.13085015463E+04  0.65864270000E+03 0. -1.
    8880022    1    1    2    0    0 -0.19106731475E+03  0.11611271142E+03 -0.15465144043E+03  0.31192563466E+03  0.15294330000E+03 0.  0.
<mgrwt>
<rscale>  0 0.54947381E+03</rscale>
<asrwt>0</asrwt>
<pdfrwt beam="1">  1        2 0.19800751E+00 0.69555667E+03</pdfrwt>
<pdfrwt beam="2">  1       -2 0.51288986E-01 0.69555667E+03</pdfrwt>
<totfact> 0.61845232E+01</totfact>
</mgrwt>
</event>
<event>
 4    1  0.8287789E-007  0.6983302E+03  0.7818608E-02  0.1000420E+00
          2   -1    0    0  501    0  0.00000000000E+00  0.00000000000E+00  0.50423764383E+03  0.50423764384E+03  0.25500000000E-02 0. -1.
         -2   -1    0    0    0  501 -0.00000000000E+00 -0.00000000000E+00 -0.97677387606E+03  0.97677387606E+03  0.25500000000E-02 0.  1.
    8880023    1    1    2    0    0 -0.16004544759E+03  0.16804864086E+03  0.22213083295E+03  0.73280775391E+03  0.65864270000E+03 0. -1.
    8880022    1    1    2    0    0  0.16004544759E+03 -0.16804864086E+03 -0.69466706517E+03  0.74820376598E+03  0.15294330000E+03 0.  0.
<mgrwt>
<rscale>  0 0.55466468E+03</rscale>
<asrwt>0</asrwt>
<pdfrwt beam="1">  1        2 0.77575022E-01 0.69833022E+03</pdfrwt>
<pdfrwt beam="2">  1       -2 0.15027290E+00 0.69833022E+03</pdfrwt>
<totfact> 0.18519202E+01</totfact>
</mgrwt>
</event>
<event>
 4    1  0.8287789E-007  0.9705218E+03  0.7818608E-02  0.9421183E-01
         -2   -1    0    0    0  501 -0.00000000000E+00  0.00000000000E+00  0.72989803052E+03  0.72989803052E+03  0.25500000000E-02 0.  1.
          2   -1    0    0  501    0  0.00000000000E+00 -0.00000000000E+00 -0.13716718173E+04  0.13716718173E+04  0.25500000000E-02 0. -1.
    8880023    1    1    2    0    0  0.69197138579E+03 -0.17110810795E+03 -0.90447637226E+03  0.13266461840E+04  0.65864270000E+03 0.  0.
    8880022    1    1    2    0    0 -0.69197138579E+03  0.17110810795E+03  0.26270258543E+03  0.77492366384E+03  0.15294330000E+03 0.  0.
<mgrwt>
<rscale>  0 0.90352729E+03</rscale>
<asrwt>0</asrwt>
<pdfrwt beam="1">  1        2 0.21102643E+00 0.97052181E+03</pdfrwt>
<pdfrwt beam="2">  1       -2 0.11229200E+00 0.97052181E+03</pdfrwt>
<totfact> 0.93579001E+00</totfact>
</mgrwt>
</event>
<event>
 4    1  0.8287789E-007  0.8779990E+03  0.7818608E-02  0.9562315E-01
         -2   -1    0    0    0  501 -0.00000000000E+00  0.00000000000E+00  0.19182675027E+03  0.19182675028E+03  0.25500000000E-02 0.  1.
          2   -1    0    0  501    0  0.00000000000E+00 -0.00000000000E+00 -0.42268964756E+04  0.42268964756E+04  0.25500000000E-02 0. -1.
    8880023    1    1    2    0    0  0.49055058295E+03  0.31053521388E+03 -0.35194508312E+04  0.36273153093E+04  0.65864270000E+03 0.  0.
    8880022    1    1    2    0    0 -0.49055058295E+03 -0.31053521388E+03 -0.51561889421E+03  0.79140791667E+03  0.15294330000E+03 0.  0.
<mgrwt>
<rscale>  0 0.79841409E+03</rscale>
<asrwt>0</asrwt>
<pdfrwt beam="1">  1        2 0.65029170E+00 0.87799897E+03</pdfrwt>
<pdfrwt beam="2">  1       -2 0.29511811E-01 0.87799897E+03</pdfrwt>
<totfact> 0.25329778E+00</totfact>
</mgrwt>
</event>
<event>
 4    1  0.8287789E-007  0.9237577E+03  0.7818608E-02  0.9488921E-01
          2   -1    0    0  501    0  0.00000000000E+00  0.00000000000E+00  0.36623753092E+04  0.36623753092E+04  0.25500000000E-02 0. -1.
         -2   -1    0    0    0  501 -0.00000000000E+00 -0.00000000000E+00 -0.39707409812E+03  0.39707409813E+03  0.25500000000E-02 0.  1.
    8880023    1    1    2    0    0  0.41972988904E+03  0.49329992575E+03  0.32658022235E+04  0.33939346438E+04  0.65864270000E+03 0.  0.
    8880022    1    1    2    0    0 -0.41972988904E+03 -0.49329992575E+03 -0.50101247700E+00  0.66551476357E+03  0.15294330000E+03 0.  0.
<mgrwt>
<rscale>  0 0.85105559E+03</rscale>
<asrwt>0</asrwt>
<pdfrwt beam="1">  1        2 0.56344234E+00 0.92375765E+03</pdfrwt>
<pdfrwt beam="2">  1       -2 0.61088324E-01 0.92375765E+03</pdfrwt>
<totfact> 0.16381091E+00</totfact>
</mgrwt>
</event>
<event>
 4    1  0.8287789E-007  0.1314476E+04  0.7818608E-02  0.9053159E-01
         -2   -1    0    0    0  501 -0.00000000000E+00  0.00000000000E+00  0.39515986737E+04  0.39515986737E+04  0.25500000000E-02 0.  1.
          2   -1    0    0  501    0  0.00000000000E+00 -0.00000000000E+00 -0.12330452642E+04  0.12330452642E+04  0.25500000000E-02 0. -1.
    8880023    1    1    2    0    0 -0.74064478724E+03  0.86341336652E+03 -0.76223845176E+03  0.15194916933E+04  0.65864270000E+03 0.  0.
    8880022    1    1    2    0    0  0.74064478724E+03 -0.86341336652E+03  0.34807918612E+04  0.36651522447E+04  0.15294330000E+03 0.  0.
<mgrwt>
<rscale>  0 0.12706631E+04</rscale>
<asrwt>0</asrwt>
<pdfrwt beam="1">  1        2 0.18969927E+00 0.13144761E+04</pdfrwt>
<pdfrwt beam="2">  1       -2 0.60793825E+00 0.13144761E+04</pdfrwt>
<totfact> 0.79967370E-03</totfact>
</mgrwt>
</event>
<event>
 4    1  0.8287789E-007  0.7964811E+03  0.7818608E-02  0.9718457E-01
         -2   -1    0    0    0  501 -0.00000000000E+00  0.00000000000E+00  0.19565744722E+03  0.19565744724E+03  0.25500000000E-02 0.  1.
          2   -1    0    0  501    0  0.00000000000E+00 -0.00000000000E+00 -0.33085412810E+04  0.33085412810E+04  0.25500000000E-02 0. -1.
    8880023    1    1    2    0    0 -0.84718332355E+02 -0.43976661530E+03 -0.28575269429E+04  0.29664528157E+04  0.65864270000E+03 0. -1.
    8880022    1    1    2    0    0  0.84718332355E+02  0.43976661530E+03 -0.25535689086E+03  0.53774591258E+03  0.15294330000E+03 0.  0.
<mgrwt>
<rscale>  0 0.69928426E+03</rscale>
<asrwt>0</asrwt>
<pdfrwt beam="1">  1        2 0.50900631E+00 0.79648106E+03</pdfrwt>
<pdfrwt beam="2">  1       -2 0.30101148E-01 0.79648106E+03</pdfrwt>
<totfact> 0.11907128E+01</totfact>
</mgrwt>
</event>
<event>
 4    1  0.8287789E-007  0.1216086E+04  0.7818608E-02  0.9141642E-01
          2   -1    0    0  501    0  0.00000000000E+00  0.00000000000E+00  0.17225140983E+04  0.17225140983E+04  0.25500000000E-02 0. -1.
         -2   -1    0    0    0  501 -0.00000000000E+00 -0.00000000000E+00 -0.14355720942E+04  0.14355720942E+04  0.25500000000E-02 0.  1.
    8880023    1    1    2    0    0 -0.73174580792E+03  0.71386470582E+03  0.12509739969E+04  0.17446492177E+04  0.65864270000E+03 0.  0.
    8880022    1    1    2    0    0  0.73174580792E+03 -0.71386470582E+03 -0.96403199281E+03  0.14134369748E+04  0.15294330000E+03 0.  0.
<mgrwt>
<rscale>  0 0.11676624E+04</rscale>
<asrwt>0</asrwt>
<pdfrwt beam="1">  1        2 0.26500217E+00 0.12160859E+04</pdfrwt>
<pdfrwt beam="2">  1       -2 0.22085725E+00 0.12160859E+04</pdfrwt>
<totfact> 0.90082612E-01</totfact>
</mgrwt>
</event>
<event>
 4    1  0.8287789E-007  0.1175422E+04  0.7818608E-02  0.9181392E-01
         -2   -1    0    0    0  501 -0.00000000000E+00  0.00000000000E+00  0.37785989766E+03  0.37785989767E+03  0.25500000000E-02 0.  1.
          2   -1    0    0  501    0  0.00000000000E+00 -0.00000000000E+00 -0.38240875934E+04  0.38240875934E+04  0.25500000000E-02 0. -1.
    8880023    1    1    2    0    0 -0.89181371717E+03  0.39048129903E+03 -0.92750573724E+03  0.14972923729E+04  0.65864270000E+03 0.  1.
    8880022    1    1    2    0    0  0.89181371717E+03 -0.39048129903E+03 -0.25187219585E+04  0.27046551182E+04  0.15294330000E+03 0.  0.
<mgrwt>
<rscale>  0 0.11247577E+04</rscale>
<asrwt>0</asrwt>
<pdfrwt beam="1">  1        2 0.58832114E+00 0.11754223E+04</pdfrwt>
<pdfrwt beam="2">  1       -2 0.58132295E-01 0.11754223E+04</pdfrwt>
<totfact> 0.13276665E+00</totfact>
</mgrwt>
</event>
<event>
 4    1  0.8287789E-007  0.9153813E+03  0.7818608E-02  0.9501777E-01
         -2   -1    0    0    0  501 -0.00000000000E+00  0.00000000000E+00  0.44630060532E+03  0.44630060533E+03  0.25500000000E-02 0.  1.
          2   -1    0    0  501    0  0.00000000000E+00 -0.00000000000E+00 -0.14078251133E+04  0.14078251133E+04  0.25500000000E-02 0. -1.
    8880023    1    1    2    0    0  0.19859131111E+03  0.60388265718E+03 -0.68927137439E+03  0.11458699779E+04  0.65864270000E+03 0.  1.
    8880022    1    1    2    0    0 -0.19859131111E+03 -0.60388265718E+03 -0.27225313362E+03  0.70825574073E+03  0.15294330000E+03 0. -1.
<mgrwt>
<rscale>  0 0.84152905E+03</rscale>
<asrwt>0</asrwt>
<pdfrwt beam="1">  1        2 0.21658848E+00 0.91538133E+03</pdfrwt>
<pdfrwt beam="2">  1       -2 0.68661632E-01 0.91538133E+03</pdfrwt>
<totfact> 0.27904710E+01</totfact>
</mgrwt>
</event>
<event>
 4    1  0.8287789E-007  0.6820536E+03  0.7818608E-02  0.1008185E+00
          2   -1    0    0  501    0  0.00000000000E+00  0.00000000000E+00  0.67482858110E+03  0.67482858111E+03  0.25500000000E-02 0. -1.
         -2   -1    0    0    0  501 -0.00000000000E+00 -0.00000000000E+00 -0.54100613749E+03  0.54100613750E+03  0.25500000000E-02 0.  1.
    8880023    1    1    2    0    0  0.70786021884E+02  0.16240765334E+03  0.45392425231E+03  0.81929502614E+03  0.65864270000E+03 0. -1.
    8880022    1    1    2    0    0 -0.70786021884E+02 -0.16240765334E+03 -0.32010180870E+03  0.39653969247E+03  0.15294330000E+03 0.  0.
<mgrwt>
<rscale>  0 0.52202368E+03</rscale>
<asrwt>0</asrwt>
<pdfrwt beam="1">  1        2 0.10381978E+00 0.68205360E+03</pdfrwt>
<pdfrwt beam="2">  1       -2 0.83231714E-01 0.68205360E+03</pdfrwt>
<totfact> 0.55203494E+01</totfact>
</mgrwt>
</event>
<event>
 4    1  0.8287789E-007  0.6915281E+03  0.7818608E-02  0.1003435E+00
          2   -1    0    0  501    0  0.00000000000E+00  0.00000000000E+00  0.12126047186E+04  0.12126047186E+04  0.25500000000E-02 0. -1.
         -2   -1    0    0    0  501 -0.00000000000E+00 -0.00000000000E+00 -0.42397010332E+03  0.42397010332E+03  0.25500000000E-02 0.  1.
    8880023    1    1    2    0    0  0.51242328657E+02 -0.20438978556E+03  0.10567068394E+04  0.12628699503E+04  0.65864270000E+03 0. -1.
    8880022    1    1    2    0    0 -0.51242328657E+02  0.20438978556E+03 -0.26807222414E+03  0.37370487160E+03  0.15294330000E+03 0.  0.
<mgrwt>
<rscale>  0 0.54169545E+03</rscale>
<asrwt>0</asrwt>
<pdfrwt beam="1">  1        2 0.18655457E+00 0.69152814E+03</pdfrwt>
<pdfrwt beam="2">  1       -2 0.65226171E-01 0.69152814E+03</pdfrwt>
<totfact> 0.41323072E+01</totfact>
</mgrwt>
</event>
<event>
 4    1  0.8287789E-007  0.7310097E+03  0.7818608E-02  0.9886954E-01
         -2   -1    0    0    0  501 -0.00000000000E+00  0.00000000000E+00  0.42979256114E+03  0.42979256115E+03  0.25500000000E-02 0.  1.
          2   -1    0    0  501    0  0.00000000000E+00 -0.00000000000E+00 -0.88860035304E+03  0.88860035305E+03  0.25500000000E-02 0. -1.
    8880023    1    1    2    0    0 -0.12656553926E+03 -0.29076815931E+03 -0.59332741132E+03  0.94149486535E+03  0.65864270000E+03 0.  0.
    8880022    1    1    2    0    0  0.12656553926E+03  0.29076815931E+03  0.13451961942E+03  0.37689804884E+03  0.15294330000E+03 0.  0.
<mgrwt>
<rscale>  0 0.60897724E+03</rscale>
<asrwt>0</asrwt>
<pdfrwt beam="1">  1        2 0.13670775E+00 0.73100969E+03</pdfrwt>
<pdfrwt beam="2">  1       -2 0.66121933E-01 0.73100969E+03</pdfrwt>
<totfact> 0.63780022E+01</totfact>
</mgrwt>
</event>
<event>
 4    1  0.8287789E-007  0.8171348E+03  0.7818608E-02  0.9674903E-01
         -2   -1    0    0    0  501 -0.00000000000E+00  0.00000000000E+00  0.94929636471E+03  0.94929636471E+03  0.25500000000E-02 0.  1.
          2   -1    0    0  501    0  0.00000000000E+00 -0.00000000000E+00 -0.66619744234E+03  0.66619744235E+03  0.25500000000E-02 0. -1.
    8880023    1    1    2    0    0 -0.44369948310E+03 -0.19243149471E+03 -0.27420649854E+03  0.86191561162E+03  0.65864270000E+03 0. -1.
    8880022    1    1    2    0    0  0.44369948310E+03  0.19243149471E+03  0.55730542091E+03  0.75357819544E+03  0.15294330000E+03 0.  0.
<mgrwt>
<rscale>  0 0.72530941E+03</rscale>
<asrwt>0</asrwt>
<pdfrwt beam="1">  1        2 0.10249191E+00 0.81713482E+03</pdfrwt>
<pdfrwt beam="2">  1       -2 0.14604559E+00 0.81713482E+03</pdfrwt>
<totfact> 0.14135888E+01</totfact>
</mgrwt>
</event>
<event>
 4    1  0.8287789E-007  0.7801696E+03  0.7818608E-02  0.9755439E-01
         -2   -1    0    0    0  501 -0.00000000000E+00  0.00000000000E+00  0.38048193775E+03  0.38048193776E+03  0.25500000000E-02 0.  1.
          2   -1    0    0  501    0  0.00000000000E+00 -0.00000000000E+00 -0.15650520800E+04  0.15650520800E+04  0.25500000000E-02 0. -1.
    8880023    1    1    2    0    0 -0.16457421579E+03 -0.38440821689E+03 -0.12716047714E+04  0.14918589916E+04  0.65864270000E+03 0. -1.
    8880022    1    1    2    0    0  0.16457421579E+03  0.38440821689E+03  0.87034629178E+02  0.45367502621E+03  0.15294330000E+03 0.  0.
<mgrwt>
<rscale>  0 0.67809776E+03</rscale>
<asrwt>0</asrwt>
<pdfrwt beam="1">  1        2 0.24077724E+00 0.78016957E+03</pdfrwt>
<pdfrwt beam="2">  1       -2 0.58535683E-01 0.78016957E+03</pdfrwt>
<totfact> 0.32492984E+01</totfact>
</mgrwt>
</event>
<event>
 4    1  0.8287789E-007  0.7533529E+03  0.7818608E-02  0.9822630E-01
         -2   -1    0    0    0  501 -0.00000000000E+00  0.00000000000E+00  0.20604569226E+03  0.20604569228E+03  0.25500000000E-02 0.  1.
          2   -1    0    0  501    0  0.00000000000E+00 -0.00000000000E+00 -0.20665727749E+04  0.20665727749E+04  0.25500000000E-02 0. -1.
    8880023    1    1    2    0    0  0.35302067395E+03  0.95429339327E+02 -0.16715859067E+04  0.18335048418E+04  0.65864270000E+03 0.  0.
    8880022    1    1    2    0    0 -0.35302067395E+03 -0.95429339327E+02 -0.18894117593E+03  0.43911362540E+03  0.15294330000E+03 0.  0.
<mgrwt>
<rscale>  0 0.64162085E+03</rscale>
<asrwt>0</asrwt>
<pdfrwt beam="1">  1        2 0.31793426E+00 0.75335288E+03</pdfrwt>
<pdfrwt beam="2">  1       -2 0.31699339E-01 0.75335288E+03</pdfrwt>
<totfact> 0.58407376E+01</totfact>
</mgrwt>
</event>
<event>
 4    1  0.8287789E-007  0.7293578E+03  0.7818608E-02  0.9892107E-01
          2   -1    0    0  501    0  0.00000000000E+00  0.00000000000E+00  0.18314942494E+04  0.18314942494E+04  0.25500000000E-02 0. -1.
         -2   -1    0    0    0  501 -0.00000000000E+00 -0.00000000000E+00 -0.19245493307E+03  0.19245493308E+03  0.25500000000E-02 0.  1.
    8880023    1    1    2    0    0  0.72306071413E+02  0.30483516935E+03  0.14599750443E+04  0.16320202158E+04  0.65864270000E+03 0. -1.
    8880022    1    1    2    0    0 -0.72306071413E+02 -0.30483516935E+03  0.17906427208E+03  0.39192896676E+03  0.15294330000E+03 0.  0.
<mgrwt>
<rscale>  0 0.60645323E+03</rscale>
<asrwt>0</asrwt>
<pdfrwt beam="1">  1        2 0.28176834E+00 0.72935784E+03</pdfrwt>
<pdfrwt beam="2">  1       -2 0.29608451E-01 0.72935784E+03</pdfrwt>
<totfact> 0.89330521E+01</totfact>
</mgrwt>
</event>
<event>
 4    1  0.8287789E-007  0.7203461E+03  0.7818608E-02  0.9921417E-01
         -2   -1    0    0    0  501 -0.00000000000E+00  0.00000000000E+00  0.10373008878E+04  0.10373008878E+04  0.25500000000E-02 0.  1.
          2   -1    0    0  501    0  0.00000000000E+00 -0.00000000000E+00 -0.32800189069E+03  0.32800189070E+03  0.25500000000E-02 0. -1.
    8880023    1    1    2    0    0  0.18775204438E+03  0.22324294721E+03  0.18099015283E+03  0.74273540735E+03  0.65864270000E+03 0.  0.
    8880022    1    1    2    0    0 -0.18775204438E+03 -0.22324294721E+03  0.52830884426E+03  0.62256737112E+03  0.15294330000E+03 0.  0.
<mgrwt>
<rscale>  0 0.59234476E+03</rscale>
<asrwt>0</asrwt>
<pdfrwt beam="1">  1        2 0.50461830E-01 0.72034606E+03</pdfrwt>
<pdfrwt beam="2">  1       -2 0.15958475E+00 0.72034606E+03</pdfrwt>
<totfact> 0.25593061E+01</totfact>
</mgrwt>
</event>
<event>
 4    1  0.8287789E-007  0.7811472E+03  0.7818608E-02  0.9753149E-01
         -2   -1    0    0    0  501 -0.00000000000E+00  0.00000000000E+00  0.15680645659E+03  0.15680645661E+03  0.25500000000E-02 0.  1.
          2   -1    0    0  501    0  0.00000000000E+00 -0.00000000000E+00 -0.38377134343E+04  0.38377134343E+04  0.25500000000E-02 0. -1.
    8880023    1    1    2    0    0  0.81624470208E+02 -0.41196864517E+03 -0.33460960397E+04  0.34360660110E+04  0.65864270000E+03 0. -1.
    8880022    1    1    2    0    0 -0.81624470208E+02  0.41196864517E+03 -0.33481093796E+03  0.55845387986E+03  0.15294330000E+03 0.  0.
<mgrwt>
<rscale>  0 0.67938598E+03</rscale>
<asrwt>0</asrwt>
<pdfrwt beam="1">  1        2 0.59041738E+00 0.78114719E+03</pdfrwt>
<pdfrwt beam="2">  1       -2 0.24124073E-01 0.78114719E+03</pdfrwt>
<totfact> 0.76447405E+00</totfact>
</mgrwt>
</event>
<event>
 4    1  0.8287789E-007  0.7953855E+03  0.7818608E-02  0.9720864E-01
         -2   -1    0    0    0  501 -0.00000000000E+00  0.00000000000E+00  0.18399563577E+03  0.18399563579E+03  0.25500000000E-02 0.  1.
          2   -1    0    0  501    0  0.00000000000E+00 -0.00000000000E+00 -0.40165845741E+04  0.40165845741E+04  0.25500000000E-02 0. -1.
    8880023    1    1    2    0    0 -0.44062874724E+03  0.68367792136E+02 -0.35769665865E+04  0.36643318648E+04  0.65864270000E+03 0. -1.
    8880022    1    1    2    0    0  0.44062874724E+03 -0.68367792136E+02 -0.25562235186E+03  0.53624834516E+03  0.15294330000E+03 0.  0.
<mgrwt>
<rscale>  0 0.69788042E+03</rscale>
<asrwt>0</asrwt>
<pdfrwt beam="1">  1        2 0.61793602E+00 0.79538548E+03</pdfrwt>
<pdfrwt beam="2">  1       -2 0.28307024E-01 0.79538548E+03</pdfrwt>
<totfact> 0.41486281E+00</totfact>
</mgrwt>
</event>
<event>
 4    1  0.8287789E-007  0.9510125E+03  0.7818608E-02  0.9448659E-01
         -2   -1    0    0    0  501 -0.00000000000E+00  0.00000000000E+00  0.62180022321E+03  0.62180022321E+03  0.25500000000E-02 0.  1.
          2   -1    0    0  501    0  0.00000000000E+00 -0.00000000000E+00 -0.14990112146E+04  0.14990112146E+04  0.25500000000E-02 0. -1.
    8880023    1    1    2    0    0  0.66476719968E+03  0.16940812194E+03 -0.10296198857E+04  0.14016211531E+04  0.65864270000E+03 0.  0.
    8880022    1    1    2    0    0 -0.66476719968E+03 -0.16940812194E+03  0.15240889431E+03  0.71919028472E+03  0.15294330000E+03 0.  0.
<mgrwt>
<rscale>  0 0.88177182E+03</rscale>
<asrwt>0</asrwt>
<pdfrwt beam="1">  1        2 0.23061711E+00 0.95101249E+03</pdfrwt>
<pdfrwt beam="2">  1       -2 0.95661573E-01 0.95101249E+03</pdfrwt>
<totfact> 0.11663877E+01</totfact>
</mgrwt>
</event>
<event>
 4    1  0.8509886E-007  0.6649675E+03  0.7818608E-02  0.1019561E+00
         -2   -1    0    0    0  501 -0.00000000000E+00  0.00000000000E+00  0.13874618034E+04  0.13874618034E+04  0.25500000000E-02 0.  1.
          2   -1    0    0  501    0  0.00000000000E+00 -0.00000000000E+00 -0.12671107555E+04  0.12671107555E+04  0.25500000000E-02 0. -1.
    8880023    1    1    2    0    0 -0.23395347982E+02 -0.88454309952E+02 -0.11733367143E+04  0.13486662888E+04  0.65864270000E+03 0. -1.
    8880022    1    1    2    0    0  0.23395347982E+02  0.88454309952E+02  0.12936877622E+04  0.13059062701E+04  0.15294330000E+03 0.  0.
<mgrwt>
<rscale>  0 0.47845462E+03</rscale>
<asrwt>0</asrwt>
<pdfrwt beam="1">  1        2 0.19494012E+00 0.66496745E+03</pdfrwt>
<pdfrwt beam="2">  1       -2 0.21345566E+00 0.66496745E+03</pdfrwt>
<totfact> 0.19677357E+00</totfact>
</mgrwt>
</event>
<event>
 4    1  0.8287789E-007  0.1093534E+04  0.7818608E-02  0.9268290E-01
         -2   -1    0    0    0  501 -0.00000000000E+00  0.00000000000E+00  0.57790869041E+03  0.57790869041E+03  0.25500000000E-02 0.  1.
          2   -1    0    0  501    0  0.00000000000E+00 -0.00000000000E+00 -0.23510580021E+04  0.23510580021E+04  0.25500000000E-02 0. -1.
    8880023    1    1    2    0    0  0.13789563316E+03  0.86196877055E+03 -0.18328966121E+03  0.11087879298E+04  0.65864270000E+03 0.  1.
    8880022    1    1    2    0    0 -0.13789563316E+03 -0.86196877055E+03 -0.15898596504E+04  0.18201787627E+04  0.15294330000E+03 0.  0.
<mgrwt>
<rscale>  0 0.10375529E+04</rscale>
<asrwt>0</asrwt>
<pdfrwt beam="1">  1        2 0.36170122E+00 0.10935335E+04</pdfrwt>
<pdfrwt beam="2">  1       -2 0.88909031E-01 0.10935335E+04</pdfrwt>
<totfact> 0.45867288E+00</totfact>
</mgrwt>
</event>
<event>
 4    1  0.8287789E-007  0.9572660E+03  0.7818608E-02  0.9439736E-01
          2   -1    0    0  501    0  0.00000000000E+00  0.00000000000E+00  0.22667231637E+04  0.22667231637E+04  0.25500000000E-02 0. -1.
         -2   -1    0    0    0  501 -0.00000000000E+00 -0.00000000000E+00 -0.46941092530E+03  0.46941092531E+03  0.25500000000E-02 0.  1.
    8880023    1    1    2    0    0 -0.64246600796E+03 -0.26416943104E+03  0.17841308750E+04  0.20247175717E+04  0.65864270000E+03 0. -1.
    8880022    1    1    2    0    0  0.64246600796E+03  0.26416943104E+03  0.13181363330E+02  0.71141651726E+03  0.15294330000E+03 0.  0.
<mgrwt>
<rscale>  0 0.88876478E+03</rscale>
<asrwt>0</asrwt>
<pdfrwt beam="1">  1        2 0.34872665E+00 0.95726604E+03</pdfrwt>
<pdfrwt beam="2">  1       -2 0.72217064E-01 0.95726604E+03</pdfrwt>
<totfact> 0.83190023E+00</totfact>
</mgrwt>
</event>
<event>
 4    1  0.8287789E-007  0.8765111E+03  0.7818608E-02  0.9564842E-01
         -2   -1    0    0    0  501 -0.00000000000E+00  0.00000000000E+00  0.12697096821E+04  0.12697096821E+04  0.25500000000E-02 0.  1.
          2   -1    0    0  501    0  0.00000000000E+00 -0.00000000000E+00 -0.82066783223E+03  0.82066783223E+03  0.25500000000E-02 0. -1.
    8880023    1    1    2    0    0  0.90975253226E+02  0.57112606545E+03 -0.46940846165E+03  0.99429170241E+03  0.65864270000E+03 0.  0.
    8880022    1    1    2    0    0 -0.90975253226E+02 -0.57112606545E+03  0.91845031148E+03  0.10960858119E+04  0.15294330000E+03 0.  0.
<mgrwt>
<rscale>  0 0.79667495E+03</rscale>
<asrwt>0</asrwt>
<pdfrwt beam="1">  1        2 0.12625659E+00 0.87651109E+03</pdfrwt>
<pdfrwt beam="2">  1       -2 0.19533995E+00 0.87651109E+03</pdfrwt>
<totfact> 0.47792352E+00</totfact>
</mgrwt>
</event>
<event>
 4    1  0.8287789E-007  0.7755767E+03  0.7818608E-02  0.9766332E-01
         -2   -1    0    0    0  501 -0.00000000000E+00  0.00000000000E+00  0.38355679437E+03  0.38355679438E+03  0.25500000000E-02 0.  1.
          2   -1    0    0  501    0  0.00000000000E+00 -0.00000000000E+00 -0.20074081474E+04  0.20074081474E+04  0.25500000000E-02 0. -1.
    8880023    1    1    2    0    0 -0.34639243348E+03 -0.21845210564E+03 -0.72223625383E+02  0.77893228124E+03  0.65864270000E+03 0.  1.
    8880022    1    1    2    0    0  0.34639243348E+03  0.21845210564E+03 -0.15516277277E+04  0.16120326606E+04  0.15294330000E+03 0.  0.
<mgrwt>
<rscale>  0 0.67201096E+03</rscale>
<asrwt>0</asrwt>
<pdfrwt beam="1">  1        2 0.30883202E+00 0.77557672E+03</pdfrwt>
<pdfrwt beam="2">  1       -2 0.59008739E-01 0.77557672E+03</pdfrwt>
<totfact> 0.18301627E+01</totfact>
</mgrwt>
</event>
<event>
 4    1  0.8287789E-007  0.6910380E+03  0.7818608E-02  0.1003663E+00
         -2   -1    0    0    0  501 -0.00000000000E+00  0.00000000000E+00  0.21550476902E+03  0.21550476903E+03  0.25500000000E-02 0.  1.
          2   -1    0    0  501    0  0.00000000000E+00 -0.00000000000E+00 -0.19395629944E+04  0.19395629944E+04  0.25500000000E-02 0. -1.
    8880023    1    1    2    0    0 -0.10428058570E+03  0.18124268792E+03 -0.17625333119E+04  0.18931606467E+04  0.65864270000E+03 0. -1.
    8880022    1    1    2    0    0  0.10428058570E+03 -0.18124268792E+03  0.38475086534E+02  0.26190711669E+03  0.15294330000E+03 0.  0.
<mgrwt>
<rscale>  0 0.54072807E+03</rscale>
<asrwt>0</asrwt>
<pdfrwt beam="1">  1        2 0.29839430E+00 0.69103803E+03</pdfrwt>
<pdfrwt beam="2">  1       -2 0.33154581E-01 0.69103803E+03</pdfrwt>
<totfact> 0.63439472E+01</totfact>
</mgrwt>
</event>
<event>
 4    1  0.8287789E-007  0.7110616E+03  0.7818608E-02  0.9954080E-01
          2   -1    0    0  501    0  0.00000000000E+00  0.00000000000E+00  0.24446138243E+04  0.24446138243E+04  0.25500000000E-02 0. -1.
         -2   -1    0    0    0  501 -0.00000000000E+00 -0.00000000000E+00 -0.21774054358E+03  0.21774054360E+03  0.25500000000E-02 0.  1.
    8880023    1    1    2    0    0  0.12296545767E+03 -0.23807109621E+03  0.22433917112E+04  0.23533837185E+04  0.65864270000E+03 0. -1.
    8880022    1    1    2    0    0 -0.12296545767E+03  0.23807109621E+03 -0.16518430421E+02  0.30897064940E+03  0.15294330000E+03 0.  0.
<mgrwt>
<rscale>  0 0.57710432E+03</rscale>
<asrwt>0</asrwt>
<pdfrwt beam="1">  1        2 0.37609442E+00 0.71106157E+03</pdfrwt>
<pdfrwt beam="2">  1       -2 0.33498546E-01 0.71106157E+03</pdfrwt>
<totfact> 0.32696349E+01</totfact>
</mgrwt>
</event>
<event>
 4    1  0.8287789E-007  0.7434860E+03  0.7818608E-02  0.9849906E-01
          2   -1    0    0  501    0  0.00000000000E+00  0.00000000000E+00  0.19694515918E+04  0.19694515918E+04  0.25500000000E-02 0. -1.
         -2   -1    0    0    0  501 -0.00000000000E+00 -0.00000000000E+00 -0.17902453566E+03  0.17902453568E+03  0.25500000000E-02 0.  1.
    8880023    1    1    2    0    0 -0.43321656673E+02  0.34217617391E+03  0.81786699839E+03  0.11052954054E+04  0.65864270000E+03 0.  1.
    8880022    1    1    2    0    0  0.43321656673E+02 -0.34217617391E+03  0.97256005771E+03  0.10431807220E+04  0.15294330000E+03 0.  0.
<mgrwt>
<rscale>  0 0.62751690E+03</rscale>
<asrwt>0</asrwt>
<pdfrwt beam="1">  1        2 0.30299255E+00 0.74348605E+03</pdfrwt>
<pdfrwt beam="2">  1       -2 0.27542236E-01 0.74348605E+03</pdfrwt>
<totfact> 0.85713082E+01</totfact>
</mgrwt>
</event>
<event>
 4    1  0.8287789E-007  0.6778231E+03  0.7818608E-02  0.1010583E+00
          2   -1    0    0  501    0  0.00000000000E+00  0.00000000000E+00  0.96833797212E+03  0.96833797212E+03  0.25500000000E-02 0. -1.
         -2   -1    0    0    0  501 -0.00000000000E+00 -0.00000000000E+00 -0.11351413828E+04  0.11351413828E+04  0.25500000000E-02 0.  1.
    8880023    1    1    2    0    0 -0.14559545127E+03 -0.66602640338E+02  0.83614853822E+03  0.10763775041E+04  0.65864270000E+03 0. -1.
    8880022    1    1    2    0    0  0.14559545127E+03  0.66602640338E+02 -0.10029519489E+04  0.10271018508E+04  0.15294330000E+03 0.  0.
<mgrwt>
<rscale>  0 0.51243660E+03</rscale>
<asrwt>0</asrwt>
<pdfrwt beam="1">  1        2 0.14897507E+00 0.67782310E+03</pdfrwt>
<pdfrwt beam="2">  1       -2 0.17463714E+00 0.67782310E+03</pdfrwt>
<totfact> 0.53800100E+00</totfact>
</mgrwt>
</event>
<event>
 4    1  0.8287789E-007  0.1120201E+04  0.7818608E-02  0.9238891E-01
          2   -1    0    0  501    0  0.00000000000E+00  0.00000000000E+00  0.14906686078E+04  0.14906686078E+04  0.25500000000E-02 0. -1.
         -2   -1    0    0    0  501 -0.00000000000E+00 -0.00000000000E+00 -0.23854242409E+04  0.23854242409E+04  0.25500000000E-02 0.  1.
    8880023    1    1    2    0    0  0.44965604129E+03  0.78666976810E+03  0.11677272810E+04  0.16181585487E+04  0.65864270000E+03 0.  0.
    8880022    1    1    2    0    0 -0.44965604129E+03 -0.78666976810E+03 -0.20624829141E+04  0.22579343001E+04  0.15294330000E+03 0.  0.
<mgrwt>
<rscale>  0 0.10660866E+04</rscale>
<asrwt>0</asrwt>
<pdfrwt beam="1">  1        2 0.22933363E+00 0.11202009E+04</pdfrwt>
<pdfrwt beam="2">  1       -2 0.36698835E+00 0.11202009E+04</pdfrwt>
<totfact> 0.15501031E-01</totfact>
</mgrwt>
</event>
<event>
 4    1  0.8287789E-007  0.6606225E+03  0.7818608E-02  0.1023528E+00
         -2   -1    0    0    0  501 -0.00000000000E+00  0.00000000000E+00  0.57578717433E+03  0.57578717433E+03  0.25500000000E-02 0.  1.
          2   -1    0    0  501    0  0.00000000000E+00 -0.00000000000E+00 -0.82886035413E+03  0.82886035413E+03  0.25500000000E-02 0. -1.
    8880023    1    1    2    0    0 -0.43963569468E+02 -0.26059808959E+02 -0.68013254718E+03  0.94815736936E+03  0.65864270000E+03 0. -1.
    8880022    1    1    2    0    0  0.43963569468E+02  0.26059808959E+02  0.42705936737E+03  0.45649015911E+03  0.15294330000E+03 0.  0.
<mgrwt>
<rscale>  0 0.46434860E+03</rscale>
<asrwt>0</asrwt>
<pdfrwt beam="1">  1        2 0.12751698E+00 0.66062252E+03</pdfrwt>
<pdfrwt beam="2">  1       -2 0.88582642E-01 0.66062252E+03</pdfrwt>
<totfact> 0.36818393E+01</totfact>
</mgrwt>
</event>
<event>
 4    1  0.8287789E-007  0.7124184E+03  0.7818608E-02  0.9949128E-01
         -2   -1    0    0    0  501 -0.00000000000E+00  0.00000000000E+00  0.11067874438E+04  0.11067874438E+04  0.25500000000E-02 0.  1.
          2   -1    0    0  501    0  0.00000000000E+00 -0.00000000000E+00 -0.38104126463E+03  0.38104126463E+03  0.25500000000E-02 0. -1.
    8880023    1    1    2    0    0 -0.25714539684E+03 -0.87212135984E+02  0.15912165699E+02  0.71259603918E+03  0.65864270000E+03 0. -1.
    8880022    1    1    2    0    0  0.25714539684E+03  0.87212135984E+02  0.70983401350E+03  0.77523266927E+03  0.15294330000E+03 0.  0.
<mgrwt>
<rscale>  0 0.57938290E+03</rscale>
<asrwt>0</asrwt>
<pdfrwt beam="1">  1        2 0.58621733E-01 0.71241836E+03</pdfrwt>
<pdfrwt beam="2">  1       -2 0.17027499E+00 0.71241836E+03</pdfrwt>
<totfact> 0.18139801E+01</totfact>
</mgrwt>
</event>
<event>
 4    1  0.8287789E-007  0.9079272E+03  0.7818608E-02  0.9513424E-01
         -2   -1    0    0    0  501 -0.00000000000E+00  0.00000000000E+00  0.76003055864E+03  0.76003055865E+03  0.25500000000E-02 0.  1.
          2   -1    0    0  501    0  0.00000000000E+00 -0.00000000000E+00 -0.14489062029E+04  0.14489062029E+04  0.25500000000E-02 0. -1.
    8880023    1    1    2    0    0 -0.43813491367E+03 -0.44560006444E+03  0.36145166022E+03  0.97723033567E+03  0.65864270000E+03 0.  0.
    8880022    1    1    2    0    0  0.43813491367E+03  0.44560006444E+03 -0.10503273044E+04  0.12317064258E+04  0.15294330000E+03 0.  0.
<mgrwt>
<rscale>  0 0.83301332E+03</rscale>
<asrwt>0</asrwt>
<pdfrwt beam="1">  1        2 0.22290865E+00 0.90792721E+03</pdfrwt>
<pdfrwt beam="2">  1       -2 0.11692778E+00 0.90792721E+03</pdfrwt>
<totfact> 0.77119097E+00</totfact>
</mgrwt>
</event>
<event>
 4    1  0.8287789E-007  0.7175574E+03  0.7818608E-02  0.9930939E-01
          2   -1    0    0  501    0  0.00000000000E+00  0.00000000000E+00  0.25377870695E+04  0.25377870695E+04  0.25500000000E-02 0. -1.
         -2   -1    0    0    0  501 -0.00000000000E+00 -0.00000000000E+00 -0.20230331499E+03  0.20230331501E+03  0.25500000000E-02 0.  1.
    8880023    1    1    2    0    0  0.24513047047E+03 -0.14487733598E+03  0.23065413045E+04  0.24155788924E+04  0.65864270000E+03 0. -1.
    8880022    1    1    2    0    0 -0.24513047047E+03  0.14487733598E+03  0.28942449972E+02  0.32451149202E+03  0.15294330000E+03 0.  0.
<mgrwt>
<rscale>  0 0.58784990E+03</rscale>
<asrwt>0</asrwt>
<pdfrwt beam="1">  1        2 0.39042877E+00 0.71755738E+03</pdfrwt>
<pdfrwt beam="2">  1       -2 0.31123588E-01 0.71755738E+03</pdfrwt>
<totfact> 0.33214338E+01</totfact>
</mgrwt>
</event>
<event>
 4    1  0.8287789E-007  0.7872572E+03  0.7818608E-02  0.9739058E-01
         -2   -1    0    0    0  501 -0.00000000000E+00  0.00000000000E+00  0.20546225871E+04  0.20546225871E+04  0.25500000000E-02 0.  1.
          2   -1    0    0  501    0  0.00000000000E+00 -0.00000000000E+00 -0.42801550000E+03  0.42801550001E+03  0.25500000000E-02 0. -1.
    8880023    1    1    2    0    0 -0.60483966098E+02 -0.42697227040E+03 -0.58412968662E+01  0.78727883044E+03  0.65864270000E+03 0. -1.
    8880022    1    1    2    0    0  0.60483966098E+02  0.42697227040E+03  0.16324483840E+04  0.16953592567E+04  0.15294330000E+03 0.  0.
<mgrwt>
<rscale>  0 0.68738168E+03</rscale>
<asrwt>0</asrwt>
<pdfrwt beam="1">  1        2 0.65848538E-01 0.78725716E+03</pdfrwt>
<pdfrwt beam="2">  1       -2 0.31609579E+00 0.78725716E+03</pdfrwt>
<totfact> 0.19368717E+00</totfact>
</mgrwt>
</event>
<event>
 4    1  0.8287789E-007  0.8770481E+03  0.7818608E-02  0.9563929E-01
         -2   -1    0    0    0  501 -0.00000000000E+00  0.00000000000E+00  0.88269124957E+03  0.88269124957E+03  0.25500000000E-02 0.  1.
          2   -1    0    0  501    0  0.00000000000E+00 -0.00000000000E+00 -0.95817389156E+03  0.95817389157E+03  0.25500000000E-02 0. -1.
    8880023    1    1    2    0    0 -0.40278129539E+03 -0.41613743315E+03 -0.58519245666E+03  0.10543545669E+04  0.65864270000E+03 0. -1.
    8880022    1    1    2    0    0  0.40278129539E+03  0.41613743315E+03  0.50970981467E+03  0.78651057422E+03  0.15294330000E+03 0.  0.
<mgrwt>
<rscale>  0 0.79730285E+03</rscale>
<asrwt>0</asrwt>
<pdfrwt beam="1">  1        2 0.14741137E+00 0.87704808E+03</pdfrwt>
<pdfrwt beam="2">  1       -2 0.13579865E+00 0.87704808E+03</pdfrwt>
<totfact> 0.10454134E+01</totfact>
</mgrwt>
</event>
<event>
 4    1  0.8287789E-007  0.6636330E+03  0.7818608E-02  0.1020709E+00
          2   -1    0    0  501    0  0.00000000000E+00  0.00000000000E+00  0.40485066261E+04  0.40485066261E+04  0.25500000000E-02 0. -1.
         -2   -1    0    0    0  501 -0.00000000000E+00 -0.00000000000E+00 -0.17626478871E+03  0.17626478873E+03  0.25500000000E-02 0.  1.
    8880023    1    1    2    0    0 -0.16080820100E+02 -0.79624115002E+02  0.39705560929E+04  0.40256334267E+04  0.65864270000E+03 0. -1.
    8880022    1    1    2    0    0  0.16080820100E+02  0.79624115002E+02 -0.98314255561E+02  0.19913798815E+03  0.15294330000E+03 0.  0.
<mgrwt>
<rscale>  0 0.47431679E+03</rscale>
<asrwt>0</asrwt>
<pdfrwt beam="1">  1        2 0.62284708E+00 0.66363303E+03</pdfrwt>
<pdfrwt beam="2">  1       -2 0.27117664E-01 0.66363303E+03</pdfrwt>
<totfact> 0.43629492E+00</totfact>
</mgrwt>
</event>
<event>
 4    1  0.8287789E-007  0.6977749E+03  0.7818608E-02  0.1000656E+00
         -2   -1    0    0    0  501 -0.00000000000E+00  0.00000000000E+00  0.14142345777E+03  0.14142345780E+03  0.25500000000E-02 0.  1.
          2   -1    0    0  501    0  0.00000000000E+00 -0.00000000000E+00 -0.25337186659E+04  0.25337186659E+04  0.25500000000E-02 0. -1.
    8880023    1    1    2    0    0  0.12372643746E+03  0.19434871474E+03 -0.22662433897E+04  0.23712336371E+04  0.65864270000E+03 0. -1.
    8880022    1    1    2    0    0 -0.12372643746E+03 -0.19434871474E+03 -0.12605181839E+03  0.30390848653E+03  0.15294330000E+03 0.  0.
<mgrwt>
<rscale>  0 0.55363538E+03</rscale>
<asrwt>0</asrwt>
<pdfrwt beam="1">  1        2 0.38980284E+00 0.69777494E+03</pdfrwt>
<pdfrwt beam="2">  1       -2 0.21757457E-01 0.69777494E+03</pdfrwt>
<totfact> 0.64124774E+01</totfact>
</mgrwt>
</event>
<event>
 4    1  0.8287789E-007  0.9084425E+03  0.7818608E-02  0.9512612E-01
          2   -1    0    0  501    0  0.00000000000E+00  0.00000000000E+00  0.82277330794E+03  0.82277330794E+03  0.25500000000E-02 0. -1.
         -2   -1    0    0    0  501 -0.00000000000E+00 -0.00000000000E+00 -0.10556900938E+04  0.10556900938E+04  0.25500000000E-02 0.  1.
    8880023    1    1    2    0    0  0.11561028788E+03 -0.61489174982E+03  0.38429949498E+03  0.98638426121E+03  0.65864270000E+03 0.  0.
    8880022    1    1    2    0    0 -0.11561028788E+03  0.61489174982E+03 -0.61721628089E+03  0.89207914058E+03  0.15294330000E+03 0.  0.
<mgrwt>
<rscale>  0 0.83360321E+03</rscale>
<asrwt>0</asrwt>
<pdfrwt beam="1">  1        2 0.12658051E+00 0.90844252E+03</pdfrwt>
<pdfrwt beam="2">  1       -2 0.16241386E+00 0.90844252E+03</pdfrwt>
<totfact> 0.80226991E+00</totfact>
</mgrwt>
</event>
<event>
 4    1  0.8287789E-007  0.1137085E+04  0.7818608E-02  0.9220848E-01
         -2   -1    0    0    0  501 -0.00000000000E+00  0.00000000000E+00  0.10909838370E+04  0.10909838370E+04  0.25500000000E-02 0.  1.
          2   -1    0    0  501    0  0.00000000000E+00 -0.00000000000E+00 -0.12827129069E+04  0.12827129069E+04  0.25500000000E-02 0. -1.
    8880023    1    1    2    0    0 -0.92649646818E+03  0.27488678689E+02  0.46392753615E+03  0.12280839947E+04  0.65864270000E+03 0.  1.
    8880022    1    1    2    0    0  0.92649646818E+03 -0.27488678689E+02 -0.65565660609E+03  0.11456127492E+04  0.15294330000E+03 0.  0.
<mgrwt>
<rscale>  0 0.10840806E+04</rscale>
<asrwt>0</asrwt>
<pdfrwt beam="1">  1        2 0.19734045E+00 0.11370847E+04</pdfrwt>
<pdfrwt beam="2">  1       -2 0.16784367E+00 0.11370847E+04</pdfrwt>
<totfact> 0.36520212E+00</totfact>
</mgrwt>
</event>
<event>
 4    1  0.9161999E-007  0.6599778E+03  0.7818608E-02  0.1024179E+00
          2   -1    0    0  501    0  0.00000000000E+00  0.00000000000E+00  0.20914830482E+04  0.20914830482E+04  0.25500000000E-02 0. -1.
         -2   -1    0    0    0  501 -0.00000000000E+00 -0.00000000000E+00 -0.51120895130E+03  0.51120895131E+03  0.25500000000E-02 0.  1.
    8880023    1    1    2    0    0 -0.24049874739E+02  0.34381922619E+02  0.20253694160E+04  0.21301859052E+04  0.65864270000E+03 0. -1.
    8880022    1    1    2    0    0  0.24049874739E+02 -0.34381922619E+02 -0.44509531911E+03  0.47250609434E+03  0.15294330000E+03 0.  0.
<mgrwt>
<rscale>  0 0.46208187E+03</rscale>
<asrwt>0</asrwt>
<pdfrwt beam="1">  1        2 0.32176662E+00 0.65997782E+03</pdfrwt>
<pdfrwt beam="2">  1       -2 0.78647532E-01 0.65997782E+03</pdfrwt>
<totfact> 0.89898103E+00</totfact>
</mgrwt>
</event>
<event>
 4    1  0.8287789E-007  0.6760933E+03  0.7818608E-02  0.1011626E+00
          2   -1    0    0  501    0  0.00000000000E+00  0.00000000000E+00  0.30595034876E+04  0.30595034876E+04  0.25500000000E-02 0. -1.
         -2   -1    0    0    0  501 -0.00000000000E+00 -0.00000000000E+00 -0.23784682055E+03  0.23784682057E+03  0.25500000000E-02 0.  1.
    8880023    1    1    2    0    0  0.87542927363E+02  0.12501287669E+03  0.29630032524E+04  0.30391594995E+04  0.65864270000E+03 0. -1.
    8880022    1    1    2    0    0 -0.87542927363E+02 -0.12501287669E+03 -0.14134658536E+03  0.25819080866E+03  0.15294330000E+03 0.  0.
<mgrwt>
<rscale>  0 0.50833566E+03</rscale>
<asrwt>0</asrwt>
<pdfrwt beam="1">  1        2 0.47069284E+00 0.67609333E+03</pdfrwt>
<pdfrwt beam="2">  1       -2 0.36591819E-01 0.67609333E+03</pdfrwt>
<totfact> 0.12116958E+01</totfact>
</mgrwt>
</event>
<event>
 4    1  0.8287789E-007  0.1469417E+04  0.7818608E-02  0.8931539E-01
         -2   -1    0    0    0  501 -0.00000000000E+00  0.00000000000E+00  0.88617189724E+03  0.88617189725E+03  0.25500000000E-02 0.  1.
          2   -1    0    0  501    0  0.00000000000E+00 -0.00000000000E+00 -0.36895908525E+04  0.36895908525E+04  0.25500000000E-02 0. -1.
    8880023    1    1    2    0    0  0.11761175730E+04  0.58491388876E+03 -0.28987576049E+04  0.32499204084E+04  0.65864270000E+03 0. -1.
    8880022    1    1    2    0    0 -0.11761175730E+04 -0.58491388876E+03  0.95338649648E+02  0.13258423413E+04  0.15294330000E+03 0.  0.
<mgrwt>
<rscale>  0 0.14312002E+04</rscale>
<asrwt>0</asrwt>
<pdfrwt beam="1">  1        2 0.56762935E+00 0.14694172E+04</pdfrwt>
<pdfrwt beam="2">  1       -2 0.13633414E+00 0.14694172E+04</pdfrwt>
<totfact> 0.21981968E-01</totfact>
</mgrwt>
</event>
<event>
 4    1  0.8287789E-007  0.7789984E+03  0.7818608E-02  0.9758195E-01
         -2   -1    0    0    0  501 -0.00000000000E+00  0.00000000000E+00  0.25251848384E+03  0.25251848385E+03  0.25500000000E-02 0.  1.
          2   -1    0    0  501    0  0.00000000000E+00 -0.00000000000E+00 -0.17289304216E+04  0.17289304216E+04  0.25500000000E-02 0. -1.
    8880023    1    1    2    0    0  0.37414057718E+03  0.18178864015E+03 -0.12761188978E+04  0.14950979663E+04  0.65864270000E+03 0.  0.
    8880022    1    1    2    0    0 -0.37414057718E+03 -0.18178864015E+03 -0.20029304000E+03  0.48635093921E+03  0.15294330000E+03 0.  0.
<mgrwt>
<rscale>  0 0.67655111E+03</rscale>
<asrwt>0</asrwt>
<pdfrwt beam="1">  1        2 0.26598929E+00 0.77899839E+03</pdfrwt>
<pdfrwt beam="2">  1       -2 0.38848999E-01 0.77899839E+03</pdfrwt>
<totfact> 0.60422098E+01</totfact>
</mgrwt>
</event>
<event>
 4    1  0.8287789E-007  0.6931021E+03  0.7818608E-02  0.1002712E+00
         -2   -1    0    0    0  501 -0.00000000000E+00  0.00000000000E+00  0.91566378718E+02  0.91566378753E+02  0.25500000000E-02 0.  1.
          2   -1    0    0  501    0  0.00000000000E+00 -0.00000000000E+00 -0.30507040189E+04  0.30507040189E+04  0.25500000000E-02 0. -1.
    8880023    1    1    2    0    0  0.18723686945E+03  0.10734338428E+03 -0.26311400015E+04  0.27208984107E+04  0.65864270000E+03 0. -1.
    8880022    1    1    2    0    0 -0.18723686945E+03 -0.10734338428E+03 -0.32799763873E+03  0.42137198703E+03  0.15294330000E+03 0.  1.
<mgrwt>
<rscale>  0 0.54477021E+03</rscale>
<asrwt>0</asrwt>
<pdfrwt beam="1">  1        2 0.46933900E+00 0.69310205E+03</pdfrwt>
<pdfrwt beam="2">  1       -2 0.14087138E-01 0.69310205E+03</pdfrwt>
<totfact> 0.67150506E+01</totfact>
</mgrwt>
</event>
<event>
 4    1  0.8287789E-007  0.7645376E+03  0.7818608E-02  0.9793499E-01
          2   -1    0    0  501    0  0.00000000000E+00  0.00000000000E+00  0.16097950263E+04  0.16097950263E+04  0.25500000000E-02 0. -1.
         -2   -1    0    0    0  501 -0.00000000000E+00 -0.00000000000E+00 -0.61060697573E+03  0.61060697574E+03  0.25500000000E-02 0.  1.
    8880023    1    1    2    0    0  0.12303680542E+03 -0.36819769608E+03  0.14294409753E+04  0.16210549982E+04  0.65864270000E+03 0. -1.
    8880022    1    1    2    0    0 -0.12303680542E+03  0.36819769608E+03 -0.43025292470E+03  0.59934700393E+03  0.15294330000E+03 0.  0.
<mgrwt>
<rscale>  0 0.65712618E+03</rscale>
<asrwt>0</asrwt>
<pdfrwt beam="1">  1        2 0.24766077E+00 0.76453764E+03</pdfrwt>
<pdfrwt beam="2">  1       -2 0.93939536E-01 0.76453764E+03</pdfrwt>
<totfact> 0.10795915E+01</totfact>
</mgrwt>
</event>
<event>
 4    1  0.8287789E-007  0.6590197E+03  0.7818608E-02  0.1025184E+00
          2   -1    0    0  501    0  0.00000000000E+00  0.00000000000E+00  0.18219391359E+04  0.18219391359E+04  0.25500000000E-02 0. -1.
         -2   -1    0    0    0  501 -0.00000000000E+00 -0.00000000000E+00 -0.11355752013E+03  0.11355752016E+03  0.25500000000E-02 0.  1.
    8880023    1    1    2    0    0  0.70802250861E+01 -0.21132579119E+02  0.16381272622E+04  0.17657202069E+04  0.65864270000E+03 0. -1.
    8880022    1    1    2    0    0 -0.70802250861E+01  0.21132579119E+02  0.70254353534E+02  0.16977644917E+03  0.15294330000E+03 0.  0.
<mgrwt>
<rscale>  0 0.45861377E+03</rscale>
<asrwt>0</asrwt>
<pdfrwt beam="1">  1        2 0.28029834E+00 0.65901967E+03</pdfrwt>
<pdfrwt beam="2">  1       -2 0.17470387E-01 0.65901967E+03</pdfrwt>
<totfact> 0.23284811E+02</totfact>
</mgrwt>
</event>
<event>
 4    1  0.8287789E-007  0.1430955E+04  0.7818608E-02  0.8959995E-01
          2   -1    0    0  501    0  0.00000000000E+00  0.00000000000E+00  0.28559488932E+04  0.28559488932E+04  0.25500000000E-02 0. -1.
         -2   -1    0    0    0  501 -0.00000000000E+00 -0.00000000000E+00 -0.12130752401E+04  0.12130752401E+04  0.25500000000E-02 0.  1.
    8880023    1    1    2    0    0 -0.12434200808E+04  0.26024956519E+03  0.22391800579E+04  0.26573597558E+04  0.65864270000E+03 0.  0.
    8880022    1    1    2    0    0  0.12434200808E+04 -0.26024956519E+03 -0.59630640475E+03  0.14116643775E+04  0.15294330000E+03 0.  0.
<mgrwt>
<rscale>  0 0.13914987E+04</rscale>
<asrwt>0</asrwt>
<pdfrwt beam="1">  1        2 0.43937675E+00 0.14309555E+04</pdfrwt>
<pdfrwt beam="2">  1       -2 0.18662696E+00 0.14309555E+04</pdfrwt>
<totfact> 0.33193720E-01</totfact>
</mgrwt>
</event>
<event>
 4    1  0.8287789E-007  0.6965773E+03  0.7818608E-02  0.1001171E+00
          2   -1    0    0  501    0  0.00000000000E+00  0.00000000000E+00  0.31027875809E+04  0.31027875809E+04  0.25500000000E-02 0. -1.
         -2   -1    0    0    0  501 -0.00000000000E+00 -0.00000000000E+00 -0.39221913128E+03  0.39221913128E+03  0.25500000000E-02 0.  1.
    8880023    1    1    2    0    0 -0.20588865298E+03 -0.94971752217E+02  0.30099527439E+04  0.30895040861E+04  0.65864270000E+03 0. -1.
    8880022    1    1    2    0    0  0.20588865298E+03  0.94971752217E+02 -0.29938429425E+03  0.40550262613E+03  0.15294330000E+03 0.  0.
<mgrwt>
<rscale>  0 0.55139870E+03</rscale>
<asrwt>0</asrwt>
<pdfrwt beam="1">  1        2 0.47735191E+00 0.69657733E+03</pdfrwt>
<pdfrwt beam="2">  1       -2 0.60341408E-01 0.69657733E+03</pdfrwt>
<totfact> 0.41499555E+00</totfact>
</mgrwt>
</event>
<event>
 4    1  0.8287789E-007  0.7484031E+03  0.7818608E-02  0.9836112E-01
         -2   -1    0    0    0  501 -0.00000000000E+00  0.00000000000E+00  0.82635831877E+03  0.82635831877E+03  0.25500000000E-02 0.  1.
          2   -1    0    0  501    0  0.00000000000E+00 -0.00000000000E+00 -0.10120188880E+04  0.10120188880E+04  0.25500000000E-02 0. -1.
    8880023    1    1    2    0    0  0.23034574915E+02 -0.35463568400E+03 -0.81066922363E+03  0.11033095016E+04  0.65864270000E+03 0.  0.
    8880022    1    1    2    0    0 -0.23034574915E+02  0.35463568400E+03  0.62500865441E+03  0.73506770512E+03  0.15294330000E+03 0.  0.
<mgrwt>
<rscale>  0 0.63460039E+03</rscale>
<asrwt>0</asrwt>
<pdfrwt beam="1">  1        2 0.15569521E+00 0.74840314E+03</pdfrwt>
<pdfrwt beam="2">  1       -2 0.12713205E+00 0.74840314E+03</pdfrwt>
<totfact> 0.11569816E+01</totfact>
</mgrwt>
</event>
<event>
 4    1  0.8287789E-007  0.7450651E+03  0.7818608E-02  0.9845431E-01
          2   -1    0    0  501    0  0.00000000000E+00  0.00000000000E+00  0.88521656839E+03  0.88521656839E+03  0.25500000000E-02 0. -1.
         -2   -1    0    0    0  501 -0.00000000000E+00 -0.00000000000E+00 -0.50906562833E+03  0.50906562834E+03  0.25500000000E-02 0.  1.
    8880023    1    1    2    0    0  0.28776228904E+02 -0.34710774368E+03  0.59671581108E+03  0.95456368176E+03  0.65864270000E+03 0.  0.
    8880022    1    1    2    0    0 -0.28776228904E+02  0.34710774368E+03 -0.22056487102E+03  0.43971851498E+03  0.15294330000E+03 0.  0.
<mgrwt>
<rscale>  0 0.62980422E+03</rscale>
<asrwt>0</asrwt>
<pdfrwt beam="1">  1        2 0.13618716E+00 0.74506514E+03</pdfrwt>
<pdfrwt beam="2">  1       -2 0.78317789E-01 0.74506514E+03</pdfrwt>
<totfact> 0.44160071E+01</totfact>
</mgrwt>
</event>
<event>
 4    1  0.8287789E-007  0.7558624E+03  0.7818608E-02  0.9815940E-01
          2   -1    0    0  501    0  0.00000000000E+00  0.00000000000E+00  0.41530482138E+04  0.41530482138E+04  0.25500000000E-02 0. -1.
         -2   -1    0    0    0  501 -0.00000000000E+00 -0.00000000000E+00 -0.35684371295E+03  0.35684371296E+03  0.25500000000E-02 0.  1.
    8880023    1    1    2    0    0  0.30966668536E+03 -0.20402021348E+03  0.39924178509E+04  0.40633395386E+04  0.65864270000E+03 0.  0.
    8880022    1    1    2    0    0 -0.30966668536E+03  0.20402021348E+03 -0.19621335011E+03  0.44655238809E+03  0.15294330000E+03 0.  0.
<mgrwt>
<rscale>  0 0.64514109E+03</rscale>
<asrwt>0</asrwt>
<pdfrwt beam="1">  1        2 0.63893051E+00 0.75586236E+03</pdfrwt>
<pdfrwt beam="2">  1       -2 0.54899032E-01 0.75586236E+03</pdfrwt>
<totfact> 0.89136960E-01</totfact>
</mgrwt>
</event>
<event>
 4    1  0.8287789E-007  0.8086069E+03  0.7818608E-02  0.9692486E-01
         -2   -1    0    0    0  501 -0.00000000000E+00  0.00000000000E+00  0.73414262102E+03  0.73414262103E+03  0.25500000000E-02 0.  1.
          2   -1    0    0  501    0  0.00000000000E+00 -0.00000000000E+00 -0.16030106745E+04  0.16030106745E+04  0.25500000000E-02 0. -1.
    8880023    1    1    2    0    0  0.23856678021E+03 -0.40388214670E+03 -0.13971714004E+04  0.16142902544E+04  0.65864270000E+03 0. -1.
    8880022    1    1    2    0    0 -0.23856678021E+03  0.40388214670E+03  0.52830334685E+03  0.72286304121E+03  0.15294330000E+03 0.  0.
<mgrwt>
<rscale>  0 0.71465934E+03</rscale>
<asrwt>0</asrwt>
<pdfrwt beam="1">  1        2 0.24661703E+00 0.80860689E+03</pdfrwt>
<pdfrwt beam="2">  1       -2 0.11294502E+00 0.80860689E+03</pdfrwt>
<totfact> 0.69719773E+00</totfact>
</mgrwt>
</event>
<event>
 4    1  0.8287789E-007  0.6886124E+03  0.7818608E-02  0.1004819E+00
         -2   -1    0    0    0  501 -0.00000000000E+00  0.00000000000E+00  0.81235134229E+03  0.81235134230E+03  0.25500000000E-02 0.  1.
          2   -1    0    0  501    0  0.00000000000E+00 -0.00000000000E+00 -0.44618701284E+03  0.44618701285E+03  0.25500000000E-02 0. -1.
    8880023    1    1    2    0    0 -0.10486418934E+03  0.17140676787E+03 -0.13095874486E+03  0.70095447598E+03  0.65864270000E+03 0. -1.
    8880022    1    1    2    0    0  0.10486418934E+03 -0.17140676787E+03  0.49712307431E+03  0.55758387917E+03  0.15294330000E+03 0.  0.
<mgrwt>
<rscale>  0 0.53586677E+03</rscale>
<asrwt>0</asrwt>
<pdfrwt beam="1">  1        2 0.68644156E-01 0.68861236E+03</pdfrwt>
<pdfrwt beam="2">  1       -2 0.12497713E+00 0.68861236E+03</pdfrwt>
<totfact> 0.34249846E+01</totfact>
</mgrwt>
</event>
<event>
 4    1  0.8287789E-007  0.6664033E+03  0.7818608E-02  0.1018384E+00
         -2   -1    0    0    0  501 -0.00000000000E+00  0.00000000000E+00  0.13244689253E+03  0.13244689255E+03  0.25500000000E-02 0.  1.
          2   -1    0    0  501    0  0.00000000000E+00 -0.00000000000E+00 -0.20320374593E+04  0.20320374593E+04  0.25500000000E-02 0. -1.
    8880023    1    1    2    0    0  0.70022269122E+02 -0.73348898940E+02 -0.18613332279E+04  0.19770318082E+04  0.65864270000E+03 0. -1.
    8880022    1    1    2    0    0 -0.70022269122E+02  0.73348898940E+02 -0.38257338959E+02  0.18745254372E+03  0.15294330000E+03 0.  1.
<mgrwt>
<rscale>  0 0.48274307E+03</rscale>
<asrwt>0</asrwt>
<pdfrwt beam="1">  1        2 0.31262112E+00 0.66640332E+03</pdfrwt>
<pdfrwt beam="2">  1       -2 0.20376446E-01 0.66640332E+03</pdfrwt>
<totfact> 0.13702734E+02</totfact>
</mgrwt>
</event>
<event>
 4    1  0.8287789E-007  0.7093784E+03  0.7818608E-02  0.9960316E-01
         -2   -1    0    0    0  501 -0.00000000000E+00  0.00000000000E+00  0.14869697426E+03  0.14869697428E+03  0.25500000000E-02 0.  1.
          2   -1    0    0  501    0  0.00000000000E+00 -0.00000000000E+00 -0.30382935169E+04  0.30382935169E+04  0.25500000000E-02 0. -1.
    8880023    1    1    2    0    0  0.11571826628E+03  0.23667871102E+03 -0.27705531756E+04  0.28599270330E+04  0.65864270000E+03 0. -1.
    8880022    1    1    2    0    0 -0.11571826628E+03 -0.23667871102E+03 -0.11904336710E+03  0.32706345817E+03  0.15294330000E+03 0.  0.
<mgrwt>
<rscale>  0 0.57425065E+03</rscale>
<asrwt>0</asrwt>
<pdfrwt beam="1">  1        2 0.46742973E+00 0.70937841E+03</pdfrwt>
<pdfrwt beam="2">  1       -2 0.22876460E-01 0.70937841E+03</pdfrwt>
<totfact> 0.29518198E+01</totfact>
</mgrwt>
</event>
<event>
 4    1  0.8287789E-007  0.7677812E+03  0.7818608E-02  0.9785364E-01
          2   -1    0    0  501    0  0.00000000000E+00  0.00000000000E+00  0.61274311110E+03  0.61274311111E+03  0.25500000000E-02 0. -1.
         -2   -1    0    0    0  501 -0.00000000000E+00 -0.00000000000E+00 -0.98282004321E+03  0.98282004321E+03  0.25500000000E-02 0.  1.
    8880023    1    1    2    0    0 -0.39456019321E+03 -0.17043430810E+00  0.28223750651E+03  0.81801344210E+03  0.65864270000E+03 0. -1.
    8880022    1    1    2    0    0  0.39456019321E+03  0.17043430810E+00 -0.65231443862E+03  0.77754971221E+03  0.15294330000E+03 0.  0.
<mgrwt>
<rscale>  0 0.66153951E+03</rscale>
<asrwt>0</asrwt>
<pdfrwt beam="1">  1        2 0.94268171E-01 0.76778121E+03</pdfrwt>
<pdfrwt beam="2">  1       -2 0.15120308E+00 0.76778121E+03</pdfrwt>
<totfact> 0.14363386E+01</totfact>
</mgrwt>
</event>
<event>
 4    1  0.8287789E-007  0.6740073E+03  0.7818608E-02  0.1012939E+00
         -2   -1    0    0    0  501 -0.00000000000E+00  0.00000000000E+00  0.12641961946E+04  0.12641961946E+04  0.25500000000E-02 0.  1.
          2   -1    0    0  501    0  0.00000000000E+00 -0.00000000000E+00 -0.70182373016E+03  0.70182373017E+03  0.25500000000E-02 0. -1.
    8880023    1    1    2    0    0  0.85411246162E+02 -0.11480673763E+03 -0.52769906364E+03  0.85600944855E+03  0.65864270000E+03 0. -1.
    8880022    1    1    2    0    0 -0.85411246162E+02  0.11480673763E+03  0.10900715281E+04  0.11100104762E+04  0.15294330000E+03 0.  0.
<mgrwt>
<rscale>  0 0.50322951E+03</rscale>
<asrwt>0</asrwt>
<pdfrwt beam="1">  1        2 0.10797288E+00 0.67400733E+03</pdfrwt>
<pdfrwt beam="2">  1       -2 0.19449172E+00 0.67400733E+03</pdfrwt>
<totfact> 0.60863707E+00</totfact>
</mgrwt>
</event>
<event>
 4    1  0.8287789E-007  0.7279054E+03  0.7818608E-02  0.9896692E-01
          2   -1    0    0  501    0  0.00000000000E+00  0.00000000000E+00  0.24130091032E+04  0.24130091032E+04  0.25500000000E-02 0. -1.
         -2   -1    0    0    0  501 -0.00000000000E+00 -0.00000000000E+00 -0.32498829336E+03  0.32498829337E+03  0.25500000000E-02 0.  1.
    8880023    1    1    2    0    0 -0.18729027107E+03 -0.24689745527E+03  0.22438076546E+04  0.23589232705E+04  0.65864270000E+03 0. -1.
    8880022    1    1    2    0    0  0.18729027107E+03  0.24689745527E+03 -0.15578684474E+03  0.37907412608E+03  0.15294330000E+03 0.  0.
<mgrwt>
<rscale>  0 0.60421889E+03</rscale>
<asrwt>0</asrwt>
<pdfrwt beam="1">  1        2 0.37123218E+00 0.72790535E+03</pdfrwt>
<pdfrwt beam="2">  1       -2 0.49998198E-01 0.72790535E+03</pdfrwt>
<totfact> 0.15504081E+01</totfact>
</mgrwt>
</event>
<event>
 4    1  0.8287789E-007  0.7563999E+03  0.7818608E-02  0.9814518E-01
         -2   -1    0    0    0  501 -0.00000000000E+00  0.00000000000E+00  0.29050923721E+03  0.29050923723E+03  0.25500000000E-02 0.  1.
          2   -1    0    0  501    0  0.00000000000E+00 -0.00000000000E+00 -0.15313575816E+04  0.15313575816E+04  0.25500000000E-02 0. -1.
    8880023    1    1    2    0    0 -0.20199765821E+03  0.31229412334E+03 -0.11988577860E+04  0.14175333755E+04  0.65864270000E+03 0. -1.
    8880022    1    1    2    0    0  0.20199765821E+03 -0.31229412334E+03 -0.41990558419E+02  0.40433344334E+03  0.15294330000E+03 0.  0.
<mgrwt>
<rscale>  0 0.64589194E+03</rscale>
<asrwt>0</asrwt>
<pdfrwt beam="1">  1        2 0.23559347E+00 0.75639995E+03</pdfrwt>
<pdfrwt beam="2">  1       -2 0.44693730E-01 0.75639995E+03</pdfrwt>
<totfact> 0.59061978E+01</totfact>
</mgrwt>
</event>
<event>
 4    1  0.8287789E-007  0.6693184E+03  0.7818608E-02  0.1016156E+00
          2   -1    0    0  501    0  0.00000000000E+00  0.00000000000E+00  0.19378009408E+04  0.19378009408E+04  0.25500000000E-02 0. -1.
         -2   -1    0    0    0  501 -0.00000000000E+00 -0.00000000000E+00 -0.98530066724E+02  0.98530066757E+02  0.25500000000E-02 0.  1.
    8880023    1    1    2    0    0 -0.11309330233E+03  0.37240187359E+02  0.15475398527E+04  0.16860802853E+04  0.65864270000E+03 0. -1.
    8880022    1    1    2    0    0  0.11309330233E+03 -0.37240187359E+02  0.29173102144E+03  0.35025072230E+03  0.15294330000E+03 0.  1.
<mgrwt>
<rscale>  0 0.49099568E+03</rscale>
<asrwt>0</asrwt>
<pdfrwt beam="1">  1        2 0.29812319E+00 0.66931841E+03</pdfrwt>
<pdfrwt beam="2">  1       -2 0.15158473E-01 0.66931841E+03</pdfrwt>
<totfact> 0.25631553E+02</totfact>
</mgrwt>
</event>
<event>
 4    1  0.8287789E-007  0.7930118E+03  0.7818608E-02  0.9726115E-01
         -2   -1    0    0    0  501 -0.00000000000E+00  0.00000000000E+00  0.54708707581E+03  0.54708707581E+03  0.25500000000E-02 0.  1.
          2   -1    0    0  501    0  0.00000000000E+00 -0.00000000000E+00 -0.21270736048E+04  0.21270736048E+04  0.25500000000E-02 0. -1.
    8880023    1    1    2    0    0 -0.44162819045E+03 -0.46899727442E+01 -0.19324090728E+04  0.20887968990E+04  0.65864270000E+03 0.  0.
    8880022    1    1    2    0    0  0.44162819045E+03  0.46899727442E+01  0.35242254379E+03  0.58536378162E+03  0.15294330000E+03 0.  0.
<mgrwt>
<rscale>  0 0.69482991E+03</rscale>
<asrwt>0</asrwt>
<pdfrwt beam="1">  1        2 0.32724209E+00 0.79301177E+03</pdfrwt>
<pdfrwt beam="2">  1       -2 0.84167244E-01 0.79301177E+03</pdfrwt>
<totfact> 0.72156866E+00</totfact>
</mgrwt>
</event>
<event>
 4    1  0.8287789E-007  0.1015451E+04  0.7818608E-02  0.9361616E-01
          2   -1    0    0  501    0  0.00000000000E+00  0.00000000000E+00  0.72960852568E+03  0.72960852569E+03  0.25500000000E-02 0. -1.
         -2   -1    0    0    0  501 -0.00000000000E+00 -0.00000000000E+00 -0.14147913854E+04  0.14147913854E+04  0.25500000000E-02 0.  1.
    8880023    1    1    2    0    0 -0.77096694855E+03  0.54225310875E+02  0.11440428786E+03  0.10218752211E+04  0.65864270000E+03 0.  0.
    8880022    1    1    2    0    0  0.77096694855E+03 -0.54225310875E+02 -0.79958714758E+03  0.11225246900E+04  0.15294330000E+03 0.  0.
<mgrwt>
<rscale>  0 0.95302954E+03</rscale>
<asrwt>0</asrwt>
<pdfrwt beam="1">  1        2 0.11224747E+00 0.10154509E+04</pdfrwt>
<pdfrwt beam="2">  1       -2 0.21766021E+00 0.10154509E+04</pdfrwt>
<totfact> 0.39466871E+00</totfact>
</mgrwt>
</event>
<event>
 4    1  0.8287789E-007  0.6852272E+03  0.7818608E-02  0.1006509E+00
          2   -1    0    0  501    0  0.00000000000E+00  0.00000000000E+00  0.24310452950E+04  0.24310452950E+04  0.25500000000E-02 0. -1.
         -2   -1    0    0    0  501 -0.00000000000E+00 -0.00000000000E+00 -0.11457135963E+03  0.11457135966E+03  0.25500000000E-02 0.  1.
    8880023    1    1    2    0    0  0.18578454359E+03  0.34787225794E+02  0.21348627433E+04  0.22421362998E+04  0.65864270000E+03 0.  0.
    8880022    1    1    2    0    0 -0.18578454359E+03 -0.34787225794E+02  0.18161119210E+03  0.30348035493E+03  0.15294330000E+03 0.  0.
<mgrwt>
<rscale>  0 0.52885987E+03</rscale>
<asrwt>0</asrwt>
<pdfrwt beam="1">  1        2 0.37400694E+00 0.68522716E+03</pdfrwt>
<pdfrwt beam="2">  1       -2 0.17626364E-01 0.68522716E+03</pdfrwt>
<totfact> 0.10595340E+02</totfact>
</mgrwt>
</event>
<event>
 4    1  0.8287789E-007  0.7788464E+03  0.7818608E-02  0.9758554E-01
         -2   -1    0    0    0  501 -0.00000000000E+00  0.00000000000E+00  0.39704413615E+03  0.39704413616E+03  0.25500000000E-02 0.  1.
          2   -1    0    0  501    0  0.00000000000E+00 -0.00000000000E+00 -0.95974682535E+03  0.95974682535E+03  0.25500000000E-02 0. -1.
    8880023    1    1    2    0    0 -0.98298070288E+02  0.40389223822E+03 -0.45098310208E+03  0.89999300850E+03  0.65864270000E+03 0. -1.
    8880022    1    1    2    0    0  0.98298070288E+02 -0.40389223822E+03 -0.11171958712E+03  0.45679795301E+03  0.15294330000E+03 0.  1.
<mgrwt>
<rscale>  0 0.67635008E+03</rscale>
<asrwt>0</asrwt>
<pdfrwt beam="1">  1        2 0.14765336E+00 0.77884636E+03</pdfrwt>
<pdfrwt beam="2">  1       -2 0.61083714E-01 0.77884636E+03</pdfrwt>
<totfact> 0.67517299E+01</totfact>
</mgrwt>
</event>
<event>
 4    1  0.8287789E-007  0.7540402E+03  0.7818608E-02  0.9820788E-01
          2   -1    0    0  501    0  0.00000000000E+00  0.00000000000E+00  0.15679616636E+04  0.15679616636E+04  0.25500000000E-02 0. -1.
         -2   -1    0    0    0  501 -0.00000000000E+00 -0.00000000000E+00 -0.25399641306E+03  0.25399641307E+03  0.25500000000E-02 0.  1.
    8880023    1    1    2    0    0  0.23991692907E+03  0.27786014860E+03  0.11837154947E+04  0.14034810200E+04  0.65864270000E+03 0. -1.
    8880022    1    1    2    0    0 -0.23991692907E+03 -0.27786014860E+03  0.13024975591E+03  0.41847705667E+03  0.15294330000E+03 0.  1.
<mgrwt>
<rscale>  0 0.64258751E+03</rscale>
<asrwt>0</asrwt>
<pdfrwt beam="1">  1        2 0.24122487E+00 0.75404019E+03</pdfrwt>
<pdfrwt beam="2">  1       -2 0.39076371E-01 0.75404019E+03</pdfrwt>
<totfact> 0.73425839E+01</totfact>
</mgrwt>
</event>
<event>
 4    1  0.8287789E-007  0.7602610E+03  0.7818608E-02  0.9804432E-01
         -2   -1    0    0    0  501 -0.00000000000E+00  0.00000000000E+00  0.75986037972E+03  0.75986037973E+03  0.25500000000E-02 0.  1.
          2   -1    0    0  501    0  0.00000000000E+00 -0.00000000000E+00 -0.53739552379E+03  0.53739552379E+03  0.25500000000E-02 0. -1.
    8880023    1    1    2    0    0 -0.82170855456E+02 -0.37072170761E+03 -0.11221028593E+03  0.76849722739E+03  0.65864270000E+03 0. -1.
    8880022    1    1    2    0    0  0.82170855456E+02  0.37072170761E+03  0.33467514187E+03  0.52875867613E+03  0.15294330000E+03 0.  0.
<mgrwt>
<rscale>  0 0.65125230E+03</rscale>
<asrwt>0</asrwt>
<pdfrwt beam="1">  1        2 0.82676235E-01 0.76026103E+03</pdfrwt>
<pdfrwt beam="2">  1       -2 0.11690160E+00 0.76026103E+03</pdfrwt>
<totfact> 0.32422271E+01</totfact>
</mgrwt>
</event>
<event>
 4    1  0.8287789E-007  0.6619753E+03  0.7818608E-02  0.1022218E+00
          2   -1    0    0  501    0  0.00000000000E+00  0.00000000000E+00  0.59503569416E+03  0.59503569417E+03  0.25500000000E-02 0. -1.
         -2   -1    0    0    0  501 -0.00000000000E+00 -0.00000000000E+00 -0.47819778068E+03  0.47819778068E+03  0.25500000000E-02 0.  1.
    8880023    1    1    2    0    0 -0.13386536158E+02  0.64976016855E+02  0.37882218767E+03  0.76270409613E+03  0.65864270000E+03 0. -1.
    8880022    1    1    2    0    0  0.13386536158E+02 -0.64976016855E+02 -0.26198427418E+03  0.31052937872E+03  0.15294330000E+03 0.  0.
<mgrwt>
<rscale>  0 0.46894590E+03</rscale>
<asrwt>0</asrwt>
<pdfrwt beam="1">  1        2 0.91543953E-01 0.66197529E+03</pdfrwt>
<pdfrwt beam="2">  1       -2 0.73568890E-01 0.66197529E+03</pdfrwt>
<totfact> 0.84938324E+01</totfact>
</mgrwt>
</event>
<event>
 4    1  0.8287789E-007  0.8428522E+03  0.7818608E-02  0.9624825E-01
          2   -1    0    0  501    0  0.00000000000E+00  0.00000000000E+00  0.93357806544E+03  0.93357806544E+03  0.25500000000E-02 0. -1.
         -2   -1    0    0    0  501 -0.00000000000E+00 -0.00000000000E+00 -0.85027129834E+03  0.85027129835E+03  0.25500000000E-02 0.  1.
    8880023    1    1    2    0    0 -0.17972341713E+03 -0.49425618355E+03  0.59706136823E+03  0.10328998816E+04  0.65864270000E+03 0. -1.
    8880022    1    1    2    0    0  0.17972341713E+03  0.49425618355E+03 -0.51375460114E+03  0.75094948222E+03  0.15294330000E+03 0.  0.
<mgrwt>
<rscale>  0 0.75674639E+03</rscale>
<asrwt>0</asrwt>
<pdfrwt beam="1">  1        2 0.14362739E+00 0.84285223E+03</pdfrwt>
<pdfrwt beam="2">  1       -2 0.13081097E+00 0.84285223E+03</pdfrwt>
<totfact> 0.11978867E+01</totfact>
</mgrwt>
</event>
<event>
 4    1  0.8287789E-007  0.6654933E+03  0.7818608E-02  0.1019123E+00
         -2   -1    0    0    0  501 -0.00000000000E+00  0.00000000000E+00  0.25185308974E+04  0.25185308974E+04  0.25500000000E-02 0.  1.
          2   -1    0    0  501    0  0.00000000000E+00 -0.00000000000E+00 -0.18825685924E+03  0.18825685926E+03  0.25500000000E-02 0. -1.
    8880023    1    1    2    0    0 -0.61860251533E+02  0.72418834222E+02  0.41764273789E+03  0.78568876856E+03  0.65864270000E+03 0. -1.
    8880022    1    1    2    0    0  0.61860251533E+02 -0.72418834222E+02  0.19126313002E+04  0.19210989880E+04  0.15294330000E+03 0.  0.
<mgrwt>
<rscale>  0 0.48004404E+03</rscale>
<asrwt>0</asrwt>
<pdfrwt beam="1">  1        2 0.28962595E-01 0.66549334E+03</pdfrwt>
<pdfrwt beam="2">  1       -2 0.38746628E+00 0.66549334E+03</pdfrwt>
<totfact> 0.17814791E+00</totfact>
</mgrwt>
</event>
<event>
 4    1  0.8287789E-007  0.7733417E+03  0.7818608E-02  0.9771716E-01
         -2   -1    0    0    0  501 -0.00000000000E+00  0.00000000000E+00  0.37622555974E+03  0.37622555974E+03  0.25500000000E-02 0.  1.
          2   -1    0    0  501    0  0.00000000000E+00 -0.00000000000E+00 -0.10055006670E+04  0.10055006670E+04  0.25500000000E-02 0. -1.
    8880023    1    1    2    0    0  0.11677419330E+03  0.38808636848E+03 -0.52940028081E+03  0.93718840432E+03  0.65864270000E+03 0.  0.
    8880022    1    1    2    0    0 -0.11677419330E+03 -0.38808636848E+03 -0.99874826498E+02  0.44453782246E+03  0.15294330000E+03 0. -1.
<mgrwt>
<rscale>  0 0.66902747E+03</rscale>
<asrwt>0</asrwt>
<pdfrwt beam="1">  1        2 0.15469241E+00 0.77334174E+03</pdfrwt>
<pdfrwt beam="2">  1       -2 0.57880856E-01 0.77334174E+03</pdfrwt>
<totfact> 0.70704738E+01</totfact>
</mgrwt>
</event>
<event>
 4    1  0.8287789E-007  0.8554423E+03  0.7818608E-02  0.9601723E-01
          2   -1    0    0  501    0  0.00000000000E+00  0.00000000000E+00  0.57781247208E+03  0.57781247208E+03  0.25500000000E-02 0. -1.
         -2   -1    0    0    0  501 -0.00000000000E+00 -0.00000000000E+00 -0.11066944446E+04  0.11066944446E+04  0.25500000000E-02 0.  1.
    8880023    1    1    2    0    0  0.17547764412E+03 -0.51689356245E+03  0.71940167446E+02  0.85846196913E+03  0.65864270000E+03 0.  1.
    8880022    1    1    2    0    0 -0.17547764412E+03  0.51689356245E+03 -0.60082213995E+03  0.82604494754E+03  0.15294330000E+03 0.  0.
<mgrwt>
<rscale>  0 0.77182268E+03</rscale>
<asrwt>0</asrwt>
<pdfrwt beam="1">  1        2 0.88894227E-01 0.85544232E+03</pdfrwt>
<pdfrwt beam="2">  1       -2 0.17026068E+00 0.85544232E+03</pdfrwt>
<totfact> 0.11077659E+01</totfact>
</mgrwt>
</event>
<event>
 4    1  0.8287789E-007  0.1078704E+04  0.7818608E-02  0.9285145E-01
          2   -1    0    0  501    0  0.00000000000E+00  0.00000000000E+00  0.21389123911E+04  0.21389123911E+04  0.25500000000E-02 0. -1.
         -2   -1    0    0    0  501 -0.00000000000E+00 -0.00000000000E+00 -0.54519154301E+03  0.54519154302E+03  0.25500000000E-02 0.  1.
    8880023    1    1    2    0    0  0.77857567313E+03  0.35158580289E+03  0.28837378005E+03  0.11165851060E+04  0.65864270000E+03 0.  0.
    8880022    1    1    2    0    0 -0.77857567313E+03 -0.35158580289E+03  0.13053470681E+04  0.15675188282E+04  0.15294330000E+03 0.  0.
<mgrwt>
<rscale>  0 0.10216202E+04</rscale>
<asrwt>0</asrwt>
<pdfrwt beam="1">  1        2 0.32906344E+00 0.10787043E+04</pdfrwt>
<pdfrwt beam="2">  1       -2 0.83875623E-01 0.10787043E+04</pdfrwt>
<totfact> 0.69040245E+00</totfact>
</mgrwt>
</event>
<event>
 4    1  0.8287789E-007  0.6732294E+03  0.7818608E-02  0.1013446E+00
         -2   -1    0    0    0  501 -0.00000000000E+00  0.00000000000E+00  0.30555462933E+03  0.30555462934E+03  0.25500000000E-02 0.  1.
          2   -1    0    0  501    0  0.00000000000E+00 -0.00000000000E+00 -0.10140580665E+04  0.10140580665E+04  0.25500000000E-02 0. -1.
    8880023    1    1    2    0    0  0.65313525386E+02 -0.12313306371E+03 -0.83843598824E+03  0.10752733237E+04  0.65864270000E+03 0. -1.
    8880022    1    1    2    0    0 -0.65313525386E+02  0.12313306371E+03  0.12993255103E+03  0.24433937220E+03  0.15294330000E+03 0.  0.
<mgrwt>
<rscale>  0 0.50127633E+03</rscale>
<asrwt>0</asrwt>
<pdfrwt beam="1">  1        2 0.15600893E+00 0.67322939E+03</pdfrwt>
<pdfrwt beam="2">  1       -2 0.47008405E-01 0.67322939E+03</pdfrwt>
<totfact> 0.10786740E+02</totfact>
</mgrwt>
</event>
<event>
 4    1  0.8287789E-007  0.9247829E+03  0.7818608E-02  0.9487364E-01
         -2   -1    0    0    0  501 -0.00000000000E+00  0.00000000000E+00  0.50453592743E+03  0.50453592744E+03  0.25500000000E-02 0.  1.
          2   -1    0    0  501    0  0.00000000000E+00 -0.00000000000E+00 -0.17121056015E+04  0.17121056015E+04  0.25500000000E-02 0. -1.
    8880023    1    1    2    0    0 -0.29093938654E+03  0.58031662943E+03 -0.12423952150E+04  0.15487960465E+04  0.65864270000E+03 0.  0.
    8880022    1    1    2    0    0  0.29093938654E+03 -0.58031662943E+03  0.34825541013E+02  0.66784548240E+03  0.15294330000E+03 0.  0.
<mgrwt>
<rscale>  0 0.85221859E+03</rscale>
<asrwt>0</asrwt>
<pdfrwt beam="1">  1        2 0.26340086E+00 0.92478285E+03</pdfrwt>
<pdfrwt beam="2">  1       -2 0.77620913E-01 0.92478285E+03</pdfrwt>
<totfact> 0.14381855E+01</totfact>
</mgrwt>
</event>
<event>
 4    1  0.8287789E-007  0.1123455E+04  0.7818608E-02  0.9235381E-01
          2   -1    0    0  501    0  0.00000000000E+00  0.00000000000E+00  0.59804636782E+03  0.59804636783E+03  0.25500000000E-02 0. -1.
         -2   -1    0    0    0  501 -0.00000000000E+00 -0.00000000000E+00 -0.41018732798E+04  0.41018732798E+04  0.25500000000E-02 0.  1.
    8880023    1    1    2    0    0  0.87070751666E+03  0.26496835642E+03 -0.49621063524E+02  0.11245498058E+04  0.65864270000E+03 0. -1.
    8880022    1    1    2    0    0 -0.87070751666E+03 -0.26496835642E+03 -0.34542058484E+04  0.35753698418E+04  0.15294330000E+03 0.  0.
<mgrwt>
<rscale>  0 0.10695583E+04</rscale>
<asrwt>0</asrwt>
<pdfrwt beam="1">  1        2 0.92007136E-01 0.11234545E+04</pdfrwt>
<pdfrwt beam="2">  1       -2 0.63105741E+00 0.11234545E+04</pdfrwt>
<totfact> 0.18771250E-02</totfact>
</mgrwt>
</event>
<event>
 4    1  0.8287789E-007  0.7129379E+03  0.7818608E-02  0.9947249E-01
         -2   -1    0    0    0  501 -0.00000000000E+00  0.00000000000E+00  0.11979350819E+04  0.11979350819E+04  0.25500000000E-02 0.  1.
          2   -1    0    0  501    0  0.00000000000E+00 -0.00000000000E+00 -0.89056839606E+03  0.89056839606E+03  0.25500000000E-02 0. -1.
    8880023    1    1    2    0    0  0.21646031577E+03 -0.16617818910E+03 -0.72078708106E+03  0.10138118570E+04  0.65864270000E+03 0. -1.
    8880022    1    1    2    0    0 -0.21646031577E+03  0.16617818910E+03  0.10281537669E+04  0.10746916210E+04  0.15294330000E+03 0.  0.
<mgrwt>
<rscale>  0 0.58025046E+03</rscale>
<asrwt>0</asrwt>
<pdfrwt beam="1">  1        2 0.13701052E+00 0.71293791E+03</pdfrwt>
<pdfrwt beam="2">  1       -2 0.18429771E+00 0.71293791E+03</pdfrwt>
<totfact> 0.51711697E+00</totfact>
</mgrwt>
</event>
<event>
 4    1  0.8287789E-007  0.9878006E+03  0.7818608E-02  0.9397695E-01
         -2   -1    0    0    0  501 -0.00000000000E+00  0.00000000000E+00  0.18389025614E+04  0.18389025614E+04  0.25500000000E-02 0.  1.
          2   -1    0    0  501    0  0.00000000000E+00 -0.00000000000E+00 -0.93360632613E+03  0.93360632613E+03  0.25500000000E-02 0. -1.
    8880023    1    1    2    0    0 -0.45034732390E+03 -0.58234624995E+03 -0.55280398809E+03  0.11319639228E+04  0.65864270000E+03 0. -1.
    8880022    1    1    2    0    0  0.45034732390E+03  0.58234624995E+03  0.14581002234E+04  0.16405449648E+04  0.15294330000E+03 0.  0.
<mgrwt>
<rscale>  0 0.92265613E+03</rscale>
<asrwt>0</asrwt>
<pdfrwt beam="1">  1        2 0.14363174E+00 0.98780062E+03</pdfrwt>
<pdfrwt beam="2">  1       -2 0.28290809E+00 0.98780062E+03</pdfrwt>
<totfact> 0.11288724E+00</totfact>
</mgrwt>
</event>
<event>
 4    1  0.8287789E-007  0.9986150E+03  0.7818608E-02  0.9383372E-01
         -2   -1    0    0    0  501 -0.00000000000E+00  0.00000000000E+00  0.19810747646E+04  0.19810747646E+04  0.25500000000E-02 0.  1.
          2   -1    0    0  501    0  0.00000000000E+00 -0.00000000000E+00 -0.68908520874E+03  0.68908520875E+03  0.25500000000E-02 0. -1.
    8880023    1    1    2    0    0  0.16691187023E+03  0.73182112237E+03 -0.17629605726E+03  0.10140573128E+04  0.65864270000E+03 0. -1.
    8880022    1    1    2    0    0 -0.16691187023E+03 -0.73182112237E+03  0.14682856131E+04  0.16561026605E+04  0.15294330000E+03 0.  0.
<mgrwt>
<rscale>  0 0.93456835E+03</rscale>
<asrwt>0</asrwt>
<pdfrwt beam="1">  1        2 0.10601311E+00 0.99861501E+03</pdfrwt>
<pdfrwt beam="2">  1       -2 0.30478073E+00 0.99861501E+03</pdfrwt>
<totfact> 0.12494470E+00</totfact>
</mgrwt>
</event>
<event>
 4    1  0.8287789E-007  0.9338756E+03  0.7818608E-02  0.9473703E-01
          2   -1    0    0  501    0  0.00000000000E+00  0.00000000000E+00  0.41275023969E+04  0.41275023969E+04  0.25500000000E-02 0. -1.
         -2   -1    0    0    0  501 -0.00000000000E+00 -0.00000000000E+00 -0.18555847436E+03  0.18555847437E+03  0.25500000000E-02 0.  1.
    8880023    1    1    2    0    0  0.65622827304E+03  0.87623568096E+02  0.14076846932E+04  0.16892897436E+04  0.65864270000E+03 0.  1.
    8880022    1    1    2    0    0 -0.65622827304E+03 -0.87623568096E+02  0.25342592294E+04  0.26237711277E+04  0.15294330000E+03 0.  0.
<mgrwt>
<rscale>  0 0.86250646E+03</rscale>
<asrwt>0</asrwt>
<pdfrwt beam="1">  1        2 0.63500032E+00 0.93387560E+03</pdfrwt>
<pdfrwt beam="2">  1       -2 0.28547460E-01 0.93387560E+03</pdfrwt>
<totfact> 0.32322207E+00</totfact>
</mgrwt>
</event>
<event>
 4    1  0.8287789E-007  0.9438980E+03  0.7818608E-02  0.9458948E-01
          2   -1    0    0  501    0  0.00000000000E+00  0.00000000000E+00  0.18120595476E+04  0.18120595476E+04  0.25500000000E-02 0. -1.
         -2   -1    0    0    0  501 -0.00000000000E+00 -0.00000000000E+00 -0.10797111720E+04  0.10797111720E+04  0.25500000000E-02 0.  1.
    8880023    1    1    2    0    0  0.66357362212E+03  0.12962715996E+03  0.15531124646E+04  0.18174437231E+04  0.65864270000E+03 0. -1.
    8880022    1    1    2    0    0 -0.66357362212E+03 -0.12962715996E+03 -0.82076408907E+03  0.10743269965E+04  0.15294330000E+03 0.  0.
<mgrwt>
<rscale>  0 0.87379240E+03</rscale>
<asrwt>0</asrwt>
<pdfrwt beam="1">  1        2 0.27877839E+00 0.94389796E+03</pdfrwt>
<pdfrwt beam="2">  1       -2 0.16610941E+00 0.94389796E+03</pdfrwt>
<totfact> 0.19370622E+00</totfact>
</mgrwt>
</event>
<event>
 4    1  0.8287789E-007  0.8452113E+03  0.7818608E-02  0.9620431E-01
          2   -1    0    0  501    0  0.00000000000E+00  0.00000000000E+00  0.32531899926E+04  0.32531899926E+04  0.25500000000E-02 0. -1.
         -2   -1    0    0    0  501 -0.00000000000E+00 -0.00000000000E+00 -0.19862269086E+03  0.19862269088E+03  0.25500000000E-02 0.  1.
    8880023    1    1    2    0    0  0.29196356822E+03 -0.44196064457E+03  0.26103994622E+04  0.27438235174E+04  0.65864270000E+03 0. -1.
    8880022    1    1    2    0    0 -0.29196356822E+03  0.44196064457E+03  0.44416783958E+03  0.70798916606E+03  0.15294330000E+03 0.  0.
<mgrwt>
<rscale>  0 0.75958550E+03</rscale>
<asrwt>0</asrwt>
<pdfrwt beam="1">  1        2 0.50049077E+00 0.84521130E+03</pdfrwt>
<pdfrwt beam="2">  1       -2 0.30557337E-01 0.84521130E+03</pdfrwt>
<totfact> 0.12475514E+01</totfact>
</mgrwt>
</event>
<event>
 4    1  0.8287789E-007  0.6682003E+03  0.7818608E-02  0.1016987E+00
         -2   -1    0    0    0  501 -0.00000000000E+00  0.00000000000E+00  0.11522038721E+04  0.11522038721E+04  0.25500000000E-02 0.  1.
          2   -1    0    0  501    0  0.00000000000E+00 -0.00000000000E+00 -0.20734655325E+03  0.20734655326E+03  0.25500000000E-02 0. -1.
    8880023    1    1    2    0    0  0.42170418527E+02  0.10441780756E+03  0.39136057097E+03  0.77437376344E+03  0.65864270000E+03 0. -1.
    8880022    1    1    2    0    0 -0.42170418527E+02 -0.10441780756E+03  0.55349674793E+03  0.58517666197E+03  0.15294330000E+03 0.  0.
<mgrwt>
<rscale>  0 0.48789671E+03</rscale>
<asrwt>0</asrwt>
<pdfrwt beam="1">  1        2 0.31899470E-01 0.66820029E+03</pdfrwt>
<pdfrwt beam="2">  1       -2 0.17726213E+00 0.66820029E+03</pdfrwt>
<totfact> 0.32061485E+01</totfact>
</mgrwt>
</event>
<event>
 4    1  0.8287789E-007  0.1222741E+04  0.7818608E-02  0.9135327E-01
          2   -1    0    0  501    0  0.00000000000E+00  0.00000000000E+00  0.24983202386E+04  0.24983202386E+04  0.25500000000E-02 0. -1.
         -2   -1    0    0    0  501 -0.00000000000E+00 -0.00000000000E+00 -0.70253938552E+03  0.70253938552E+03  0.25500000000E-02 0.  1.
    8880023    1    1    2    0    0  0.17704816235E+03 -0.10148597075E+04  0.12107075253E+03  0.12287207214E+04  0.65864270000E+03 0.  1.
    8880022    1    1    2    0    0 -0.17704816235E+03  0.10148597075E+04  0.16747101006E+04  0.19721389028E+04  0.15294330000E+03 0.  0.
<mgrwt>
<rscale>  0 0.11746637E+04</rscale>
<asrwt>0</asrwt>
<pdfrwt beam="1">  1        2 0.38435696E+00 0.12227414E+04</pdfrwt>
<pdfrwt beam="2">  1       -2 0.10808298E+00 0.12227414E+04</pdfrwt>
<totfact> 0.23432444E+00</totfact>
</mgrwt>
</event>
<event>
 4    1  0.8287789E-007  0.6939303E+03  0.7818608E-02  0.1002338E+00
          2   -1    0    0  501    0  0.00000000000E+00  0.00000000000E+00  0.13344094969E+04  0.13344094969E+04  0.25500000000E-02 0. -1.
         -2   -1    0    0    0  501 -0.00000000000E+00 -0.00000000000E+00 -0.18826790997E+03  0.18826790999E+03  0.25500000000E-02 0.  1.
    8880023    1    1    2    0    0 -0.14056025019E+03  0.16724777227E+03  0.10040112933E+04  0.12204826442E+04  0.65864270000E+03 0.  0.
    8880022    1    1    2    0    0  0.14056025019E+03 -0.16724777227E+03  0.14213029362E+03  0.30219476276E+03  0.15294330000E+03 0.  0.
<mgrwt>
<rscale>  0 0.54636936E+03</rscale>
<asrwt>0</asrwt>
<pdfrwt beam="1">  1        2 0.20529376E+00 0.69393026E+03</pdfrwt>
<pdfrwt beam="2">  1       -2 0.28964295E-01 0.69393026E+03</pdfrwt>
<totfact> 0.17582070E+02</totfact>
</mgrwt>
</event>
<event>
 4    1  0.8548065E-007  0.6622599E+03  0.7818608E-02  0.1021952E+00
         -2   -1    0    0    0  501 -0.00000000000E+00  0.00000000000E+00  0.62562314541E+03  0.62562314542E+03  0.25500000000E-02 0.  1.
          2   -1    0    0  501    0  0.00000000000E+00 -0.00000000000E+00 -0.12262083471E+04  0.12262083472E+04  0.25500000000E-02 0. -1.
    8880023    1    1    2    0    0  0.52040473789E+02  0.45495237490E+02 -0.11226611802E+04  0.13034402017E+04  0.65864270000E+03 0. -1.
    8880022    1    1    2    0    0 -0.52040473789E+02 -0.45495237490E+02  0.52207597850E+03  0.54839129086E+03  0.15294330000E+03 0.  0.
<mgrwt>
<rscale>  0 0.46988773E+03</rscale>
<asrwt>0</asrwt>
<pdfrwt beam="1">  1        2 0.18864744E+00 0.66225994E+03</pdfrwt>
<pdfrwt beam="2">  1       -2 0.96249715E-01 0.66225994E+03</pdfrwt>
<totfact> 0.17023928E+01</totfact>
</mgrwt>
</event>
<event>
 4    1  0.8287789E-007  0.8215635E+03  0.7818608E-02  0.9665976E-01
         -2   -1    0    0    0  501 -0.00000000000E+00  0.00000000000E+00  0.87085029451E+03  0.87085029452E+03  0.25500000000E-02 0.  1.
          2   -1    0    0  501    0  0.00000000000E+00 -0.00000000000E+00 -0.11107800927E+04  0.11107800927E+04  0.25500000000E-02 0. -1.
    8880023    1    1    2    0    0 -0.34273511229E+03 -0.35169443294E+03 -0.85103068372E+03  0.11828862000E+04  0.65864270000E+03 0.  0.
    8880022    1    1    2    0    0  0.34273511229E+03  0.35169443294E+03  0.61110088549E+03  0.79874418722E+03  0.15294330000E+03 0.  0.
<mgrwt>
<rscale>  0 0.73079219E+03</rscale>
<asrwt>0</asrwt>
<pdfrwt beam="1">  1        2 0.17088924E+00 0.82156347E+03</pdfrwt>
<pdfrwt beam="2">  1       -2 0.13397697E+00 0.82156347E+03</pdfrwt>
<totfact> 0.87192228E+00</totfact>
</mgrwt>
</event>
<event>
 4    1  0.9810928E-007  0.7175768E+03  0.7818608E-02  0.9930872E-01
         -2   -1    0    0    0  501 -0.00000000000E+00  0.00000000000E+00  0.65231487750E+03  0.65231487751E+03  0.25500000000E-02 0.  1.
          2   -1    0    0  501    0  0.00000000000E+00 -0.00000000000E+00 -0.17143657354E+04  0.17143657354E+04  0.25500000000E-02 0. -1.
    8880023    1    1    2    0    0  0.27524080843E+03  0.73135142933E+02 -0.15918143432E+04  0.17460782804E+04  0.65864270000E+03 0.  0.
    8880022    1    1    2    0    0 -0.27524080843E+03 -0.73135142933E+02  0.52976348530E+03  0.62060233252E+03  0.15294330000E+03 0.  1.
<mgrwt>
<rscale>  0 0.58788142E+03</rscale>
<asrwt>0</asrwt>
<pdfrwt beam="1">  1        2 0.26374857E+00 0.71757680E+03</pdfrwt>
<pdfrwt beam="2">  1       -2 0.10035614E+00 0.71757680E+03</pdfrwt>
<totfact> 0.81548099E+00</totfact>
</mgrwt>
</event>
<event>
 4    1  0.8287789E-007  0.7414714E+03  0.7818608E-02  0.9855682E-01
          2   -1    0    0  501    0  0.00000000000E+00  0.00000000000E+00  0.14767705326E+04  0.14767705326E+04  0.25500000000E-02 0. -1.
         -2   -1    0    0    0  501 -0.00000000000E+00 -0.00000000000E+00 -0.34183477198E+03  0.34183477199E+03  0.25500000000E-02 0.  1.
    8880023    1    1    2    0    0  0.10207376853E+03 -0.32488544024E+03  0.12274330784E+04  0.14340054992E+04  0.65864270000E+03 0. -1.
    8880022    1    1    2    0    0 -0.10207376853E+03  0.32488544024E+03 -0.92497317781E+02  0.38459980540E+03  0.15294330000E+03 0.  0.
<mgrwt>
<rscale>  0 0.62458069E+03</rscale>
<asrwt>0</asrwt>
<pdfrwt beam="1">  1        2 0.22719546E+00 0.74147138E+03</pdfrwt>
<pdfrwt beam="2">  1       -2 0.52589965E-01 0.74147138E+03</pdfrwt>
<totfact> 0.45646545E+01</totfact>
</mgrwt>
</event>
<event>
 4    1  0.8287789E-007  0.1261842E+04  0.7818608E-02  0.9099233E-01
         -2   -1    0    0    0  501 -0.00000000000E+00  0.00000000000E+00  0.50317672224E+03  0.50317672224E+03  0.25500000000E-02 0.  1.
          2   -1    0    0  501    0  0.00000000000E+00 -0.00000000000E+00 -0.30267509316E+04  0.30267509316E+04  0.25500000000E-02 0. -1.
    8880023    1    1    2    0    0 -0.10631489339E+04 -0.16777849911E+03 -0.80622295114E+03  0.14974114110E+04  0.65864270000E+03 0.  0.
    8880022    1    1    2    0    0  0.10631489339E+04  0.16777849911E+03 -0.17173512582E+04  0.20325162429E+04  0.15294330000E+03 0.  0.
<mgrwt>
<rscale>  0 0.12156904E+04</rscale>
<asrwt>0</asrwt>
<pdfrwt beam="1">  1        2 0.46565398E+00 0.12618421E+04</pdfrwt>
<pdfrwt beam="2">  1       -2 0.77411805E-01 0.12618421E+04</pdfrwt>
<totfact> 0.24597269E+00</totfact>
</mgrwt>
</event>
<event>
 4    1  0.8287789E-007  0.7437836E+03  0.7818608E-02  0.9849060E-01
          2   -1    0    0  501    0  0.00000000000E+00  0.00000000000E+00  0.71883054951E+03  0.71883054951E+03  0.25500000000E-02 0. -1.
         -2   -1    0    0    0  501 -0.00000000000E+00 -0.00000000000E+00 -0.92028375104E+03  0.92028375105E+03  0.25500000000E-02 0.  1.
    8880023    1    1    2    0    0 -0.30417972839E+02  0.34420717296E+03  0.46200166834E+03  0.87559098830E+03  0.65864270000E+03 0. -1.
    8880022    1    1    2    0    0  0.30417972839E+02 -0.34420717296E+03 -0.66345486987E+03  0.76352331226E+03  0.15294330000E+03 0.  0.
<mgrwt>
<rscale>  0 0.62794883E+03</rscale>
<asrwt>0</asrwt>
<pdfrwt beam="1">  1        2 0.11058931E+00 0.74378360E+03</pdfrwt>
<pdfrwt beam="2">  1       -2 0.14158212E+00 0.74378360E+03</pdfrwt>
<totfact> 0.14030281E+01</totfact>
</mgrwt>
</event>
<event>
 4    1  0.8287789E-007  0.6858631E+03  0.7818608E-02  0.1006184E+00
          2   -1    0    0  501    0  0.00000000000E+00  0.00000000000E+00  0.26264875196E+04  0.26264875196E+04  0.25500000000E-02 0. -1.
         -2   -1    0    0    0  501 -0.00000000000E+00 -0.00000000000E+00 -0.13615357364E+03  0.13615357366E+03  0.25500000000E-02 0.  1.
    8880023    1    1    2    0    0  0.18041506405E+03  0.63627118514E+02  0.24087346480E+04  0.25044781525E+04  0.65864270000E+03 0. -1.
    8880022    1    1    2    0    0 -0.18041506405E+03 -0.63627118514E+02  0.81599297962E+02  0.25816294077E+03  0.15294330000E+03 0.  0.
<mgrwt>
<rscale>  0 0.53019745E+03</rscale>
<asrwt>0</asrwt>
<pdfrwt beam="1">  1        2 0.40407494E+00 0.68586311E+03</pdfrwt>
<pdfrwt beam="2">  1       -2 0.20946707E-01 0.68586311E+03</pdfrwt>
<totfact> 0.60791912E+01</totfact>
</mgrwt>
</event>
<event>
 4    1  0.8287789E-007  0.1450548E+04  0.7818608E-02  0.8945368E-01
          2   -1    0    0  501    0  0.00000000000E+00  0.00000000000E+00  0.15092134033E+04  0.15092134033E+04  0.25500000000E-02 0. -1.
         -2   -1    0    0    0  501 -0.00000000000E+00 -0.00000000000E+00 -0.17784574367E+04  0.17784574367E+04  0.25500000000E-02 0.  1.
    8880023    1    1    2    0    0 -0.79759053735E+03 -0.10169217885E+04  0.75154580304E+03  0.16336804735E+04  0.65864270000E+03 0. -1.
    8880022    1    1    2    0    0  0.79759053735E+03  0.10169217885E+04 -0.10207898365E+04  0.16539903665E+04  0.15294330000E+03 0.  0.
<mgrwt>
<rscale>  0 0.14117339E+04</rscale>
<asrwt>0</asrwt>
<pdfrwt beam="1">  1        2 0.23218668E+00 0.14505484E+04</pdfrwt>
<pdfrwt beam="2">  1       -2 0.27360884E+00 0.14505484E+04</pdfrwt>
<totfact> 0.54619804E-01</totfact>
</mgrwt>
</event>
<event>
 4    1  0.9071086E-007  0.6872694E+03  0.7818608E-02  0.1005478E+00
          2   -1    0    0  501    0  0.00000000000E+00  0.00000000000E+00  0.20899050336E+04  0.20899050336E+04  0.25500000000E-02 0. -1.
         -2   -1    0    0    0  501 -0.00000000000E+00 -0.00000000000E+00 -0.34185374235E+03  0.34185374236E+03  0.25500000000E-02 0.  1.
    8880023    1    1    2    0    0  0.14785093442E+03 -0.12910902763E+03  0.19773496301E+04  0.20933826228E+04  0.65864270000E+03 0. -1.
    8880022    1    1    2    0    0 -0.14785093442E+03  0.12910902763E+03 -0.22929833880E+03  0.33837615314E+03  0.15294330000E+03 0.  0.
<mgrwt>
<rscale>  0 0.53311971E+03</rscale>
<asrwt>0</asrwt>
<pdfrwt beam="1">  1        2 0.32152386E+00 0.68726941E+03</pdfrwt>
<pdfrwt beam="2">  1       -2 0.52592882E-01 0.68726941E+03</pdfrwt>
<totfact> 0.21227677E+01</totfact>
</mgrwt>
</event>
<event>
 4    1  0.9949942E-007  0.6927541E+03  0.7818608E-02  0.1002870E+00
          2   -1    0    0  501    0  0.00000000000E+00  0.00000000000E+00  0.15294120573E+04  0.15294120573E+04  0.25500000000E-02 0. -1.
         -2   -1    0    0    0  501 -0.00000000000E+00 -0.00000000000E+00 -0.15000285437E+04  0.15000285437E+04  0.25500000000E-02 0.  1.
    8880023    1    1    2    0    0  0.12608960814E+03 -0.17377985556E+03  0.14381074691E+04  0.15962648046E+04  0.65864270000E+03 0. -1.
    8880022    1    1    2    0    0 -0.12608960814E+03  0.17377985556E+03 -0.14087239556E+04  0.14331757964E+04  0.15294330000E+03 0.  0.
<mgrwt>
<rscale>  0 0.54409454E+03</rscale>
<asrwt>0</asrwt>
<pdfrwt beam="1">  1        2 0.23529416E+00 0.69275409E+03</pdfrwt>
<pdfrwt beam="2">  1       -2 0.23077362E+00 0.69275409E+03</pdfrwt>
<totfact> 0.10855042E+00</totfact>
</mgrwt>
</event>
<event>
 4    1  0.8287789E-007  0.7695585E+03  0.7818608E-02  0.9780962E-01
         -2   -1    0    0    0  501 -0.00000000000E+00  0.00000000000E+00  0.47188803495E+03  0.47188803495E+03  0.25500000000E-02 0.  1.
          2   -1    0    0  501    0  0.00000000000E+00 -0.00000000000E+00 -0.99454468248E+03  0.99454468249E+03  0.25500000000E-02 0. -1.
    8880023    1    1    2    0    0 -0.40859652799E+02 -0.39590475190E+03 -0.66483643090E+03  0.10169698963E+04  0.65864270000E+03 0. -1.
    8880022    1    1    2    0    0  0.40859652799E+02  0.39590475190E+03  0.14217978337E+03  0.44946282117E+03  0.15294330000E+03 0.  0.
<mgrwt>
<rscale>  0 0.66394329E+03</rscale>
<asrwt>0</asrwt>
<pdfrwt beam="1">  1        2 0.15300687E+00 0.76955850E+03</pdfrwt>
<pdfrwt beam="2">  1       -2 0.72598160E-01 0.76955850E+03</pdfrwt>
<totfact> 0.44179093E+01</totfact>
</mgrwt>
</event>
<event>
 4    1  0.8287789E-007  0.7089805E+03  0.7818608E-02  0.9961806E-01
          2   -1    0    0  501    0  0.00000000000E+00  0.00000000000E+00  0.85655410781E+03  0.85655410781E+03  0.25500000000E-02 0. -1.
         -2   -1    0    0    0  501 -0.00000000000E+00 -0.00000000000E+00 -0.89579906787E+03  0.89579906788E+03  0.25500000000E-02 0.  1.
    8880023    1    1    2    0    0  0.25788843756E+03  0.48339634267E+02  0.67332484475E+03  0.97776260886E+03  0.65864270000E+03 0. -1.
    8880022    1    1    2    0    0 -0.25788843756E+03 -0.48339634267E+02 -0.71256980481E+03  0.77459056683E+03  0.15294330000E+03 0.  0.
<mgrwt>
<rscale>  0 0.57357153E+03</rscale>
<asrwt>0</asrwt>
<pdfrwt beam="1">  1        2 0.13177755E+00 0.70898052E+03</pdfrwt>
<pdfrwt beam="2">  1       -2 0.13781524E+00 0.70898052E+03</pdfrwt>
<totfact> 0.11993573E+01</totfact>
</mgrwt>
</event>
<event>
 4    1  0.8287789E-007  0.9856549E+03  0.7818608E-02  0.9400571E-01
          2   -1    0    0  501    0  0.00000000000E+00  0.00000000000E+00  0.22927616533E+04  0.22927616533E+04  0.25500000000E-02 0. -1.
         -2   -1    0    0    0  501 -0.00000000000E+00 -0.00000000000E+00 -0.53678909213E+03  0.53678909214E+03  0.25500000000E-02 0.  1.
    8880023    1    1    2    0    0 -0.63674711863E+03  0.36367356066E+03  0.18282370227E+04  0.20770089478E+04  0.65864270000E+03 0. -1.
    8880022    1    1    2    0    0  0.63674711863E+03 -0.36367356066E+03 -0.72264461512E+02  0.75254179766E+03  0.15294330000E+03 0.  0.
<mgrwt>
<rscale>  0 0.92028725E+03</rscale>
<asrwt>0</asrwt>
<pdfrwt beam="1">  1        2 0.35273256E+00 0.98565489E+03</pdfrwt>
<pdfrwt beam="2">  1       -2 0.82582937E-01 0.98565489E+03</pdfrwt>
<totfact> 0.59362183E+00</totfact>
</mgrwt>
</event>
<event>
 4    1  0.8287789E-007  0.9876161E+03  0.7818608E-02  0.9397942E-01
         -2   -1    0    0    0  501 -0.00000000000E+00  0.00000000000E+00  0.67054769243E+03  0.67054769244E+03  0.25500000000E-02 0.  1.
          2   -1    0    0  501    0  0.00000000000E+00 -0.00000000000E+00 -0.47805873612E+04  0.47805873612E+04  0.25500000000E-02 0. -1.
    8880023    1    1    2    0    0  0.72077454001E+03 -0.14852384855E+03 -0.44980879953E+04  0.46052340973E+04  0.65864270000E+03 0.  0.
    8880022    1    1    2    0    0 -0.72077454001E+03  0.14852384855E+03  0.38804832657E+03  0.84590095631E+03  0.15294330000E+03 0.  0.
<mgrwt>
<rscale>  0 0.92245244E+03</rscale>
<asrwt>0</asrwt>
<pdfrwt beam="1">  1        2 0.73547496E+00 0.98761606E+03</pdfrwt>
<pdfrwt beam="2">  1       -2 0.10316119E+00 0.98761606E+03</pdfrwt>
<totfact> 0.52358139E-02</totfact>
</mgrwt>
</event>
<event>
 4    1  0.1699756E-006  0.9841663E+03  0.7818608E-02  0.9402572E-01
         -2   -1    0    0    0  501 -0.00000000000E+00  0.00000000000E+00  0.17090990469E+04  0.17090990469E+04  0.25500000000E-02 0.  1.
          2   -1    0    0  501    0  0.00000000000E+00 -0.00000000000E+00 -0.17976434883E+04  0.17976434883E+04  0.25500000000E-02 0. -1.
    8880023    1    1    2    0    0 -0.45018740750E+03  0.57628508246E+03 -0.15668945410E+04  0.18503356201E+04  0.65864270000E+03 0.  0.
    8880022    1    1    2    0    0  0.45018740750E+03 -0.57628508246E+03  0.14783500996E+04  0.16564069150E+04  0.15294330000E+03 0.  0.
<mgrwt>
<rscale>  0 0.91864284E+03</rscale>
<asrwt>0</asrwt>
<pdfrwt beam="1">  1        2 0.27656054E+00 0.98416635E+03</pdfrwt>
<pdfrwt beam="2">  1       -2 0.26293831E+00 0.98416635E+03</pdfrwt>
<totfact> 0.46571340E-01</totfact>
</mgrwt>
</event>
<event>
 4    1  0.8287789E-007  0.7112199E+03  0.7818608E-02  0.9953499E-01
          2   -1    0    0  501    0  0.00000000000E+00  0.00000000000E+00  0.14778384890E+04  0.14778384890E+04  0.25500000000E-02 0. -1.
         -2   -1    0    0    0  501 -0.00000000000E+00 -0.00000000000E+00 -0.18071931948E+03  0.18071931950E+03  0.25500000000E-02 0.  1.
    8880023    1    1    2    0    0 -0.17457319249E+03  0.20383262169E+03  0.10206478916E+04  0.12440079831E+04  0.65864270000E+03 0. -1.
    8880022    1    1    2    0    0  0.17457319249E+03 -0.20383262169E+03  0.27647127797E+03  0.41454982543E+03  0.15294330000E+03 0.  1.
<mgrwt>
<rscale>  0 0.57737120E+03</rscale>
<asrwt>0</asrwt>
<pdfrwt beam="1">  1        2 0.22735977E+00 0.71121990E+03</pdfrwt>
<pdfrwt beam="2">  1       -2 0.27802972E-01 0.71121990E+03</pdfrwt>
<totfact> 0.15713258E+02</totfact>
</mgrwt>
</event>
<event>
 4    1  0.8287789E-007  0.7314944E+03  0.7818608E-02  0.9885454E-01
          2   -1    0    0  501    0  0.00000000000E+00  0.00000000000E+00  0.38072799020E+04  0.38072799020E+04  0.25500000000E-02 0. -1.
         -2   -1    0    0    0  501 -0.00000000000E+00 -0.00000000000E+00 -0.15133947849E+03  0.15133947851E+03  0.25500000000E-02 0.  1.
    8880023    1    1    2    0    0  0.29689417844E+03  0.11457638688E+03  0.34947512558E+04  0.35704860240E+04  0.65864270000E+03 0. -1.
    8880022    1    1    2    0    0 -0.29689417844E+03 -0.11457638688E+03  0.16118916774E+03  0.38813335651E+03  0.15294330000E+03 0.  0.
<mgrwt>
<rscale>  0 0.60971458E+03</rscale>
<asrwt>0</asrwt>
<pdfrwt beam="1">  1        2 0.58573531E+00 0.73149443E+03</pdfrwt>
<pdfrwt beam="2">  1       -2 0.23282999E-01 0.73149443E+03</pdfrwt>
<totfact> 0.86687269E+00</totfact>
</mgrwt>
</event>
<event>
 4    1  0.8287789E-007  0.7755626E+03  0.7818608E-02  0.9766366E-01
         -2   -1    0    0    0  501 -0.00000000000E+00  0.00000000000E+00  0.26041442820E+03  0.26041442821E+03  0.25500000000E-02 0.  1.
          2   -1    0    0  501    0  0.00000000000E+00 -0.00000000000E+00 -0.14812150326E+04  0.14812150326E+04  0.25500000000E-02 0. -1.
    8880023    1    1    2    0    0  0.40611548131E+03 -0.52510214413E+02 -0.59138602811E+03  0.97531264079E+03  0.65864270000E+03 0.  1.
    8880022    1    1    2    0    0 -0.40611548131E+03  0.52510214413E+02 -0.62941457625E+03  0.76631681998E+03  0.15294330000E+03 0. -1.
<mgrwt>
<rscale>  0 0.67199213E+03</rscale>
<asrwt>0</asrwt>
<pdfrwt beam="1">  1        2 0.22787923E+00 0.77556258E+03</pdfrwt>
<pdfrwt beam="2">  1       -2 0.40063759E-01 0.77556258E+03</pdfrwt>
<totfact> 0.77996065E+01</totfact>
</mgrwt>
</event>
<event>
 4    1  0.8287789E-007  0.7226484E+03  0.7818608E-02  0.9913725E-01
         -2   -1    0    0    0  501 -0.00000000000E+00  0.00000000000E+00  0.13365205273E+03  0.13365205276E+03  0.25500000000E-02 0.  1.
          2   -1    0    0  501    0  0.00000000000E+00 -0.00000000000E+00 -0.21091672406E+04  0.21091672406E+04  0.25500000000E-02 0. -1.
    8880023    1    1    2    0    0 -0.21849640401E+03 -0.20166744554E+03 -0.12475554611E+04  0.14417403621E+04  0.65864270000E+03 0.  1.
    8880022    1    1    2    0    0  0.21849640401E+03  0.20166744554E+03 -0.72795972677E+03  0.80107893117E+03  0.15294330000E+03 0.  0.
<mgrwt>
<rscale>  0 0.59600720E+03</rscale>
<asrwt>0</asrwt>
<pdfrwt beam="1">  1        2 0.32448724E+00 0.72264835E+03</pdfrwt>
<pdfrwt beam="2">  1       -2 0.20561856E-01 0.72264835E+03</pdfrwt>
<totfact> 0.12165232E+02</totfact>
</mgrwt>
</event>
<event>
 4    1  0.8287789E-007  0.9282933E+03  0.7818608E-02  0.9482058E-01
         -2   -1    0    0    0  501 -0.00000000000E+00  0.00000000000E+00  0.83656358326E+03  0.83656358326E+03  0.25500000000E-02 0.  1.
          2   -1    0    0  501    0  0.00000000000E+00 -0.00000000000E+00 -0.19143021952E+04  0.19143021952E+04  0.25500000000E-02 0. -1.
    8880023    1    1    2    0    0  0.65087432296E+03  0.65427789143E+02 -0.16335926040E+04  0.18789234104E+04  0.65864270000E+03 0. -1.
    8880022    1    1    2    0    0 -0.65087432296E+03 -0.65427789143E+02  0.55585399203E+03  0.87194236814E+03  0.15294330000E+03 0.  0.
<mgrwt>
<rscale>  0 0.85619611E+03</rscale>
<asrwt>0</asrwt>
<pdfrwt beam="1">  1        2 0.29450803E+00 0.92829327E+03</pdfrwt>
<pdfrwt beam="2">  1       -2 0.12870209E+00 0.92829327E+03</pdfrwt>
<totfact> 0.33442948E+00</totfact>
</mgrwt>
</event>
<event>
 4    1  0.8287789E-007  0.6731848E+03  0.7818608E-02  0.1013476E+00
         -2   -1    0    0    0  501 -0.00000000000E+00  0.00000000000E+00  0.22741171563E+03  0.22741171565E+03  0.25500000000E-02 0.  1.
          2   -1    0    0  501    0  0.00000000000E+00 -0.00000000000E+00 -0.23832951637E+04  0.23832951637E+04  0.25500000000E-02 0. -1.
    8880023    1    1    2    0    0  0.13916300469E+03  0.11072406054E+01 -0.22746976673E+04  0.23722198995E+04  0.65864270000E+03 0. -1.
    8880022    1    1    2    0    0 -0.13916300469E+03 -0.11072406054E+01  0.11881421920E+03  0.23848697985E+03  0.15294330000E+03 0.  0.
<mgrwt>
<rscale>  0 0.50116352E+03</rscale>
<asrwt>0</asrwt>
<pdfrwt beam="1">  1        2 0.36666078E+00 0.67318480E+03</pdfrwt>
<pdfrwt beam="2">  1       -2 0.34986420E-01 0.67318480E+03</pdfrwt>
<totfact> 0.32780656E+01</totfact>
</mgrwt>
</event>
<event>
 4    1  0.8287789E-007  0.9045878E+03  0.7818608E-02  0.9518706E-01
          2   -1    0    0  501    0  0.00000000000E+00  0.00000000000E+00  0.11923932602E+04  0.11923932602E+04  0.25500000000E-02 0. -1.
         -2   -1    0    0    0  501 -0.00000000000E+00 -0.00000000000E+00 -0.13850657813E+04  0.13850657813E+04  0.25500000000E-02 0.  1.
    8880023    1    1    2    0    0 -0.56661807995E+03 -0.25181900096E+03  0.92272465164E+03  0.12921686603E+04  0.65864270000E+03 0.  0.
    8880022    1    1    2    0    0  0.56661807995E+03  0.25181900096E+03 -0.11153971728E+04  0.12852903811E+04  0.15294330000E+03 0.  0.
<mgrwt>
<rscale>  0 0.82918607E+03</rscale>
<asrwt>0</asrwt>
<pdfrwt beam="1">  1        2 0.18344512E+00 0.90458779E+03</pdfrwt>
<pdfrwt beam="2">  1       -2 0.21308704E+00 0.90458779E+03</pdfrwt>
<totfact> 0.21053613E+00</totfact>
</mgrwt>
</event>
<event>
 4    1  0.8287789E-007  0.7657617E+03  0.7818608E-02  0.9790413E-01
          2   -1    0    0  501    0  0.00000000000E+00  0.00000000000E+00  0.36662251170E+04  0.36662251170E+04  0.25500000000E-02 0. -1.
         -2   -1    0    0    0  501 -0.00000000000E+00 -0.00000000000E+00 -0.13200256992E+03  0.13200256994E+03  0.25500000000E-02 0.  1.
    8880023    1    1    2    0    0 -0.56744824536E+02 -0.38647216535E+03  0.31050949277E+04  0.31981252986E+04  0.65864270000E+03 0.  0.
    8880022    1    1    2    0    0  0.56744824536E+02  0.38647216535E+03  0.42912761944E+03  0.60010238833E+03  0.15294330000E+03 0.  0.
<mgrwt>
<rscale>  0 0.65879572E+03</rscale>
<asrwt>0</asrwt>
<pdfrwt beam="1">  1        2 0.56403465E+00 0.76576166E+03</pdfrwt>
<pdfrwt beam="2">  1       -2 0.20308087E-01 0.76576166E+03</pdfrwt>
<totfact> 0.13890585E+01</totfact>
</mgrwt>
</event>
<event>
 4    1  0.8287789E-007  0.7851574E+03  0.7818608E-02  0.9743859E-01
         -2   -1    0    0    0  501 -0.00000000000E+00  0.00000000000E+00  0.23016810444E+03  0.23016810445E+03  0.25500000000E-02 0.  1.
          2   -1    0    0  501    0  0.00000000000E+00 -0.00000000000E+00 -0.22544261043E+04  0.22544261043E+04  0.25500000000E-02 0. -1.
    8880023    1    1    2    0    0  0.16161102652E+03  0.39565625692E+03 -0.18290837388E+04  0.19904822348E+04  0.65864270000E+03 0.  0.
    8880022    1    1    2    0    0 -0.16161102652E+03 -0.39565625692E+03 -0.19517426107E+03  0.49411197388E+03  0.15294330000E+03 0.  0.
<mgrwt>
<rscale>  0 0.68464446E+03</rscale>
<asrwt>0</asrwt>
<pdfrwt beam="1">  1        2 0.34683477E+00 0.78515744E+03</pdfrwt>
<pdfrwt beam="2">  1       -2 0.35410479E-01 0.78515744E+03</pdfrwt>
<totfact> 0.37192791E+01</totfact>
</mgrwt>
</event>
<event>
 4    1  0.8287789E-007  0.8813779E+03  0.7818608E-02  0.9556613E-01
          2   -1    0    0  501    0  0.00000000000E+00  0.00000000000E+00  0.11037429221E+04  0.11037429221E+04  0.25500000000E-02 0. -1.
         -2   -1    0    0    0  501 -0.00000000000E+00 -0.00000000000E+00 -0.71559487978E+03  0.71559487978E+03  0.25500000000E-02 0.  1.
    8880023    1    1    2    0    0  0.58543675851E+03 -0.16748886173E+02  0.71181556001E+03  0.11329202625E+04  0.65864270000E+03 0. -1.
    8880022    1    1    2    0    0 -0.58543675851E+03  0.16748886173E+02 -0.32366751768E+03  0.68641753941E+03  0.15294330000E+03 0.  0.
<mgrwt>
<rscale>  0 0.80235632E+03</rscale>
<asrwt>0</asrwt>
<pdfrwt beam="1">  1        2 0.16980660E+00 0.88137786E+03</pdfrwt>
<pdfrwt beam="2">  1       -2 0.11009152E+00 0.88137786E+03</pdfrwt>
<totfact> 0.14266947E+01</totfact>
</mgrwt>
</event>
<event>
 4    1  0.8287789E-007  0.7259422E+03  0.7818608E-02  0.9902969E-01
         -2   -1    0    0    0  501 -0.00000000000E+00  0.00000000000E+00  0.20313322525E+03  0.20313322527E+03  0.25500000000E-02 0.  1.
          2   -1    0    0  501    0  0.00000000000E+00 -0.00000000000E+00 -0.16196711394E+04  0.16196711394E+04  0.25500000000E-02 0. -1.
    8880023    1    1    2    0    0  0.10330218800E+03  0.28724657424E+03 -0.12438404713E+04  0.14401844537E+04  0.65864270000E+03 0. -1.
    8880022    1    1    2    0    0 -0.10330218800E+03 -0.28724657424E+03 -0.17269744283E+03  0.38261991092E+03  0.15294330000E+03 0. -1.
<mgrwt>
<rscale>  0 0.60117592E+03</rscale>
<asrwt>0</asrwt>
<pdfrwt beam="1">  1        2 0.24918017E+00 0.72594224E+03</pdfrwt>
<pdfrwt beam="2">  1       -2 0.31251267E-01 0.72594224E+03</pdfrwt>
<totfact> 0.10551029E+02</totfact>
</mgrwt>
</event>
<event>
 4    1  0.8287789E-007  0.6812612E+03  0.7818608E-02  0.1008619E+00
          2   -1    0    0  501    0  0.00000000000E+00  0.00000000000E+00  0.15028053516E+04  0.15028053516E+04  0.25500000000E-02 0. -1.
         -2   -1    0    0    0  501 -0.00000000000E+00 -0.00000000000E+00 -0.27296170401E+03  0.27296170402E+03  0.25500000000E-02 0.  1.
    8880023    1    1    2    0    0 -0.28106508334E+02 -0.17180405325E+03  0.13519042717E+04  0.15138566559E+04  0.65864270000E+03 0. -1.
    8880022    1    1    2    0    0  0.28106508334E+02  0.17180405325E+03 -0.12206062409E+03  0.26191039974E+03  0.15294330000E+03 0.  0.
<mgrwt>
<rscale>  0 0.52027178E+03</rscale>
<asrwt>0</asrwt>
<pdfrwt beam="1">  1        2 0.23120082E+00 0.68126119E+03</pdfrwt>
<pdfrwt beam="2">  1       -2 0.41994109E-01 0.68126119E+03</pdfrwt>
<totfact> 0.69838620E+01</totfact>
</mgrwt>
</event>
<event>
 4    1  0.8287789E-007  0.9758141E+03  0.7818608E-02  0.9413907E-01
          2   -1    0    0  501    0  0.00000000000E+00  0.00000000000E+00  0.91860885725E+03  0.91860885726E+03  0.25500000000E-02 0. -1.
         -2   -1    0    0    0  501 -0.00000000000E+00 -0.00000000000E+00 -0.13612823006E+04  0.13612823006E+04  0.25500000000E-02 0.  1.
    8880023    1    1    2    0    0  0.17900452562E+03 -0.69739539812E+03 -0.96885065561E+03  0.13750944552E+04  0.65864270000E+03 0.  1.
    8880022    1    1    2    0    0 -0.17900452562E+03  0.69739539812E+03  0.52617721225E+03  0.90479670270E+03  0.15294330000E+03 0.  0.
<mgrwt>
<rscale>  0 0.90939938E+03</rscale>
<asrwt>0</asrwt>
<pdfrwt beam="1">  1        2 0.14132444E+00 0.97581411E+03</pdfrwt>
<pdfrwt beam="2">  1       -2 0.20942805E+00 0.97581411E+03</pdfrwt>
<totfact> 0.32754267E+00</totfact>
</mgrwt>
</event>
<event>
 4    1  0.8287789E-007  0.7417408E+03  0.7818608E-02  0.9854905E-01
         -2   -1    0    0    0  501 -0.00000000000E+00  0.00000000000E+00  0.17689746835E+03  0.17689746837E+03  0.25500000000E-02 0.  1.
          2   -1    0    0  501    0  0.00000000000E+00 -0.00000000000E+00 -0.32620189165E+04  0.32620189165E+04  0.25500000000E-02 0. -1.
    8880023    1    1    2    0    0  0.15769641693E+03  0.30249136387E+03 -0.68435937006E+03  0.10092210555E+04  0.65864270000E+03 0.  1.
    8880022    1    1    2    0    0 -0.15769641693E+03 -0.30249136387E+03 -0.24007620781E+04  0.24296953294E+04  0.15294330000E+03 0.  0.
<mgrwt>
<rscale>  0 0.62497451E+03</rscale>
<asrwt>0</asrwt>
<pdfrwt beam="1">  1        2 0.50184902E+00 0.74174078E+03</pdfrwt>
<pdfrwt beam="2">  1       -2 0.27214998E-01 0.74174078E+03</pdfrwt>
<totfact> 0.15517640E+01</totfact>
</mgrwt>
</event>
<event>
 4    1  0.8287789E-007  0.1171420E+04  0.7818608E-02  0.9185417E-01
         -2   -1    0    0    0  501 -0.00000000000E+00  0.00000000000E+00  0.24042299851E+04  0.24042299851E+04  0.25500000000E-02 0.  1.
          2   -1    0    0  501    0  0.00000000000E+00 -0.00000000000E+00 -0.57390722649E+03  0.57390722649E+03  0.25500000000E-02 0. -1.
    8880023    1    1    2    0    0  0.34785581938E+03 -0.90410779473E+03  0.38805852210E+03  0.12340235810E+04  0.65864270000E+03 0.  0.
    8880022    1    1    2    0    0 -0.34785581938E+03  0.90410779473E+03  0.14422642365E+04  0.17441136306E+04  0.15294330000E+03 0.  0.
<mgrwt>
<rscale>  0 0.11205221E+04</rscale>
<asrwt>0</asrwt>
<pdfrwt beam="1">  1        2 0.88293418E-01 0.11714200E+04</pdfrwt>
<pdfrwt beam="2">  1       -2 0.36988154E+00 0.11714200E+04</pdfrwt>
<totfact> 0.60498325E-01</totfact>
</mgrwt>
</event>
<event>
 4    1  0.8287789E-007  0.8318165E+03  0.7818608E-02  0.9645808E-01
         -2   -1    0    0    0  501 -0.00000000000E+00  0.00000000000E+00  0.67579543902E+03  0.67579543902E+03  0.25500000000E-02 0.  1.
          2   -1    0    0  501    0  0.00000000000E+00 -0.00000000000E+00 -0.73648764771E+03  0.73648764772E+03  0.25500000000E-02 0. -1.
    8880023    1    1    2    0    0 -0.29178854894E+03  0.41589410028E+03  0.14288948469E+03  0.84400004209E+03  0.65864270000E+03 0.  0.
    8880022    1    1    2    0    0  0.29178854894E+03 -0.41589410028E+03 -0.20358169339E+03  0.56828304465E+03  0.15294330000E+03 0.  0.
<mgrwt>
<rscale>  0 0.74337074E+03</rscale>
<asrwt>0</asrwt>
<pdfrwt beam="1">  1        2 0.11330579E+00 0.83181649E+03</pdfrwt>
<pdfrwt beam="2">  1       -2 0.10396853E+00 0.83181649E+03</pdfrwt>
<totfact> 0.29097494E+01</totfact>
</mgrwt>
</event>
<event>
 4    1  0.8287789E-007  0.7943882E+03  0.7818608E-02  0.9723064E-01
         -2   -1    0    0    0  501 -0.00000000000E+00  0.00000000000E+00  0.36308346398E+03  0.36308346399E+03  0.25500000000E-02 0.  1.
          2   -1    0    0  501    0  0.00000000000E+00 -0.00000000000E+00 -0.18594955684E+04  0.18594955684E+04  0.25500000000E-02 0. -1.
    8880023    1    1    2    0    0  0.44264728723E+03 -0.36136550579E+02 -0.15580084361E+04  0.17488404628E+04  0.65864270000E+03 0. -1.
    8880022    1    1    2    0    0 -0.44264728723E+03  0.36136550579E+02  0.61596331712E+02  0.47373856954E+03  0.15294330000E+03 0.  0.
<mgrwt>
<rscale>  0 0.69660035E+03</rscale>
<asrwt>0</asrwt>
<pdfrwt beam="1">  1        2 0.28607624E+00 0.79438824E+03</pdfrwt>
<pdfrwt beam="2">  1       -2 0.55858996E-01 0.79438824E+03</pdfrwt>
<totfact> 0.24665935E+01</totfact>
</mgrwt>
</event>
<event>
 4    1  0.8287789E-007  0.6889914E+03  0.7818608E-02  0.1004636E+00
          2   -1    0    0  501    0  0.00000000000E+00  0.00000000000E+00  0.19309976361E+04  0.19309976361E+04  0.25500000000E-02 0. -1.
         -2   -1    0    0    0  501 -0.00000000000E+00 -0.00000000000E+00 -0.66161652623E+03  0.66161652624E+03  0.25500000000E-02 0.  1.
    8880023    1    1    2    0    0  0.68397086782E+02  0.19031773320E+03  0.18418535275E+04  0.19665028919E+04  0.65864270000E+03 0. -1.
    8880022    1    1    2    0    0 -0.68397086782E+02 -0.19031773320E+03 -0.57247241758E+03  0.62611127043E+03  0.15294330000E+03 0.  0.
<mgrwt>
<rscale>  0 0.53663482E+03</rscale>
<asrwt>0</asrwt>
<pdfrwt beam="1">  1        2 0.29707656E+00 0.68899144E+03</pdfrwt>
<pdfrwt beam="2">  1       -2 0.10178716E+00 0.68899144E+03</pdfrwt>
<totfact> 0.60385773E+00</totfact>
</mgrwt>
</event>
<event>
 4    1  0.8287789E-007  0.8649255E+03  0.7818608E-02  0.9584861E-01
         -2   -1    0    0    0  501 -0.00000000000E+00  0.00000000000E+00  0.60408795715E+03  0.60408795716E+03  0.25500000000E-02 0.  1.
          2   -1    0    0  501    0  0.00000000000E+00 -0.00000000000E+00 -0.13696458955E+04  0.13696458955E+04  0.25500000000E-02 0. -1.
    8880023    1    1    2    0    0 -0.48957835709E+03 -0.27312797340E+03 -0.10217359280E+04  0.13386711211E+04  0.65864270000E+03 0.  0.
    8880022    1    1    2    0    0  0.48957835709E+03  0.27312797340E+03  0.25617798968E+03  0.63506273154E+03  0.15294330000E+03 0.  0.
<mgrwt>
<rscale>  0 0.78306314E+03</rscale>
<asrwt>0</asrwt>
<pdfrwt beam="1">  1        2 0.21071475E+00 0.86492547E+03</pdfrwt>
<pdfrwt beam="2">  1       -2 0.92936609E-01 0.86492547E+03</pdfrwt>
<totfact> 0.14904855E+01</totfact>
</mgrwt>
</event>
<event>
 4    1  0.8287789E-007  0.6676134E+03  0.7818608E-02  0.1017435E+00
         -2   -1    0    0    0  501 -0.00000000000E+00  0.00000000000E+00  0.12960700362E+03  0.12960700364E+03  0.25500000000E-02 0.  1.
          2   -1    0    0  501    0  0.00000000000E+00 -0.00000000000E+00 -0.17970519754E+04  0.17970519754E+04  0.25500000000E-02 0. -1.
    8880023    1    1    2    0    0  0.61902669314E+02 -0.89807983253E+02 -0.15881267792E+04  0.17227461471E+04  0.65864270000E+03 0. -1.
    8880022    1    1    2    0    0 -0.61902669314E+02  0.89807983253E+02 -0.79318192531E+02  0.20391283188E+03  0.15294330000E+03 0.  0.
<mgrwt>
<rscale>  0 0.48623789E+03</rscale>
<asrwt>0</asrwt>
<pdfrwt beam="1">  1        2 0.27646952E+00 0.66761338E+03</pdfrwt>
<pdfrwt beam="2">  1       -2 0.19939540E-01 0.66761338E+03</pdfrwt>
<totfact> 0.19091783E+02</totfact>
</mgrwt>
</event>
<event>
 4    1  0.8287789E-007  0.9643446E+03  0.7818608E-02  0.9429769E-01
          2   -1    0    0  501    0  0.00000000000E+00  0.00000000000E+00  0.48791844439E+04  0.48791844439E+04  0.25500000000E-02 0. -1.
         -2   -1    0    0    0  501 -0.00000000000E+00 -0.00000000000E+00 -0.84258773553E+03  0.84258773554E+03  0.25500000000E-02 0.  1.
    8880023    1    1    2    0    0  0.70138407004E+03  0.64889788403E+02  0.46661491504E+04  0.47647569086E+04  0.65864270000E+03 0. -1.
    8880022    1    1    2    0    0 -0.70138407004E+03 -0.64889788403E+02 -0.62955244200E+03  0.95701527083E+03  0.15294330000E+03 0.  0.
<mgrwt>
<rscale>  0 0.89665787E+03</rscale>
<asrwt>0</asrwt>
<pdfrwt beam="1">  1        2 0.75064376E+00 0.96434460E+03</pdfrwt>
<pdfrwt beam="2">  1       -2 0.12962888E+00 0.96434460E+03</pdfrwt>
<totfact> 0.23236051E-02</totfact>
</mgrwt>
</event>
<event>
 4    1  0.8287789E-007  0.6612614E+03  0.7818608E-02  0.1022900E+00
         -2   -1    0    0    0  501 -0.00000000000E+00  0.00000000000E+00  0.71110825472E+03  0.71110825472E+03  0.25500000000E-02 0.  1.
          2   -1    0    0  501    0  0.00000000000E+00 -0.00000000000E+00 -0.49064249428E+03  0.49064249428E+03  0.25500000000E-02 0. -1.
    8880023    1    1    2    0    0 -0.24788686945E+02  0.53309821754E+02 -0.24739697435E+03  0.70602541405E+03  0.65864270000E+03 0. -1.
    8880022    1    1    2    0    0  0.24788686945E+02 -0.53309821754E+02  0.46786273479E+03  0.49572533496E+03  0.15294330000E+03 0.  0.
<mgrwt>
<rscale>  0 0.46654550E+03</rscale>
<asrwt>0</asrwt>
<pdfrwt beam="1">  1        2 0.75483461E-01 0.66126139E+03</pdfrwt>
<pdfrwt beam="2">  1       -2 0.10940127E+00 0.66126139E+03</pdfrwt>
<totfact> 0.42684802E+01</totfact>
</mgrwt>
</event>
<event>
 4    1  0.8287789E-007  0.1311478E+04  0.7818608E-02  0.9055711E-01
          2   -1    0    0  501    0  0.00000000000E+00  0.00000000000E+00  0.27351571462E+04  0.27351571462E+04  0.25500000000E-02 0. -1.
         -2   -1    0    0    0  501 -0.00000000000E+00 -0.00000000000E+00 -0.60919624194E+03  0.60919624194E+03  0.25500000000E-02 0.  1.
    8880023    1    1    2    0    0 -0.77157582855E+03  0.83116539694E+03  0.61384224104E+03  0.14480254416E+04  0.65864270000E+03 0.  0.
    8880022    1    1    2    0    0  0.77157582855E+03 -0.83116539694E+03  0.15121186632E+04  0.18963279465E+04  0.15294330000E+03 0.  0.
<mgrwt>
<rscale>  0 0.12675391E+04</rscale>
<asrwt>0</asrwt>
<pdfrwt beam="1">  1        2 0.42079340E+00 0.13114783E+04</pdfrwt>
<pdfrwt beam="2">  1       -2 0.93722500E-01 0.13114783E+04</pdfrwt>
<totfact> 0.23721985E+00</totfact>
</mgrwt>
</event>
<event>
 4    1  0.8287789E-007  0.1204329E+04  0.7818608E-02  0.9152926E-01
         -2   -1    0    0    0  501 -0.00000000000E+00  0.00000000000E+00  0.16262681422E+04  0.16262681422E+04  0.25500000000E-02 0.  1.
          2   -1    0    0  501    0  0.00000000000E+00 -0.00000000000E+00 -0.38818887263E+04  0.38818887263E+04  0.25500000000E-02 0. -1.
    8880023    1    1    2    0    0  0.25790324010E+03  0.97472247161E+03 -0.36141087539E+04  0.38094868775E+04  0.65864270000E+03 0.  0.
    8880022    1    1    2    0    0 -0.25790324010E+03 -0.97472247161E+03  0.13584881699E+04  0.16986699911E+04  0.15294330000E+03 0.  1.
<mgrwt>
<rscale>  0 0.11552806E+04</rscale>
<asrwt>0</asrwt>
<pdfrwt beam="1">  1        2 0.59721365E+00 0.12043289E+04</pdfrwt>
<pdfrwt beam="2">  1       -2 0.25019510E+00 0.12043289E+04</pdfrwt>
<totfact> 0.27304068E-02</totfact>
</mgrwt>
</event>
<event>
 4    1  0.8287789E-007  0.1362752E+04  0.7818608E-02  0.9013179E-01
         -2   -1    0    0    0  501 -0.00000000000E+00  0.00000000000E+00  0.16041023338E+04  0.16041023338E+04  0.25500000000E-02 0.  1.
          2   -1    0    0  501    0  0.00000000000E+00 -0.00000000000E+00 -0.13758268142E+04  0.13758268142E+04  0.25500000000E-02 0. -1.
    8880023    1    1    2    0    0  0.79292036411E+03  0.89138119027E+03 -0.63099430479E+03  0.15017480312E+04  0.65864270000E+03 0. -1.
    8880022    1    1    2    0    0 -0.79292036411E+03 -0.89138119027E+03  0.85926982431E+03  0.14781811168E+04  0.15294330000E+03 0.  0.
<mgrwt>
<rscale>  0 0.13208668E+04</rscale>
<asrwt>0</asrwt>
<pdfrwt beam="1">  1        2 0.21166566E+00 0.13627521E+04</pdfrwt>
<pdfrwt beam="2">  1       -2 0.24678497E+00 0.13627521E+04</pdfrwt>
<totfact> 0.95924183E-01</totfact>
</mgrwt>
</event>
<event>
 4    1  0.8287789E-007  0.7011730E+03  0.7818608E-02  0.9992370E-01
          2   -1    0    0  501    0  0.00000000000E+00  0.00000000000E+00  0.33463120769E+04  0.33463120769E+04  0.25500000000E-02 0. -1.
         -2   -1    0    0    0  501 -0.00000000000E+00 -0.00000000000E+00 -0.92934742301E+02  0.92934742336E+02  0.25500000000E-02 0.  1.
    8880023    1    1    2    0    0  0.21692221124E+03 -0.10381740702E+03  0.29086171995E+04  0.29919387560E+04  0.65864270000E+03 0. -1.
    8880022    1    1    2    0    0 -0.21692221124E+03  0.10381740702E+03  0.34476013507E+03  0.44730806328E+03  0.15294330000E+03 0.  0.
<mgrwt>
<rscale>  0 0.55986078E+03</rscale>
<asrwt>0</asrwt>
<pdfrwt beam="1">  1        2 0.51481723E+00 0.70117295E+03</pdfrwt>
<pdfrwt beam="2">  1       -2 0.14297653E-01 0.70117295E+03</pdfrwt>
<totfact> 0.42444494E+01</totfact>
</mgrwt>
</event>
<event>
 4    1  0.8287789E-007  0.6685546E+03  0.7818608E-02  0.1016721E+00
         -2   -1    0    0    0  501 -0.00000000000E+00  0.00000000000E+00  0.22063946170E+03  0.22063946172E+03  0.25500000000E-02 0.  1.
          2   -1    0    0  501    0  0.00000000000E+00 -0.00000000000E+00 -0.22831791074E+04  0.22831791074E+04  0.25500000000E-02 0. -1.
    8880023    1    1    2    0    0 -0.11059841200E+03 -0.30381477344E+02 -0.21794813283E+04  0.22797157958E+04  0.65864270000E+03 0. -1.
    8880022    1    1    2    0    0  0.11059841200E+03  0.30381477344E+02  0.11694168255E+03  0.22410277338E+03  0.15294330000E+03 0.  0.
<mgrwt>
<rscale>  0 0.48888721E+03</rscale>
<asrwt>0</asrwt>
<pdfrwt beam="1">  1        2 0.35125831E+00 0.66855460E+03</pdfrwt>
<pdfrwt beam="2">  1       -2 0.33944534E-01 0.66855460E+03</pdfrwt>
<totfact> 0.39482662E+01</totfact>
</mgrwt>
</event>
<event>
 4    1  0.8636056E-007  0.6969205E+03  0.7818608E-02  0.1001022E+00
          2   -1    0    0  501    0  0.00000000000E+00  0.00000000000E+00  0.18477236815E+04  0.18477236815E+04  0.25500000000E-02 0. -1.
         -2   -1    0    0    0  501 -0.00000000000E+00 -0.00000000000E+00 -0.58529256988E+03  0.58529256989E+03  0.25500000000E-02 0.  1.
    8880023    1    1    2    0    0  0.11615090631E+03 -0.19595152603E+03  0.17443767970E+04  0.18784431452E+04  0.65864270000E+03 0. -1.
    8880022    1    1    2    0    0 -0.11615090631E+03  0.19595152603E+03 -0.48194568531E+03  0.55457310626E+03  0.15294330000E+03 0.  0.
<mgrwt>
<rscale>  0 0.55204207E+03</rscale>
<asrwt>0</asrwt>
<pdfrwt beam="1">  1        2 0.28426518E+00 0.69692054E+03</pdfrwt>
<pdfrwt beam="2">  1       -2 0.90045012E-01 0.69692054E+03</pdfrwt>
<totfact> 0.89163474E+00</totfact>
</mgrwt>
</event>
<event>
 4    1  0.8287789E-007  0.6825124E+03  0.7818608E-02  0.1007937E+00
         -2   -1    0    0    0  501 -0.00000000000E+00  0.00000000000E+00  0.25920801878E+03  0.25920801879E+03  0.25500000000E-02 0.  1.
          2   -1    0    0  501    0  0.00000000000E+00 -0.00000000000E+00 -0.18543383645E+04  0.18543383645E+04  0.25500000000E-02 0. -1.
    8880023    1    1    2    0    0  0.85775357085E+02  0.15702081323E+03 -0.17175819394E+04  0.18482182967E+04  0.65864270000E+03 0. -1.
    8880022    1    1    2    0    0 -0.85775357085E+02 -0.15702081323E+03  0.12245159371E+03  0.26532808651E+03  0.15294330000E+03 0.  0.
<mgrwt>
<rscale>  0 0.52302943E+03</rscale>
<asrwt>0</asrwt>
<pdfrwt beam="1">  1        2 0.28528282E+00 0.68251238E+03</pdfrwt>
<pdfrwt beam="2">  1       -2 0.39878158E-01 0.68251238E+03</pdfrwt>
<totfact> 0.49612385E+01</totfact>
</mgrwt>
</event>
<event>
 4    1  0.8287789E-007  0.9526598E+03  0.7818608E-02  0.9446298E-01
         -2   -1    0    0    0  501 -0.00000000000E+00  0.00000000000E+00  0.60265827861E+03  0.60265827862E+03  0.25500000000E-02 0.  1.
          2   -1    0    0  501    0  0.00000000000E+00 -0.00000000000E+00 -0.15800409246E+04  0.15800409246E+04  0.25500000000E-02 0. -1.
    8880023    1    1    2    0    0  0.56715450054E+03 -0.38998232454E+03 -0.11126376777E+04  0.14647604750E+04  0.65864270000E+03 0.  0.
    8880022    1    1    2    0    0 -0.56715450054E+03  0.38998232454E+03  0.13525503169E+03  0.71793872827E+03  0.15294330000E+03 0.  0.
<mgrwt>
<rscale>  0 0.88361573E+03</rscale>
<asrwt>0</asrwt>
<pdfrwt beam="1">  1        2 0.24308322E+00 0.95265978E+03</pdfrwt>
<pdfrwt beam="2">  1       -2 0.92716659E-01 0.95265978E+03</pdfrwt>
<totfact> 0.11304832E+01</totfact>
</mgrwt>
</event>
<event>
 4    1  0.8287789E-007  0.8783873E+03  0.7818608E-02  0.9561658E-01
          2   -1    0    0  501    0  0.00000000000E+00  0.00000000000E+00  0.43293009994E+04  0.43293009994E+04  0.25500000000E-02 0. -1.
         -2   -1    0    0    0  501 -0.00000000000E+00 -0.00000000000E+00 -0.27765983174E+03  0.27765983175E+03  0.25500000000E-02 0.  1.
    8880023    1    1    2    0    0 -0.31483611367E+03 -0.48849998961E+03  0.38853776926E+04  0.39834311891E+04  0.65864270000E+03 0. -1.
    8880022    1    1    2    0    0  0.31483611367E+03  0.48849998961E+03  0.16626347510E+03  0.62352964203E+03  0.15294330000E+03 0.  0.
<mgrwt>
<rscale>  0 0.79886765E+03</rscale>
<asrwt>0</asrwt>
<pdfrwt beam="1">  1        2 0.66604631E+00 0.87838729E+03</pdfrwt>
<pdfrwt beam="2">  1       -2 0.42716897E-01 0.87838729E+03</pdfrwt>
<totfact> 0.10151955E+00</totfact>
</mgrwt>
</event>
<event>
 4    1  0.8287789E-007  0.7060308E+03  0.7818608E-02  0.9973047E-01
         -2   -1    0    0    0  501 -0.00000000000E+00  0.00000000000E+00  0.44593282567E+03  0.44593282567E+03  0.25500000000E-02 0.  1.
          2   -1    0    0  501    0  0.00000000000E+00 -0.00000000000E+00 -0.14188232973E+04  0.14188232973E+04  0.25500000000E-02 0. -1.
    8880023    1    1    2    0    0  0.16960293706E+03  0.18948375071E+03 -0.12647876382E+04  0.14485051688E+04  0.65864270000E+03 0. -1.
    8880022    1    1    2    0    0 -0.16960293706E+03 -0.18948375071E+03  0.29189716652E+03  0.41625095421E+03  0.15294330000E+03 0.  0.
<mgrwt>
<rscale>  0 0.56848056E+03</rscale>
<asrwt>0</asrwt>
<pdfrwt beam="1">  1        2 0.21828051E+00 0.70603077E+03</pdfrwt>
<pdfrwt beam="2">  1       -2 0.68605051E-01 0.70603077E+03</pdfrwt>
<totfact> 0.28167841E+01</totfact>
</mgrwt>
</event>
<event>
 4    1  0.8287789E-007  0.7263158E+03  0.7818608E-02  0.9901767E-01
         -2   -1    0    0    0  501 -0.00000000000E+00  0.00000000000E+00  0.60792699610E+03  0.60792699611E+03  0.25500000000E-02 0.  1.
          2   -1    0    0  501    0  0.00000000000E+00 -0.00000000000E+00 -0.47643190226E+03  0.47643190227E+03  0.25500000000E-02 0. -1.
    8880023    1    1    2    0    0  0.85026105121E+01  0.30602647638E+03  0.28103749659E+02  0.72685935754E+03  0.65864270000E+03 0. -1.
    8880022    1    1    2    0    0 -0.85026105121E+01 -0.30602647638E+03  0.10339134419E+03  0.35749954084E+03  0.15294330000E+03 0.  1.
<mgrwt>
<rscale>  0 0.60175712E+03</rscale>
<asrwt>0</asrwt>
<pdfrwt beam="1">  1        2 0.73297215E-01 0.72631584E+03</pdfrwt>
<pdfrwt beam="2">  1       -2 0.93527231E-01 0.72631584E+03</pdfrwt>
<totfact> 0.63764645E+01</totfact>
</mgrwt>
</event>
<event>
 4    1  0.8287789E-007  0.6901692E+03  0.7818608E-02  0.1004072E+00
         -2   -1    0    0    0  501 -0.00000000000E+00  0.00000000000E+00  0.38863638962E+03  0.38863638963E+03  0.25500000000E-02 0.  1.
          2   -1    0    0  501    0  0.00000000000E+00 -0.00000000000E+00 -0.12759941353E+04  0.12759941353E+04  0.25500000000E-02 0. -1.
    8880023    1    1    2    0    0 -0.57505232397E+02 -0.19803150265E+03 -0.11217010180E+04  0.13170219087E+04  0.65864270000E+03 0.  0.
    8880022    1    1    2    0    0  0.57505232397E+02  0.19803150265E+03  0.23434327235E+03  0.34760861627E+03  0.15294330000E+03 0.  1.
<mgrwt>
<rscale>  0 0.53900116E+03</rscale>
<asrwt>0</asrwt>
<pdfrwt beam="1">  1        2 0.19630679E+00 0.69016921E+03</pdfrwt>
<pdfrwt beam="2">  1       -2 0.59790214E-01 0.69016921E+03</pdfrwt>
<totfact> 0.45676298E+01</totfact>
</mgrwt>
</event>
<event>
 4    1  0.8287789E-007  0.1047910E+04  0.7818608E-02  0.9321398E-01
          2   -1    0    0  501    0  0.00000000000E+00  0.00000000000E+00  0.13978286728E+04  0.13978286728E+04  0.25500000000E-02 0. -1.
         -2   -1    0    0    0  501 -0.00000000000E+00 -0.00000000000E+00 -0.11913345798E+04  0.11913345798E+04  0.25500000000E-02 0.  1.
    8880023    1    1    2    0    0 -0.51382656783E+03  0.63268215143E+03 -0.77565010492E+03  0.13037437394E+04  0.65864270000E+03 0.  0.
    8880022    1    1    2    0    0  0.51382656783E+03 -0.63268215143E+03  0.98214419787E+03  0.12854195132E+04  0.15294330000E+03 0.  0.
<mgrwt>
<rscale>  0 0.98836522E+03</rscale>
<asrwt>0</asrwt>
<pdfrwt beam="1">  1        2 0.21505056E+00 0.10479097E+04</pdfrwt>
<pdfrwt beam="2">  1       -2 0.18328224E+00 0.10479097E+04</pdfrwt>
<totfact> 0.24645453E+00</totfact>
</mgrwt>
</event>
<event>
 4    1  0.8287789E-007  0.1058453E+04  0.7818608E-02  0.9308788E-01
          2   -1    0    0  501    0  0.00000000000E+00  0.00000000000E+00  0.60083071664E+03  0.60083071665E+03  0.25500000000E-02 0. -1.
         -2   -1    0    0    0  501 -0.00000000000E+00 -0.00000000000E+00 -0.20277704695E+04  0.20277704695E+04  0.25500000000E-02 0.  1.
    8880023    1    1    2    0    0  0.66950456867E+03  0.48813477745E+03 -0.10858962704E+03  0.10640083843E+04  0.65864270000E+03 0.  0.
    8880022    1    1    2    0    0 -0.66950456867E+03 -0.48813477745E+03 -0.13183501258E+04  0.15645928019E+04  0.15294330000E+03 0.  0.
<mgrwt>
<rscale>  0 0.99977786E+03</rscale>
<asrwt>0</asrwt>
<pdfrwt beam="1">  1        2 0.92435496E-01 0.10584527E+04</pdfrwt>
<pdfrwt beam="2">  1       -2 0.31196468E+00 0.10584527E+04</pdfrwt>
<totfact> 0.13297192E+00</totfact>
</mgrwt>
</event>
<event>
 4    1  0.8287789E-007  0.7063792E+03  0.7818608E-02  0.9971701E-01
          2   -1    0    0  501    0  0.00000000000E+00  0.00000000000E+00  0.95204276198E+03  0.95204276198E+03  0.25500000000E-02 0. -1.
         -2   -1    0    0    0  501 -0.00000000000E+00 -0.00000000000E+00 -0.33836457238E+03  0.33836457239E+03  0.25500000000E-02 0.  1.
    8880023    1    1    2    0    0 -0.24720192118E+03  0.63659461421E+02  0.68546383137E+03  0.98429273452E+03  0.65864270000E+03 0.  0.
    8880022    1    1    2    0    0  0.24720192118E+03 -0.63659461421E+02 -0.71785641766E+02  0.30611459985E+03  0.15294330000E+03 0.  0.
<mgrwt>
<rscale>  0 0.56908718E+03</rscale>
<asrwt>0</asrwt>
<pdfrwt beam="1">  1        2 0.14646812E+00 0.70637916E+03</pdfrwt>
<pdfrwt beam="2">  1       -2 0.52056088E-01 0.70637916E+03</pdfrwt>
<totfact> 0.95870862E+01</totfact>
</mgrwt>
</event>
<event>
 4    1  0.8617932E-007  0.8069228E+03  0.7818608E-02  0.9696023E-01
         -2   -1    0    0    0  501 -0.00000000000E+00  0.00000000000E+00  0.37360530460E+04  0.37360530460E+04  0.25500000000E-02 0.  1.
          2   -1    0    0  501    0  0.00000000000E+00 -0.00000000000E+00 -0.11101929751E+04  0.11101929751E+04  0.25500000000E-02 0. -1.
    8880023    1    1    2    0    0  0.29392922716E+03 -0.36182850358E+03 -0.94454384453E+03  0.12422912449E+04  0.65864270000E+03 0. -1.
    8880022    1    1    2    0    0 -0.29392922716E+03  0.36182850358E+03  0.35704039155E+04  0.36039547763E+04  0.15294330000E+03 0.  0.
<mgrwt>
<rscale>  0 0.71254098E+03</rscale>
<asrwt>0</asrwt>
<pdfrwt beam="1">  1        2 0.17079892E+00 0.80692284E+03</pdfrwt>
<pdfrwt beam="2">  1       -2 0.57477739E+00 0.80692284E+03</pdfrwt>
<totfact> 0.14217976E-02</totfact>
</mgrwt>
</event>
<event>
 4    1  0.8287789E-007  0.7002766E+03  0.7818608E-02  0.9996056E-01
         -2   -1    0    0    0  501 -0.00000000000E+00  0.00000000000E+00  0.29868310974E+03  0.29868310975E+03  0.25500000000E-02 0.  1.
          2   -1    0    0  501    0  0.00000000000E+00 -0.00000000000E+00 -0.16919208725E+04  0.16919208725E+04  0.25500000000E-02 0. -1.
    8880023    1    1    2    0    0  0.18849391034E+03 -0.14507646411E+03 -0.15253968482E+04  0.16784584849E+04  0.65864270000E+03 0. -1.
    8880022    1    1    2    0    0 -0.18849391034E+03  0.14507646411E+03  0.13215908542E+03  0.31214549740E+03  0.15294330000E+03 0.  0.
<mgrwt>
<rscale>  0 0.55823528E+03</rscale>
<asrwt>0</asrwt>
<pdfrwt beam="1">  1        2 0.26029551E+00 0.70027662E+03</pdfrwt>
<pdfrwt beam="2">  1       -2 0.45951249E-01 0.70027662E+03</pdfrwt>
<totfact> 0.45877752E+01</totfact>
</mgrwt>
</event>
<event>
 4    1  0.8287789E-007  0.6879968E+03  0.7818608E-02  0.1005120E+00
         -2   -1    0    0    0  501 -0.00000000000E+00  0.00000000000E+00  0.47390616936E+03  0.47390616936E+03  0.25500000000E-02 0.  1.
          2   -1    0    0  501    0  0.00000000000E+00 -0.00000000000E+00 -0.97703092815E+03  0.97703092816E+03  0.25500000000E-02 0. -1.
    8880023    1    1    2    0    0 -0.14022824439E+03 -0.14094466639E+03 -0.80467330046E+03  0.10586966923E+04  0.65864270000E+03 0. -1.
    8880022    1    1    2    0    0  0.14022824439E+03  0.14094466639E+03  0.30154854167E+03  0.39224040524E+03  0.15294330000E+03 0.  0.
<mgrwt>
<rscale>  0 0.53461269E+03</rscale>
<asrwt>0</asrwt>
<pdfrwt beam="1">  1        2 0.15031245E+00 0.68799678E+03</pdfrwt>
<pdfrwt beam="2">  1       -2 0.72908642E-01 0.68799678E+03</pdfrwt>
<totfact> 0.45248967E+01</totfact>
</mgrwt>
</event>
<event>
 4    1  0.8287789E-007  0.8697621E+03  0.7818608E-02  0.9576429E-01
          2   -1    0    0  501    0  0.00000000000E+00  0.00000000000E+00  0.18205689400E+04  0.18205689400E+04  0.25500000000E-02 0. -1.
         -2   -1    0    0    0  501 -0.00000000000E+00 -0.00000000000E+00 -0.56166632104E+03  0.56166632104E+03  0.25500000000E-02 0.  1.
    8880023    1    1    2    0    0  0.35080389268E+03 -0.44678016800E+03  0.15100254748E+04  0.17426023730E+04  0.65864270000E+03 0.  0.
    8880022    1    1    2    0    0 -0.35080389268E+03  0.44678016800E+03 -0.25112285588E+03  0.63963288799E+03  0.15294330000E+03 0.  0.
<mgrwt>
<rscale>  0 0.78876107E+03</rscale>
<asrwt>0</asrwt>
<pdfrwt beam="1">  1        2 0.28008753E+00 0.86976209E+03</pdfrwt>
<pdfrwt beam="2">  1       -2 0.86410204E-01 0.86976209E+03</pdfrwt>
<totfact> 0.98963898E+00</totfact>
</mgrwt>
</event>
<event>
 4    1  0.8287789E-007  0.1136108E+04  0.7818608E-02  0.9221880E-01
          2   -1    0    0  501    0  0.00000000000E+00  0.00000000000E+00  0.19443394179E+04  0.19443394179E+04  0.25500000000E-02 0. -1.
         -2   -1    0    0    0  501 -0.00000000000E+00 -0.00000000000E+00 -0.64006082958E+03  0.64006082958E+03  0.25500000000E-02 0.  1.
    8880023    1    1    2    0    0 -0.92199514937E+03 -0.82808535503E+02  0.11798631001E+04  0.16379314547E+04  0.65864270000E+03 0.  0.
    8880022    1    1    2    0    0  0.92199514937E+03  0.82808535503E+02  0.12441548824E+03  0.94646879280E+03  0.15294330000E+03 0.  0.
<mgrwt>
<rscale>  0 0.10830417E+04</rscale>
<asrwt>0</asrwt>
<pdfrwt beam="1">  1        2 0.29912914E+00 0.11361085E+04</pdfrwt>
<pdfrwt beam="2">  1       -2 0.98470897E-01 0.11361085E+04</pdfrwt>
<totfact> 0.60547983E+00</totfact>
</mgrwt>
</event>
<event>
 4    1  0.8287789E-007  0.7534579E+03  0.7818608E-02  0.9822348E-01
         -2   -1    0    0    0  501 -0.00000000000E+00  0.00000000000E+00  0.43049095802E+03  0.43049095803E+03  0.25500000000E-02 0.  1.
          2   -1    0    0  501    0  0.00000000000E+00 -0.00000000000E+00 -0.30576496566E+04  0.30576496566E+04  0.25500000000E-02 0. -1.
    8880023    1    1    2    0    0  0.19439452234E+03  0.30999908273E+03 -0.29068099861E+04  0.30028724854E+04  0.65864270000E+03 0. -1.
    8880022    1    1    2    0    0 -0.19439452234E+03 -0.30999908273E+03  0.27965128757E+03  0.48526812925E+03  0.15294330000E+03 0.  0.
<mgrwt>
<rscale>  0 0.64176874E+03</rscale>
<asrwt>0</asrwt>
<pdfrwt beam="1">  1        2 0.47040763E+00 0.75345794E+03</pdfrwt>
<pdfrwt beam="2">  1       -2 0.66229380E-01 0.75345794E+03</pdfrwt>
<totfact> 0.35860553E+00</totfact>
</mgrwt>
</event>
<event>
 4    1  0.8287789E-007  0.8387003E+03  0.7818608E-02  0.9632636E-01
         -2   -1    0    0    0  501 -0.00000000000E+00  0.00000000000E+00  0.37860821509E+03  0.37860821510E+03  0.25500000000E-02 0.  1.
          2   -1    0    0  501    0  0.00000000000E+00 -0.00000000000E+00 -0.27458393725E+04  0.27458393725E+04  0.25500000000E-02 0. -1.
    8880023    1    1    2    0    0  0.50430169093E+02  0.51678315217E+03 -0.16257289220E+03  0.85431152389E+03  0.65864270000E+03 0.  0.
    8880022    1    1    2    0    0 -0.50430169093E+02 -0.51678315217E+03 -0.22046582653E+04  0.22701360637E+04  0.15294330000E+03 0.  0.
<mgrwt>
<rscale>  0 0.75173280E+03</rscale>
<asrwt>0</asrwt>
<pdfrwt beam="1">  1        2 0.42243681E+00 0.83870032E+03</pdfrwt>
<pdfrwt beam="2">  1       -2 0.58247420E-01 0.83870032E+03</pdfrwt>
<totfact> 0.71552397E+00</totfact>
</mgrwt>
</event>
<event>
 4    1  0.8287789E-007  0.6646727E+03  0.7818608E-02  0.1019810E+00
         -2   -1    0    0    0  501 -0.00000000000E+00  0.00000000000E+00  0.37794845391E+03  0.37794845392E+03  0.25500000000E-02 0.  1.
          2   -1    0    0  501    0  0.00000000000E+00 -0.00000000000E+00 -0.94880314449E+03  0.94880314449E+03  0.25500000000E-02 0. -1.
    8880023    1    1    2    0    0  0.88984134135E+02  0.78351378560E+01 -0.79810234016E+03  0.10386323301E+04  0.65864270000E+03 0. -1.
    8880022    1    1    2    0    0 -0.88984134135E+02 -0.78351378560E+01  0.22724764958E+03  0.28811926830E+03  0.15294330000E+03 0.  0.
<mgrwt>
<rscale>  0 0.47755379E+03</rscale>
<asrwt>0</asrwt>
<pdfrwt beam="1">  1        2 0.14596971E+00 0.66467268E+03</pdfrwt>
<pdfrwt beam="2">  1       -2 0.58145916E-01 0.66467268E+03</pdfrwt>
<totfact> 0.76859492E+01</totfact>
</mgrwt>
</event>
<event>
 4    1  0.8287789E-007  0.1086191E+04  0.7818608E-02  0.9276589E-01
         -2   -1    0    0    0  501 -0.00000000000E+00  0.00000000000E+00  0.98862613457E+03  0.98862613457E+03  0.25500000000E-02 0.  1.
          2   -1    0    0  501    0  0.00000000000E+00 -0.00000000000E+00 -0.12042838812E+04  0.12042838812E+04  0.25500000000E-02 0. -1.
    8880023    1    1    2    0    0 -0.85566586686E+03 -0.11762495757E+03 -0.59359188673E+03  0.12378050091E+04  0.65864270000E+03 0.  0.
    8880022    1    1    2    0    0  0.85566586686E+03  0.11762495757E+03  0.37793414015E+03  0.95510500661E+03  0.15294330000E+03 0.  0.
<mgrwt>
<rscale>  0 0.10296697E+04</rscale>
<asrwt>0</asrwt>
<pdfrwt beam="1">  1        2 0.18527444E+00 0.10861906E+04</pdfrwt>
<pdfrwt beam="2">  1       -2 0.15209633E+00 0.10861906E+04</pdfrwt>
<totfact> 0.53441841E+00</totfact>
</mgrwt>
</event>
<event>
 4    1  0.8287789E-007  0.9471697E+03  0.7818608E-02  0.9454198E-01
         -2   -1    0    0    0  501 -0.00000000000E+00  0.00000000000E+00  0.10858452001E+04  0.10858452002E+04  0.25500000000E-02 0.  1.
          2   -1    0    0  501    0  0.00000000000E+00 -0.00000000000E+00 -0.90749243116E+03  0.90749243116E+03  0.25500000000E-02 0. -1.
    8880023    1    1    2    0    0 -0.10763093378E+03 -0.67211292485E+03 -0.45526506691E+03  0.10509027972E+04  0.65864270000E+03 0.  0.
    8880022    1    1    2    0    0  0.10763093378E+03  0.67211292485E+03  0.63361783590E+03  0.94243483416E+03  0.15294330000E+03 0.  0.
<mgrwt>
<rscale>  0 0.87746506E+03</rscale>
<asrwt>0</asrwt>
<pdfrwt beam="1">  1        2 0.13961422E+00 0.94716968E+03</pdfrwt>
<pdfrwt beam="2">  1       -2 0.16705311E+00 0.94716968E+03</pdfrwt>
<totfact> 0.64615306E+00</totfact>
</mgrwt>
</event>
<event>
 4    1  0.8287789E-007  0.7263451E+03  0.7818608E-02  0.9901673E-01
         -2   -1    0    0    0  501 -0.00000000000E+00  0.00000000000E+00  0.33569503694E+04  0.33569503694E+04  0.25500000000E-02 0.  1.
          2   -1    0    0  501    0  0.00000000000E+00 -0.00000000000E+00 -0.37359669039E+03  0.37359669040E+03  0.25500000000E-02 0. -1.
    8880023    1    1    2    0    0  0.46994938709E+02 -0.30258625177E+03 -0.12843419788E+01  0.72634621209E+03  0.65864270000E+03 0. -1.
    8880022    1    1    2    0    0 -0.46994938709E+02  0.30258625177E+03  0.29846380209E+04  0.30042008477E+04  0.15294330000E+03 0.  0.
<mgrwt>
<rscale>  0 0.60180256E+03</rscale>
<asrwt>0</asrwt>
<pdfrwt beam="1">  1        2 0.57476414E-01 0.72634508E+03</pdfrwt>
<pdfrwt beam="2">  1       -2 0.51645390E+00 0.72634508E+03</pdfrwt>
<totfact> 0.11887065E-01</totfact>
</mgrwt>
</event>
<event>
 4    1  0.8287789E-007  0.6998821E+03  0.7818608E-02  0.9997691E-01
         -2   -1    0    0    0  501 -0.00000000000E+00  0.00000000000E+00  0.65084852856E+03  0.65084852856E+03  0.25500000000E-02 0.  1.
          2   -1    0    0  501    0  0.00000000000E+00 -0.00000000000E+00 -0.45454069764E+03  0.45454069765E+03  0.25500000000E-02 0. -1.
    8880023    1    1    2    0    0  0.12532286345E+03 -0.20079580033E+03 -0.87625335722E+02  0.70534614145E+03  0.65864270000E+03 0. -1.
    8880022    1    1    2    0    0 -0.12532286345E+03  0.20079580033E+03  0.28393316664E+03  0.40004308476E+03  0.15294330000E+03 0.  0.
<mgrwt>
<rscale>  0 0.55751617E+03</rscale>
<asrwt>0</asrwt>
<pdfrwt beam="1">  1        2 0.69929338E-01 0.69988212E+03</pdfrwt>
<pdfrwt beam="2">  1       -2 0.10013054E+00 0.69988212E+03</pdfrwt>
<totfact> 0.57441709E+01</totfact>
</mgrwt>
</event>
<event>
 4    1  0.8287789E-007  0.1019495E+04  0.7818608E-02  0.9356485E-01
          2   -1    0    0  501    0  0.00000000000E+00  0.00000000000E+00  0.20470337362E+04  0.20470337362E+04  0.25500000000E-02 0. -1.
         -2   -1    0    0    0  501 -0.00000000000E+00 -0.00000000000E+00 -0.50528570844E+03  0.50528570844E+03  0.25500000000E-02 0.  1.
    8880023    1    1    2    0    0  0.36998931692E+03 -0.68459300407E+03  0.14228496480E+04  0.17503916713E+04  0.65864270000E+03 0. -1.
    8880022    1    1    2    0    0 -0.36998931692E+03  0.68459300407E+03  0.11889837969E+03  0.80192777328E+03  0.15294330000E+03 0.  0.
<mgrwt>
<rscale>  0 0.95744961E+03</rscale>
<asrwt>0</asrwt>
<pdfrwt beam="1">  1        2 0.31492826E+00 0.10194949E+04</pdfrwt>
<pdfrwt beam="2">  1       -2 0.77736264E-01 0.10194949E+04</pdfrwt>
<totfact> 0.92802460E+00</totfact>
</mgrwt>
</event>
<event>
 4    1  0.8287789E-007  0.1010874E+04  0.7818608E-02  0.9367467E-01
         -2   -1    0    0    0  501 -0.00000000000E+00  0.00000000000E+00  0.11861149084E+04  0.11861149084E+04  0.25500000000E-02 0.  1.
          2   -1    0    0  501    0  0.00000000000E+00 -0.00000000000E+00 -0.12586436124E+04  0.12586436124E+04  0.25500000000E-02 0. -1.
    8880023    1    1    2    0    0  0.55896957977E+03 -0.52498556494E+03 -0.86573436546E+03  0.13309256299E+04  0.65864270000E+03 0.  0.
    8880022    1    1    2    0    0 -0.55896957977E+03  0.52498556494E+03  0.79320566150E+03  0.11138328909E+04  0.15294330000E+03 0.  0.
<mgrwt>
<rscale>  0 0.94802083E+03</rscale>
<asrwt>0</asrwt>
<pdfrwt beam="1">  1        2 0.19363748E+00 0.10108744E+04</pdfrwt>
<pdfrwt beam="2">  1       -2 0.18247922E+00 0.10108744E+04</pdfrwt>
<totfact> 0.30183662E+00</totfact>
</mgrwt>
</event>
<event>
 4    1  0.8287789E-007  0.8277813E+03  0.7818608E-02  0.9653665E-01
          2   -1    0    0  501    0  0.00000000000E+00  0.00000000000E+00  0.40476297446E+03  0.40476297447E+03  0.25500000000E-02 0. -1.
         -2   -1    0    0    0  501 -0.00000000000E+00 -0.00000000000E+00 -0.14357446173E+04  0.14357446173E+04  0.25500000000E-02 0.  1.
    8880023    1    1    2    0    0 -0.21501714832E+03  0.45296712707E+03 -0.18965628743E+03  0.84922983103E+03  0.65864270000E+03 0.  0.
    8880022    1    1    2    0    0  0.21501714832E+03 -0.45296712707E+03 -0.84132535536E+03  0.99127776071E+03  0.15294330000E+03 0.  0.
<mgrwt>
<rscale>  0 0.73843865E+03</rscale>
<asrwt>0</asrwt>
<pdfrwt beam="1">  1        2 0.62271227E-01 0.82778125E+03</pdfrwt>
<pdfrwt beam="2">  1       -2 0.22088379E+00 0.82778125E+03</pdfrwt>
<totfact> 0.77617570E+00</totfact>
</mgrwt>
</event>
<event>
 4    1  0.8287789E-007  0.6985084E+03  0.7818608E-02  0.1000345E+00
          2   -1    0    0  501    0  0.00000000000E+00  0.00000000000E+00  0.14079184083E+04  0.14079184083E+04  0.25500000000E-02 0. -1.
         -2   -1    0    0    0  501 -0.00000000000E+00 -0.00000000000E+00 -0.95195974541E+03  0.95195974541E+03  0.25500000000E-02 0.  1.
    8880023    1    1    2    0    0 -0.13671234660E+03  0.18818461322E+03  0.12974531305E+04  0.14735326757E+04  0.65864270000E+03 0. -1.
    8880022    1    1    2    0    0  0.13671234660E+03 -0.18818461322E+03 -0.84149446759E+03  0.88634547800E+03  0.15294330000E+03 0.  0.
<mgrwt>
<rscale>  0 0.55499385E+03</rscale>
<asrwt>0</asrwt>
<pdfrwt beam="1">  1        2 0.21660283E+00 0.69850835E+03</pdfrwt>
<pdfrwt beam="2">  1       -2 0.14645535E+00 0.69850835E+03</pdfrwt>
<totfact> 0.47207705E+00</totfact>
</mgrwt>
</event>
<event>
 4    1  0.8287789E-007  0.1368624E+04  0.7818608E-02  0.9008454E-01
          2   -1    0    0  501    0  0.00000000000E+00  0.00000000000E+00  0.14096643137E+04  0.14096643137E+04  0.25500000000E-02 0. -1.
         -2   -1    0    0    0  501 -0.00000000000E+00 -0.00000000000E+00 -0.15608190621E+04  0.15608190622E+04  0.25500000000E-02 0.  1.
    8880023    1    1    2    0    0 -0.15280599063E+03  0.11899462891E+04  0.65471512809E+03  0.15171631247E+04  0.65864270000E+03 0.  0.
    8880022    1    1    2    0    0  0.15280599063E+03 -0.11899462891E+04 -0.80586987651E+03  0.14533202512E+04  0.15294330000E+03 0.  0.
<mgrwt>
<rscale>  0 0.13269607E+04</rscale>
<asrwt>0</asrwt>
<pdfrwt beam="1">  1        2 0.21687143E+00 0.13686241E+04</pdfrwt>
<pdfrwt beam="2">  1       -2 0.24012601E+00 0.13686241E+04</pdfrwt>
<totfact> 0.10074570E+00</totfact>
</mgrwt>
</event>
<event>
 4    1  0.8287789E-007  0.9415964E+03  0.7818608E-02  0.9462310E-01
         -2   -1    0    0    0  501 -0.00000000000E+00  0.00000000000E+00  0.74502432527E+03  0.74502432527E+03  0.25500000000E-02 0.  1.
          2   -1    0    0  501    0  0.00000000000E+00 -0.00000000000E+00 -0.18841169725E+04  0.18841169725E+04  0.25500000000E-02 0. -1.
    8880023    1    1    2    0    0 -0.59021457906E+03 -0.32317220763E+03  0.33670002836E+03  0.99998532013E+03  0.65864270000E+03 0.  0.
    8880022    1    1    2    0    0  0.59021457906E+03  0.32317220763E+03 -0.14757926756E+04  0.16291559777E+04  0.15294330000E+03 0.  0.
<mgrwt>
<rscale>  0 0.87120542E+03</rscale>
<asrwt>0</asrwt>
<pdfrwt beam="1">  1        2 0.28986415E+00 0.94159637E+03</pdfrwt>
<pdfrwt beam="2">  1       -2 0.11461913E+00 0.94159637E+03</pdfrwt>
<totfact> 0.46306633E+00</totfact>
</mgrwt>
</event>
<event>
 4    1  0.8287789E-007  0.7550730E+03  0.7818608E-02  0.9818034E-01
         -2   -1    0    0    0  501 -0.00000000000E+00  0.00000000000E+00  0.25132730324E+03  0.25132730325E+03  0.25500000000E-02 0.  1.
          2   -1    0    0  501    0  0.00000000000E+00 -0.00000000000E+00 -0.13961057179E+04  0.13961057179E+04  0.25500000000E-02 0. -1.
    8880023    1    1    2    0    0  0.34396984119E+03  0.13420039140E+03 -0.91543050528E+03  0.11866542095E+04  0.65864270000E+03 0. -1.
    8880022    1    1    2    0    0 -0.34396984119E+03 -0.13420039140E+03 -0.22934790939E+03  0.46077881164E+03  0.15294330000E+03 0.  1.
<mgrwt>
<rscale>  0 0.64403648E+03</rscale>
<asrwt>0</asrwt>
<pdfrwt beam="1">  1        2 0.21478549E+00 0.75507298E+03</pdfrwt>
<pdfrwt beam="2">  1       -2 0.38665740E-01 0.75507298E+03</pdfrwt>
<totfact> 0.93481383E+01</totfact>
</mgrwt>
</event>
<event>
 4    1  0.8287789E-007  0.1011157E+04  0.7818608E-02  0.9367104E-01
         -2   -1    0    0    0  501 -0.00000000000E+00  0.00000000000E+00  0.59906385346E+03  0.59906385346E+03  0.25500000000E-02 0.  1.
          2   -1    0    0  501    0  0.00000000000E+00 -0.00000000000E+00 -0.19692214397E+04  0.19692214397E+04  0.25500000000E-02 0. -1.
    8880023    1    1    2    0    0  0.54432289401E+03  0.54068602059E+03 -0.14651756894E+04  0.17802187486E+04  0.65864270000E+03 0.  0.
    8880022    1    1    2    0    0 -0.54432289401E+03 -0.54068602059E+03  0.95018103102E+02  0.78806654461E+03  0.15294330000E+03 0.  0.
<mgrwt>
<rscale>  0 0.94833061E+03</rscale>
<asrwt>0</asrwt>
<pdfrwt beam="1">  1        2 0.30295714E+00 0.10111573E+04</pdfrwt>
<pdfrwt beam="2">  1       -2 0.92163671E-01 0.10111573E+04</pdfrwt>
<totfact> 0.69476796E+00</totfact>
</mgrwt>
</event>
<event>
 4    1  0.8287789E-007  0.7115233E+03  0.7818608E-02  0.9952387E-01
         -2   -1    0    0    0  501 -0.00000000000E+00  0.00000000000E+00  0.67954441304E+03  0.67954441304E+03  0.25500000000E-02 0.  1.
          2   -1    0    0  501    0  0.00000000000E+00 -0.00000000000E+00 -0.64066114545E+03  0.64066114545E+03  0.25500000000E-02 0. -1.
    8880023    1    1    2    0    0  0.26914745018E+03 -0.38611643373E+01 -0.37424872733E+03  0.80394500726E+03  0.65864270000E+03 0. -1.
    8880022    1    1    2    0    0 -0.26914745018E+03  0.38611643373E+01  0.41313199492E+03  0.51626055124E+03  0.15294330000E+03 0.  0.
<mgrwt>
<rscale>  0 0.57788195E+03</rscale>
<asrwt>0</asrwt>
<pdfrwt beam="1">  1        2 0.98563254E-01 0.71152334E+03</pdfrwt>
<pdfrwt beam="2">  1       -2 0.10454529E+00 0.71152334E+03</pdfrwt>
<totfact> 0.34547860E+01</totfact>
</mgrwt>
</event>
<event>
 4    1  0.8287789E-007  0.9185450E+03  0.7818608E-02  0.9496893E-01
         -2   -1    0    0    0  501 -0.00000000000E+00  0.00000000000E+00  0.63748674254E+03  0.63748674255E+03  0.25500000000E-02 0.  1.
          2   -1    0    0  501    0  0.00000000000E+00 -0.00000000000E+00 -0.22759265604E+04  0.22759265604E+04  0.25500000000E-02 0. -1.
    8880023    1    1    2    0    0  0.43034795880E+03 -0.47404159668E+03 -0.19720229353E+04  0.21754538526E+04  0.65864270000E+03 0. -1.
    8880022    1    1    2    0    0 -0.43034795880E+03  0.47404159668E+03  0.33358311750E+03  0.73795945033E+03  0.15294330000E+03 0.  0.
<mgrwt>
<rscale>  0 0.84513238E+03</rscale>
<asrwt>0</asrwt>
<pdfrwt beam="1">  1        2 0.35014255E+00 0.91854505E+03</pdfrwt>
<pdfrwt beam="2">  1       -2 0.98074884E-01 0.91854505E+03</pdfrwt>
<totfact> 0.41107544E+00</totfact>
</mgrwt>
</event>
<event>
 4    1  0.8287789E-007  0.7936808E+03  0.7818608E-02  0.9724630E-01
         -2   -1    0    0    0  501 -0.00000000000E+00  0.00000000000E+00  0.23461832318E+03  0.23461832320E+03  0.25500000000E-02 0.  1.
          2   -1    0    0  501    0  0.00000000000E+00 -0.00000000000E+00 -0.19923383321E+04  0.19923383321E+04  0.25500000000E-02 0. -1.
    8880023    1    1    2    0    0 -0.30033759085E+03  0.32544784155E+03 -0.14877608162E+04  0.16862269771E+04  0.65864270000E+03 0.  0.
    8880022    1    1    2    0    0  0.30033759085E+03 -0.32544784155E+03 -0.26995919271E+03  0.54072967812E+03  0.15294330000E+03 0.  0.
<mgrwt>
<rscale>  0 0.69569092E+03</rscale>
<asrwt>0</asrwt>
<pdfrwt beam="1">  1        2 0.30651358E+00 0.79368077E+03</pdfrwt>
<pdfrwt beam="2">  1       -2 0.36095128E-01 0.79368077E+03</pdfrwt>
<totfact> 0.49913047E+01</totfact>
</mgrwt>
</event>
<event>
 4    1  0.8287789E-007  0.7250961E+03  0.7818608E-02  0.9905705E-01
          2   -1    0    0  501    0  0.00000000000E+00  0.00000000000E+00  0.77379207795E+03  0.77379207796E+03  0.25500000000E-02 0. -1.
         -2   -1    0    0    0  501 -0.00000000000E+00 -0.00000000000E+00 -0.63935996914E+03  0.63935996915E+03  0.25500000000E-02 0.  1.
    8880023    1    1    2    0    0 -0.30068722580E+03  0.39259654334E+02  0.52527475971E+03  0.89536467859E+03  0.65864270000E+03 0. -1.
    8880022    1    1    2    0    0  0.30068722580E+03 -0.39259654334E+02 -0.39084265090E+03  0.51778736851E+03  0.15294330000E+03 0.  0.
<mgrwt>
<rscale>  0 0.59985583E+03</rscale>
<asrwt>0</asrwt>
<pdfrwt beam="1">  1        2 0.11904494E+00 0.72509609E+03</pdfrwt>
<pdfrwt beam="2">  1       -2 0.98363072E-01 0.72509609E+03</pdfrwt>
<totfact> 0.31418337E+01</totfact>
</mgrwt>
</event>
<event>
 4    1  0.8287789E-007  0.7079387E+03  0.7818608E-02  0.9965737E-01
          2   -1    0    0  501    0  0.00000000000E+00  0.00000000000E+00  0.34269323472E+04  0.34269323472E+04  0.25500000000E-02 0. -1.
         -2   -1    0    0    0  501 -0.00000000000E+00 -0.00000000000E+00 -0.10839196324E+03  0.10839196327E+03  0.25500000000E-02 0.  1.
    8880023    1    1    2    0    0 -0.24187662949E+03  0.94141543652E+02  0.30521508330E+04  0.31331775960E+04  0.65864270000E+03 0. -1.
    8880022    1    1    2    0    0  0.24187662949E+03 -0.94141543652E+02  0.26638955100E+03  0.40214671456E+03  0.15294330000E+03 0.  0.
<mgrwt>
<rscale>  0 0.57178491E+03</rscale>
<asrwt>0</asrwt>
<pdfrwt beam="1">  1        2 0.52722033E+00 0.70793866E+03</pdfrwt>
<pdfrwt beam="2">  1       -2 0.16675688E-01 0.70793866E+03</pdfrwt>
<totfact> 0.28881331E+01</totfact>
</mgrwt>
</event>
<event>
 4    1  0.8287789E-007  0.6794841E+03  0.7818608E-02  0.1009617E+00
         -2   -1    0    0    0  501 -0.00000000000E+00  0.00000000000E+00  0.12497465809E+04  0.12497465809E+04  0.25500000000E-02 0.  1.
          2   -1    0    0  501    0  0.00000000000E+00 -0.00000000000E+00 -0.38243894016E+03  0.38243894017E+03  0.25500000000E-02 0. -1.
    8880023    1    1    2    0    0 -0.37873056414E+02  0.16264709949E+03 -0.55739605996E+02  0.68176649765E+03  0.65864270000E+03 0. -1.
    8880022    1    1    2    0    0  0.37873056414E+02 -0.16264709949E+03  0.92304724670E+03  0.95041902340E+03  0.15294330000E+03 0.  0.
<mgrwt>
<rscale>  0 0.51627142E+03</rscale>
<asrwt>0</asrwt>
<pdfrwt beam="1">  1        2 0.58836760E-01 0.67948411E+03</pdfrwt>
<pdfrwt beam="2">  1       -2 0.19226871E+00 0.67948411E+03</pdfrwt>
<totfact> 0.12826512E+01</totfact>
</mgrwt>
</event>
<event>
 4    1  0.8287789E-007  0.7234065E+03  0.7818608E-02  0.9911224E-01
         -2   -1    0    0    0  501 -0.00000000000E+00  0.00000000000E+00  0.35612450710E+03  0.35612450711E+03  0.25500000000E-02 0.  1.
          2   -1    0    0  501    0  0.00000000000E+00 -0.00000000000E+00 -0.14823892844E+04  0.14823892844E+04  0.25500000000E-02 0. -1.
    8880023    1    1    2    0    0  0.12165534473E+03  0.27332533962E+03 -0.12790138151E+04  0.14694193784E+04  0.65864270000E+03 0.  0.
    8880022    1    1    2    0    0 -0.12165534473E+03 -0.27332533962E+03  0.15274903784E+03  0.36909441306E+03  0.15294330000E+03 0.  0.
<mgrwt>
<rscale>  0 0.59720411E+03</rscale>
<asrwt>0</asrwt>
<pdfrwt beam="1">  1        2 0.22805989E+00 0.72340650E+03</pdfrwt>
<pdfrwt beam="2">  1       -2 0.54788387E-01 0.72340650E+03</pdfrwt>
<totfact> 0.41726380E+01</totfact>
</mgrwt>
</event>
<event>
 4    1  0.8287789E-007  0.1218644E+04  0.7818608E-02  0.9139209E-01
         -2   -1    0    0    0  501 -0.00000000000E+00  0.00000000000E+00  0.93134571988E+03  0.93134571988E+03  0.25500000000E-02 0.  1.
          2   -1    0    0  501    0  0.00000000000E+00 -0.00000000000E+00 -0.19802939622E+04  0.19802939622E+04  0.25500000000E-02 0. -1.
    8880023    1    1    2    0    0  0.39357120853E+03  0.94677620294E+03 -0.13630951798E+04  0.18284206710E+04  0.65864270000E+03 0.  0.
    8880022    1    1    2    0    0 -0.39357120853E+03 -0.94677620294E+03  0.31414693750E+03  0.10832190111E+04  0.15294330000E+03 0.  0.
<mgrwt>
<rscale>  0 0.11703543E+04</rscale>
<asrwt>0</asrwt>
<pdfrwt beam="1">  1        2 0.30466061E+00 0.12186442E+04</pdfrwt>
<pdfrwt beam="2">  1       -2 0.14328396E+00 0.12186442E+04</pdfrwt>
<totfact> 0.22511476E+00</totfact>
</mgrwt>
</event>
<event>
 4    1  0.8287789E-007  0.1481238E+04  0.7818608E-02  0.8923000E-01
         -2   -1    0    0    0  501 -0.00000000000E+00  0.00000000000E+00  0.98227452430E+03  0.98227452430E+03  0.25500000000E-02 0.  1.
          2   -1    0    0  501    0  0.00000000000E+00 -0.00000000000E+00 -0.35652617487E+04  0.35652617487E+04  0.25500000000E-02 0. -1.
    8880023    1    1    2    0    0  0.13263131749E+04  0.33879723118E+02 -0.28254460394E+04  0.31901739767E+04  0.65864270000E+03 0.  0.
    8880022    1    1    2    0    0 -0.13263131749E+04 -0.33879723118E+02  0.24245881495E+03  0.13573622964E+04  0.15294330000E+03 0.  0.
<mgrwt>
<rscale>  0 0.14433848E+04</rscale>
<asrwt>0</asrwt>
<pdfrwt beam="1">  1        2 0.54850180E+00 0.14812376E+04</pdfrwt>
<pdfrwt beam="2">  1       -2 0.15111916E+00 0.14812376E+04</pdfrwt>
<totfact> 0.20535316E-01</totfact>
</mgrwt>
</event>
<event>
 4    1  0.8287789E-007  0.6646280E+03  0.7818608E-02  0.1019848E+00
          2   -1    0    0  501    0  0.00000000000E+00  0.00000000000E+00  0.56067128648E+03  0.56067128649E+03  0.25500000000E-02 0. -1.
         -2   -1    0    0    0  501 -0.00000000000E+00 -0.00000000000E+00 -0.55788118122E+03  0.55788118122E+03  0.25500000000E-02 0.  1.
    8880023    1    1    2    0    0  0.69099919077E+02 -0.56083891741E+02  0.33340233283E+03  0.74356406821E+03  0.65864270000E+03 0.  0.
    8880022    1    1    2    0    0 -0.69099919077E+02  0.56083891741E+02 -0.33061222757E+03  0.37498839950E+03  0.15294330000E+03 0.  0.
<mgrwt>
<rscale>  0 0.47741668E+03</rscale>
<asrwt>0</asrwt>
<pdfrwt beam="1">  1        2 0.86257122E-01 0.66462802E+03</pdfrwt>
<pdfrwt beam="2">  1       -2 0.85827873E-01 0.66462802E+03</pdfrwt>
<totfact> 0.64538785E+01</totfact>
</mgrwt>
</event>
<event>
 4    1  0.8287789E-007  0.8311996E+03  0.7818608E-02  0.9647003E-01
          2   -1    0    0  501    0  0.00000000000E+00  0.00000000000E+00  0.20578459029E+04  0.20578459029E+04  0.25500000000E-02 0. -1.
         -2   -1    0    0    0  501 -0.00000000000E+00 -0.00000000000E+00 -0.57400264981E+03  0.57400264982E+03  0.25500000000E-02 0.  1.
    8880023    1    1    2    0    0  0.23577096091E+03 -0.44888154619E+03  0.18225908200E+04  0.20031799949E+04  0.65864270000E+03 0. -1.
    8880022    1    1    2    0    0 -0.23577096091E+03  0.44888154619E+03 -0.33874756690E+03  0.62866855784E+03  0.15294330000E+03 0.  0.
<mgrwt>
<rscale>  0 0.74261826E+03</rscale>
<asrwt>0</asrwt>
<pdfrwt beam="1">  1        2 0.31659167E+00 0.83119961E+03</pdfrwt>
<pdfrwt beam="2">  1       -2 0.88308102E-01 0.83119961E+03</pdfrwt>
<totfact> 0.70166219E+00</totfact>
</mgrwt>
</event>
<event>
 4    1  0.8287789E-007  0.6717399E+03  0.7818608E-02  0.1014445E+00
         -2   -1    0    0    0  501 -0.00000000000E+00  0.00000000000E+00  0.34419705451E+03  0.34419705451E+03  0.25500000000E-02 0.  1.
          2   -1    0    0  501    0  0.00000000000E+00 -0.00000000000E+00 -0.63114791668E+03  0.63114791669E+03  0.25500000000E-02 0. -1.
    8880023    1    1    2    0    0 -0.69489578765E+02 -0.11222973139E+03 -0.35800493399E+03  0.76118463804E+03  0.65864270000E+03 0. -1.
    8880022    1    1    2    0    0  0.69489578765E+02  0.11222973139E+03  0.71054071809E+02  0.21416033316E+03  0.15294330000E+03 0.  0.
<mgrwt>
<rscale>  0 0.49745595E+03</rscale>
<asrwt>0</asrwt>
<pdfrwt beam="1">  1        2 0.97099679E-01 0.67173992E+03</pdfrwt>
<pdfrwt beam="2">  1       -2 0.52953393E-01 0.67173992E+03</pdfrwt>
<totfact> 0.15909162E+02</totfact>
</mgrwt>
</event>
<event>
 4    1  0.8287789E-007  0.6936992E+03  0.7818608E-02  0.1002442E+00
          2   -1    0    0  501    0  0.00000000000E+00  0.00000000000E+00  0.76685315240E+03  0.76685315240E+03  0.25500000000E-02 0. -1.
         -2   -1    0    0    0  501 -0.00000000000E+00 -0.00000000000E+00 -0.42310260144E+03  0.42310260145E+03  0.25500000000E-02 0.  1.
    8880023    1    1    2    0    0 -0.11026586694E+03  0.18774922030E+03  0.52331526997E+03  0.86895190269E+03  0.65864270000E+03 0. -1.
    8880022    1    1    2    0    0  0.11026586694E+03 -0.18774922030E+03 -0.17956471901E+03  0.32100385117E+03  0.15294330000E+03 0.  0.
<mgrwt>
<rscale>  0 0.54592443E+03</rscale>
<asrwt>0</asrwt>
<pdfrwt beam="1">  1        2 0.11797741E+00 0.69369917E+03</pdfrwt>
<pdfrwt beam="2">  1       -2 0.65092709E-01 0.69369917E+03</pdfrwt>
<totfact> 0.80612763E+01</totfact>
</mgrwt>
</event>
<event>
 4    1  0.8287789E-007  0.8289255E+03  0.7818608E-02  0.9651427E-01
          2   -1    0    0  501    0  0.00000000000E+00  0.00000000000E+00  0.55054205775E+03  0.55054205776E+03  0.25500000000E-02 0. -1.
         -2   -1    0    0    0  501 -0.00000000000E+00 -0.00000000000E+00 -0.14094301969E+04  0.14094301969E+04  0.25500000000E-02 0.  1.
    8880023    1    1    2    0    0 -0.46197342629E+03 -0.19971955235E+03  0.13079549074E+03  0.83918115616E+03  0.65864270000E+03 0.  0.
    8880022    1    1    2    0    0  0.46197342629E+03  0.19971955235E+03 -0.98968362993E+03  0.11207910985E+04  0.15294330000E+03 0.  0.
<mgrwt>
<rscale>  0 0.73983963E+03</rscale>
<asrwt>0</asrwt>
<pdfrwt beam="1">  1        2 0.84698779E-01 0.82892554E+03</pdfrwt>
<pdfrwt beam="2">  1       -2 0.21683541E+00 0.82892554E+03</pdfrwt>
<totfact> 0.57679580E+00</totfact>
</mgrwt>
</event>
<event>
 4    1  0.8287789E-007  0.1367065E+04  0.7818608E-02  0.9009706E-01
         -2   -1    0    0    0  501 -0.00000000000E+00  0.00000000000E+00  0.52801739953E+03  0.52801739953E+03  0.25500000000E-02 0.  1.
          2   -1    0    0  501    0  0.00000000000E+00 -0.00000000000E+00 -0.45298570898E+04  0.45298570898E+04  0.25500000000E-02 0. -1.
    8880023    1    1    2    0    0 -0.10262152553E+04 -0.61801226166E+03 -0.34863462602E+04  0.37447933665E+04  0.65864270000E+03 0.  0.
    8880022    1    1    2    0    0  0.10262152553E+04  0.61801226166E+03 -0.51549343015E+03  0.13130811229E+04  0.15294330000E+03 0.  0.
<mgrwt>
<rscale>  0 0.13253430E+04</rscale>
<asrwt>0</asrwt>
<pdfrwt beam="1">  1        2 0.69690106E+00 0.13670651E+04</pdfrwt>
<pdfrwt beam="2">  1       -2 0.81233449E-01 0.13670651E+04</pdfrwt>
<totfact> 0.15439258E-01</totfact>
</mgrwt>
</event>
<event>
 4    1  0.8287789E-007  0.7377217E+03  0.7818608E-02  0.9866634E-01
          2   -1    0    0  501    0  0.00000000000E+00  0.00000000000E+00  0.22012040827E+04  0.22012040827E+04  0.25500000000E-02 0. -1.
         -2   -1    0    0    0  501 -0.00000000000E+00 -0.00000000000E+00 -0.60922007945E+03  0.60922007946E+03  0.25500000000E-02 0.  1.
    8880023    1    1    2    0    0  0.68777031040E+02  0.32510426540E+03  0.20763111539E+04  0.22034748189E+04  0.65864270000E+03 0. -1.
    8880022    1    1    2    0    0 -0.68777031040E+02 -0.32510426540E+03 -0.48432715067E+03  0.60694934325E+03  0.15294330000E+03 0.  0.
<mgrwt>
<rscale>  0 0.61905950E+03</rscale>
<asrwt>0</asrwt>
<pdfrwt beam="1">  1        2 0.33864678E+00 0.73772167E+03</pdfrwt>
<pdfrwt beam="2">  1       -2 0.93726167E-01 0.73772167E+03</pdfrwt>
<totfact> 0.51744574E+00</totfact>
</mgrwt>
</event>
<event>
 4    1  0.8287789E-007  0.9792009E+03  0.7818608E-02  0.9409290E-01
          2   -1    0    0  501    0  0.00000000000E+00  0.00000000000E+00  0.14966472712E+04  0.14966472712E+04  0.25500000000E-02 0. -1.
         -2   -1    0    0    0  501 -0.00000000000E+00 -0.00000000000E+00 -0.83181759051E+03  0.83181759052E+03  0.25500000000E-02 0.  1.
    8880023    1    1    2    0    0 -0.72398629652E+03 -0.29462535190E+02  0.10974618852E+04  0.14708014802E+04  0.65864270000E+03 0.  0.
    8880022    1    1    2    0    0  0.72398629652E+03  0.29462535190E+02 -0.43263220451E+03  0.85766338148E+03  0.15294330000E+03 0.  0.
<mgrwt>
<rscale>  0 0.91315101E+03</rscale>
<asrwt>0</asrwt>
<pdfrwt beam="1">  1        2 0.23025343E+00 0.97920090E+03</pdfrwt>
<pdfrwt beam="2">  1       -2 0.12797194E+00 0.97920090E+03</pdfrwt>
<totfact> 0.57376950E+00</totfact>
</mgrwt>
</event>
<event>
 4    1  0.8287789E-007  0.7207163E+03  0.7818608E-02  0.9920170E-01
          2   -1    0    0  501    0  0.00000000000E+00  0.00000000000E+00  0.15950053382E+04  0.15950053382E+04  0.25500000000E-02 0. -1.
         -2   -1    0    0    0  501 -0.00000000000E+00 -0.00000000000E+00 -0.23977635561E+03  0.23977635562E+03  0.25500000000E-02 0.  1.
    8880023    1    1    2    0    0 -0.24468052960E+03 -0.16047805808E+03  0.13184358588E+04  0.15025661679E+04  0.65864270000E+03 0. -1.
    8880022    1    1    2    0    0  0.24468052960E+03  0.16047805808E+03  0.36793123711E+02  0.33221552591E+03  0.15294330000E+03 0.  1.
<mgrwt>
<rscale>  0 0.59293659E+03</rscale>
<asrwt>0</asrwt>
<pdfrwt beam="1">  1        2 0.24538544E+00 0.72071629E+03</pdfrwt>
<pdfrwt beam="2">  1       -2 0.36888670E-01 0.72071629E+03</pdfrwt>
<totfact> 0.79559794E+01</totfact>
</mgrwt>
</event>
<event>
 4    1  0.8287789E-007  0.6981612E+03  0.7818608E-02  0.1000492E+00
          2   -1    0    0  501    0  0.00000000000E+00  0.00000000000E+00  0.49230967227E+04  0.49230967227E+04  0.25500000000E-02 0. -1.
         -2   -1    0    0    0  501 -0.00000000000E+00 -0.00000000000E+00 -0.51178914370E+02  0.51178914433E+02  0.25500000000E-02 0.  1.
    8880023    1    1    2    0    0 -0.23114700328E+03  0.13778544410E+02  0.39598231918E+04  0.40208989918E+04  0.65864270000E+03 0. -1.
    8880022    1    1    2    0    0  0.23114700328E+03 -0.13778544410E+02  0.91209461650E+03  0.95337664534E+03  0.15294330000E+03 0.  1.
<mgrwt>
<rscale>  0 0.55435180E+03</rscale>
<asrwt>0</asrwt>
<pdfrwt beam="1">  1        2 0.75739977E+00 0.69816115E+03</pdfrwt>
<pdfrwt beam="2">  1       -2 0.78736763E-02 0.69816115E+03</pdfrwt>
<totfact> 0.50881236E+00</totfact>
</mgrwt>
</event>
<event>
 4    1  0.8448534E-007  0.6630715E+03  0.7818608E-02  0.1021209E+00
         -2   -1    0    0    0  501 -0.00000000000E+00  0.00000000000E+00  0.61771780044E+03  0.61771780045E+03  0.25500000000E-02 0.  1.
          2   -1    0    0  501    0  0.00000000000E+00 -0.00000000000E+00 -0.11977520391E+04  0.11977520391E+04  0.25500000000E-02 0. -1.
    8880023    1    1    2    0    0 -0.19869678613E+02 -0.73883907441E+02 -0.10909738814E+04  0.12766706122E+04  0.65864270000E+03 0. -1.
    8880022    1    1    2    0    0  0.19869678613E+02  0.73883907441E+02  0.51093964272E+03  0.53879922738E+03  0.15294330000E+03 0.  0.
<mgrwt>
<rscale>  0 0.47252770E+03</rscale>
<asrwt>0</asrwt>
<pdfrwt beam="1">  1        2 0.18426954E+00 0.66307152E+03</pdfrwt>
<pdfrwt beam="2">  1       -2 0.95033508E-01 0.66307152E+03</pdfrwt>
<totfact> 0.18223498E+01</totfact>
</mgrwt>
</event>
<event>
 4    1  0.8287789E-007  0.7788129E+03  0.7818608E-02  0.9758633E-01
          2   -1    0    0  501    0  0.00000000000E+00  0.00000000000E+00  0.47929910237E+03  0.47929910237E+03  0.25500000000E-02 0. -1.
         -2   -1    0    0    0  501 -0.00000000000E+00 -0.00000000000E+00 -0.10010839539E+04  0.10010839539E+04  0.25500000000E-02 0.  1.
    8880023    1    1    2    0    0  0.37238077779E+03  0.18458576557E+03  0.21939563962E+02  0.77912187702E+03  0.65864270000E+03 0.  0.
    8880022    1    1    2    0    0 -0.37238077779E+03 -0.18458576557E+03 -0.54372441551E+03  0.70126117927E+03  0.15294330000E+03 0.  0.
<mgrwt>
<rscale>  0 0.67630584E+03</rscale>
<asrwt>0</asrwt>
<pdfrwt beam="1">  1        2 0.73738323E-01 0.77881291E+03</pdfrwt>
<pdfrwt beam="2">  1       -2 0.15401292E+00 0.77881291E+03</pdfrwt>
<totfact> 0.18265822E+01</totfact>
</mgrwt>
</event>
<event>
 4    1  0.8742624E-007  0.6789289E+03  0.7818608E-02  0.1009936E+00
         -2   -1    0    0    0  501 -0.00000000000E+00  0.00000000000E+00  0.39890032312E+03  0.39890032312E+03  0.25500000000E-02 0.  1.
          2   -1    0    0  501    0  0.00000000000E+00 -0.00000000000E+00 -0.23383201916E+04  0.23383201916E+04  0.25500000000E-02 0. -1.
    8880023    1    1    2    0    0  0.11672720402E+02  0.16431073604E+03 -0.22520538840E+04  0.23521673353E+04  0.65864270000E+03 0.  0.
    8880022    1    1    2    0    0 -0.11672720402E+02 -0.16431073604E+03  0.31263401549E+03  0.38505317949E+03  0.15294330000E+03 0.  1.
<mgrwt>
<rscale>  0 0.51500034E+03</rscale>
<asrwt>0</asrwt>
<pdfrwt beam="1">  1        2 0.35974156E+00 0.67892892E+03</pdfrwt>
<pdfrwt beam="2">  1       -2 0.61369282E-01 0.67892892E+03</pdfrwt>
<totfact> 0.11245431E+01</totfact>
</mgrwt>
</event>
<event>
 4    1  0.8287789E-007  0.7510664E+03  0.7818608E-02  0.9828810E-01
         -2   -1    0    0    0  501 -0.00000000000E+00  0.00000000000E+00  0.49108479004E+03  0.49108479005E+03  0.25500000000E-02 0.  1.
          2   -1    0    0  501    0  0.00000000000E+00 -0.00000000000E+00 -0.13865383598E+04  0.13865383598E+04  0.25500000000E-02 0. -1.
    8880023    1    1    2    0    0 -0.35228677010E+03  0.78642196651E+02 -0.11761258392E+04  0.13954829843E+04  0.65864270000E+03 0. -1.
    8880022    1    1    2    0    0  0.35228677010E+03 -0.78642196651E+02  0.28067226940E+03  0.48214016562E+03  0.15294330000E+03 0.  0.
<mgrwt>
<rscale>  0 0.63839094E+03</rscale>
<asrwt>0</asrwt>
<pdfrwt beam="1">  1        2 0.21331359E+00 0.75106642E+03</pdfrwt>
<pdfrwt beam="2">  1       -2 0.75551507E-01 0.75106642E+03</pdfrwt>
<totfact> 0.23643389E+01</totfact>
</mgrwt>
</event>
<event>
 4    1  0.8287789E-007  0.1424461E+04  0.7818608E-02  0.8964905E-01
         -2   -1    0    0    0  501 -0.00000000000E+00  0.00000000000E+00  0.15308734973E+04  0.15308734973E+04  0.25500000000E-02 0.  1.
          2   -1    0    0  501    0  0.00000000000E+00 -0.00000000000E+00 -0.15006880089E+04  0.15006880089E+04  0.25500000000E-02 0. -1.
    8880023    1    1    2    0    0  0.12608327645E+04 -0.74702183399E+02  0.70722383852E+03  0.15903633045E+04  0.65864270000E+03 0.  0.
    8880022    1    1    2    0    0 -0.12608327645E+04  0.74702183399E+02 -0.67703835008E+03  0.14411982017E+04  0.15294330000E+03 0.  0.
<mgrwt>
<rscale>  0 0.13847865E+04</rscale>
<asrwt>0</asrwt>
<pdfrwt beam="1">  1        2 0.23087508E+00 0.14244613E+04</pdfrwt>
<pdfrwt beam="2">  1       -2 0.23551900E+00 0.14244613E+04</pdfrwt>
<totfact> 0.94915052E-01</totfact>
</mgrwt>
</event>
<event>
 4    1  0.8287789E-007  0.7353406E+03  0.7818608E-02  0.9873733E-01
         -2   -1    0    0    0  501 -0.00000000000E+00  0.00000000000E+00  0.92663234624E+03  0.92663234624E+03  0.25500000000E-02 0.  1.
          2   -1    0    0  501    0  0.00000000000E+00 -0.00000000000E+00 -0.46782027999E+03  0.46782027999E+03  0.25500000000E-02 0. -1.
    8880023    1    1    2    0    0  0.32053530237E+03 -0.64596992429E+02  0.65398740188E+03  0.98408606309E+03  0.65864270000E+03 0.  1.
    8880022    1    1    2    0    0 -0.32053530237E+03  0.64596992429E+02 -0.19517533563E+03  0.41036656314E+03  0.15294330000E+03 0.  0.
<mgrwt>
<rscale>  0 0.61551341E+03</rscale>
<asrwt>0</asrwt>
<pdfrwt beam="1">  1        2 0.71972351E-01 0.73534064E+03</pdfrwt>
<pdfrwt beam="2">  1       -2 0.14255882E+00 0.73534064E+03</pdfrwt>
<totfact> 0.23109541E+01</totfact>
</mgrwt>
</event>
<event>
 4    1  0.8287789E-007  0.6837633E+03  0.7818608E-02  0.1007270E+00
         -2   -1    0    0    0  501 -0.00000000000E+00  0.00000000000E+00  0.24610734288E+03  0.24610734289E+03  0.25500000000E-02 0.  1.
          2   -1    0    0  501    0  0.00000000000E+00 -0.00000000000E+00 -0.13014686954E+04  0.13014686954E+04  0.25500000000E-02 0. -1.
    8880023    1    1    2    0    0  0.17979051155E+03  0.37381199818E+02 -0.11088110533E+04  0.13026872765E+04  0.65864270000E+03 0. -1.
    8880022    1    1    2    0    0 -0.17979051155E+03 -0.37381199818E+02  0.53449700757E+02  0.24488876183E+03  0.15294330000E+03 0.  0.
<mgrwt>
<rscale>  0 0.52574094E+03</rscale>
<asrwt>0</asrwt>
<pdfrwt beam="1">  1        2 0.20022595E+00 0.68376325E+03</pdfrwt>
<pdfrwt beam="2">  1       -2 0.37862669E-01 0.68376325E+03</pdfrwt>
<totfact> 0.11092789E+02</totfact>
</mgrwt>
</event>
<event>
 4    1  0.8287789E-007  0.7091073E+03  0.7818608E-02  0.9961331E-01
          2   -1    0    0  501    0  0.00000000000E+00  0.00000000000E+00  0.14789177777E+04  0.14789177777E+04  0.25500000000E-02 0. -1.
         -2   -1    0    0    0  501 -0.00000000000E+00 -0.00000000000E+00 -0.24728831444E+03  0.24728831446E+03  0.25500000000E-02 0.  1.
    8880023    1    1    2    0    0 -0.18972958855E+03 -0.18172961825E+03  0.12328166270E+04  0.14222060374E+04  0.65864270000E+03 0. -1.
    8880022    1    1    2    0    0  0.18972958855E+03  0.18172961825E+03 -0.11871636778E+01  0.30400005476E+03  0.15294330000E+03 0.  0.
<mgrwt>
<rscale>  0 0.57378813E+03</rscale>
<asrwt>0</asrwt>
<pdfrwt beam="1">  1        2 0.22752582E+00 0.70910731E+03</pdfrwt>
<pdfrwt beam="2">  1       -2 0.38044355E-01 0.70910731E+03</pdfrwt>
<totfact> 0.87033800E+01</totfact>
</mgrwt>
</event>
<event>
 4    1  0.8287789E-007  0.7673411E+03  0.7818608E-02  0.9786460E-01
         -2   -1    0    0    0  501 -0.00000000000E+00  0.00000000000E+00  0.39699119402E+03  0.39699119403E+03  0.25500000000E-02 0.  1.
          2   -1    0    0  501    0  0.00000000000E+00 -0.00000000000E+00 -0.11204765100E+04  0.11204765100E+04  0.25500000000E-02 0. -1.
    8880023    1    1    2    0    0  0.54759415653E+02 -0.38987636305E+03 -0.77662786519E+03  0.10917706807E+04  0.65864270000E+03 0. -1.
    8880022    1    1    2    0    0 -0.54759415653E+02  0.38987636305E+03  0.53142549228E+02  0.42569702327E+03  0.15294330000E+03 0.  0.
<mgrwt>
<rscale>  0 0.66094272E+03</rscale>
<asrwt>0</asrwt>
<pdfrwt beam="1">  1        2 0.17238100E+00 0.76734111E+03</pdfrwt>
<pdfrwt beam="2">  1       -2 0.61075569E-01 0.76734111E+03</pdfrwt>
<totfact> 0.53577314E+01</totfact>
</mgrwt>
</event>
<event>
 4    1  0.8287789E-007  0.7032699E+03  0.7818608E-02  0.9983898E-01
         -2   -1    0    0    0  501 -0.00000000000E+00  0.00000000000E+00  0.10509209777E+04  0.10509209777E+04  0.25500000000E-02 0.  1.
          2   -1    0    0  501    0  0.00000000000E+00 -0.00000000000E+00 -0.14411545565E+04  0.14411545565E+04  0.25500000000E-02 0. -1.
    8880023    1    1    2    0    0 -0.21945791885E+03 -0.11232341565E+03 -0.13322047475E+04  0.15064388548E+04  0.65864270000E+03 0. -1.
    8880022    1    1    2    0    0  0.21945791885E+03  0.11232341565E+03  0.94197116873E+03  0.98563667930E+03  0.15294330000E+03 0.  0.
<mgrwt>
<rscale>  0 0.56361971E+03</rscale>
<asrwt>0</asrwt>
<pdfrwt beam="1">  1        2 0.22171608E+00 0.70326989E+03</pdfrwt>
<pdfrwt beam="2">  1       -2 0.16168015E+00 0.70326989E+03</pdfrwt>
<totfact> 0.34709581E+00</totfact>
</mgrwt>
</event>
<event>
 4    1  0.8287789E-007  0.1734262E+04  0.7818608E-02  0.8759799E-01
          2   -1    0    0  501    0  0.00000000000E+00  0.00000000000E+00  0.21669345686E+04  0.21669345686E+04  0.25500000000E-02 0. -1.
         -2   -1    0    0    0  501 -0.00000000000E+00 -0.00000000000E+00 -0.13097084663E+04  0.13097084663E+04  0.25500000000E-02 0.  1.
    8880023    1    1    2    0    0  0.15636626219E+04  0.35890526415E+03  0.23953186798E+03  0.17507254228E+04  0.65864270000E+03 0. -1.
    8880022    1    1    2    0    0 -0.15636626219E+04 -0.35890526415E+03  0.61769423431E+03  0.17259176122E+04  0.15294330000E+03 0.  1.
<mgrwt>
<rscale>  0 0.17027470E+04</rscale>
<asrwt>0</asrwt>
<pdfrwt beam="1">  1        2 0.33337455E+00 0.17342618E+04</pdfrwt>
<pdfrwt beam="2">  1       -2 0.20149361E+00 0.17342618E+04</pdfrwt>
<totfact> 0.64352867E-01</totfact>
</mgrwt>
</event>
<event>
 4    1  0.8287789E-007  0.9498378E+03  0.7818608E-02  0.9450348E-01
         -2   -1    0    0    0  501 -0.00000000000E+00  0.00000000000E+00  0.44803271859E+03  0.44803271860E+03  0.25500000000E-02 0.  1.
          2   -1    0    0  501    0  0.00000000000E+00 -0.00000000000E+00 -0.23428836593E+04  0.23428836593E+04  0.25500000000E-02 0. -1.
    8880023    1    1    2    0    0  0.22042610223E+03 -0.64791507600E+03 -0.18603508213E+04  0.20888027664E+04  0.65864270000E+03 0. -1.
    8880022    1    1    2    0    0 -0.22042610223E+03  0.64791507600E+03 -0.34500119429E+02  0.70211361154E+03  0.15294330000E+03 0.  0.
<mgrwt>
<rscale>  0 0.88045608E+03</rscale>
<asrwt>0</asrwt>
<pdfrwt beam="1">  1        2 0.36044363E+00 0.94983779E+03</pdfrwt>
<pdfrwt beam="2">  1       -2 0.68928112E-01 0.94983779E+03</pdfrwt>
<totfact> 0.83609900E+00</totfact>
</mgrwt>
</event>
<event>
 4    1  0.8287789E-007  0.7349283E+03  0.7818608E-02  0.9874975E-01
          2   -1    0    0  501    0  0.00000000000E+00  0.00000000000E+00  0.23837789935E+03  0.23837789936E+03  0.25500000000E-02 0. -1.
         -2   -1    0    0    0  501 -0.00000000000E+00 -0.00000000000E+00 -0.12818924172E+04  0.12818924172E+04  0.25500000000E-02 0.  1.
    8880023    1    1    2    0    0 -0.28632156597E+02 -0.32479164960E+03 -0.59858945247E+03  0.94785492292E+03  0.65864270000E+03 0. -1.
    8880022    1    1    2    0    0  0.28632156597E+02  0.32479164960E+03 -0.44492506534E+03  0.57241539359E+03  0.15294330000E+03 0.  0.
<mgrwt>
<rscale>  0 0.61489601E+03</rscale>
<asrwt>0</asrwt>
<pdfrwt beam="1">  1        2 0.36673524E-01 0.73492831E+03</pdfrwt>
<pdfrwt beam="2">  1       -2 0.19721421E+00 0.73492831E+03</pdfrwt>
<totfact> 0.20039743E+01</totfact>
</mgrwt>
</event>
<event>
 4    1  0.8287789E-007  0.8445277E+03  0.7818608E-02  0.9621701E-01
          2   -1    0    0  501    0  0.00000000000E+00  0.00000000000E+00  0.12024554545E+04  0.12024554545E+04  0.25500000000E-02 0. -1.
         -2   -1    0    0    0  501 -0.00000000000E+00 -0.00000000000E+00 -0.76830743688E+03  0.76830743688E+03  0.25500000000E-02 0.  1.
    8880023    1    1    2    0    0 -0.50697507174E+03  0.14964346919E+03  0.91127508972E+03  0.12424368743E+04  0.65864270000E+03 0. -1.
    8880022    1    1    2    0    0  0.50697507174E+03 -0.14964346919E+03 -0.47712707208E+03  0.72832601709E+03  0.15294330000E+03 0.  0.
<mgrwt>
<rscale>  0 0.75876354E+03</rscale>
<asrwt>0</asrwt>
<pdfrwt beam="1">  1        2 0.18499315E+00 0.84452774E+03</pdfrwt>
<pdfrwt beam="2">  1       -2 0.11820114E+00 0.84452774E+03</pdfrwt>
<totfact> 0.10495083E+01</totfact>
</mgrwt>
</event>
<event>
 4    1  0.8287789E-007  0.7709309E+03  0.7818608E-02  0.9777589E-01
         -2   -1    0    0    0  501 -0.00000000000E+00  0.00000000000E+00  0.20924845659E+03  0.20924845661E+03  0.25500000000E-02 0.  1.
          2   -1    0    0  501    0  0.00000000000E+00 -0.00000000000E+00 -0.25732658675E+04  0.25732658675E+04  0.25500000000E-02 0. -1.
    8880023    1    1    2    0    0 -0.12280578383E+03 -0.38136984148E+03 -0.21863965176E+04  0.23183321925E+04  0.65864270000E+03 0. -1.
    8880022    1    1    2    0    0  0.12280578383E+03  0.38136984148E+03 -0.17762089334E+03  0.46418213160E+03  0.15294330000E+03 0.  0.
<mgrwt>
<rscale>  0 0.66579263E+03</rscale>
<asrwt>0</asrwt>
<pdfrwt beam="1">  1        2 0.39588703E+00 0.77093088E+03</pdfrwt>
<pdfrwt beam="2">  1       -2 0.32192072E-01 0.77093088E+03</pdfrwt>
<totfact> 0.29531153E+01</totfact>
</mgrwt>
</event>
<event>
 4    1  0.1312953E-006  0.6813112E+03  0.7818608E-02  0.1008591E+00
          2   -1    0    0  501    0  0.00000000000E+00  0.00000000000E+00  0.10187577587E+04  0.10187577587E+04  0.25500000000E-02 0. -1.
         -2   -1    0    0    0  501 -0.00000000000E+00 -0.00000000000E+00 -0.19298074766E+04  0.19298074766E+04  0.25500000000E-02 0.  1.
    8880023    1    1    2    0    0  0.36779813204E+02 -0.17035858740E+03  0.89660850853E+03  0.11260958338E+04  0.65864270000E+03 0. -1.
    8880022    1    1    2    0    0 -0.36779813204E+02  0.17035858740E+03 -0.18076582264E+04  0.18224694015E+04  0.15294330000E+03 0.  0.
<mgrwt>
<rscale>  0 0.52038299E+03</rscale>
<asrwt>0</asrwt>
<pdfrwt beam="1">  1        2 0.15673196E+00 0.68131124E+03</pdfrwt>
<pdfrwt beam="2">  1       -2 0.29689346E+00 0.68131124E+03</pdfrwt>
<totfact> 0.86290617E-01</totfact>
</mgrwt>
</event>
<event>
 4    1  0.8287789E-007  0.7099510E+03  0.7818608E-02  0.9958183E-01
          2   -1    0    0  501    0  0.00000000000E+00  0.00000000000E+00  0.85910403765E+03  0.85910403766E+03  0.25500000000E-02 0. -1.
         -2   -1    0    0    0  501 -0.00000000000E+00 -0.00000000000E+00 -0.10411506007E+04  0.10411506007E+04  0.25500000000E-02 0.  1.
    8880023    1    1    2    0    0 -0.97568350188E+02 -0.24637487149E+03  0.68149879930E+03  0.98410923172E+03  0.65864270000E+03 0.  0.
    8880022    1    1    2    0    0  0.97568350188E+02  0.24637487149E+03 -0.86354536233E+03  0.91614540662E+03  0.15294330000E+03 0.  0.
<mgrwt>
<rscale>  0 0.57522479E+03</rscale>
<asrwt>0</asrwt>
<pdfrwt beam="1">  1        2 0.13216985E+00 0.70995096E+03</pdfrwt>
<pdfrwt beam="2">  1       -2 0.16017702E+00 0.70995096E+03</pdfrwt>
<totfact> 0.80331193E+00</totfact>
</mgrwt>
</event>
<event>
 4    1  0.8287789E-007  0.7812300E+03  0.7818608E-02  0.9752956E-01
          2   -1    0    0  501    0  0.00000000000E+00  0.00000000000E+00  0.16009496981E+04  0.16009496981E+04  0.25500000000E-02 0. -1.
         -2   -1    0    0    0  501 -0.00000000000E+00 -0.00000000000E+00 -0.37160351388E+03  0.37160351389E+03  0.25500000000E-02 0.  1.
    8880023    1    1    2    0    0  0.25320299182E+03  0.33525868280E+03  0.13031670464E+04  0.15193961618E+04  0.65864270000E+03 0.  0.
    8880022    1    1    2    0    0 -0.25320299182E+03 -0.33525868280E+03 -0.73820862132E+02  0.45315705021E+03  0.15294330000E+03 0.  0.
<mgrwt>
<rscale>  0 0.67949502E+03</rscale>
<asrwt>0</asrwt>
<pdfrwt beam="1">  1        2 0.24629995E+00 0.78123002E+03</pdfrwt>
<pdfrwt beam="2">  1       -2 0.57169772E-01 0.78123002E+03</pdfrwt>
<totfact> 0.32613729E+01</totfact>
</mgrwt>
</event>
<event>
 4    1  0.8287789E-007  0.7881520E+03  0.7818608E-02  0.9737025E-01
         -2   -1    0    0    0  501 -0.00000000000E+00  0.00000000000E+00  0.39838111578E+04  0.39838111578E+04  0.25500000000E-02 0.  1.
          2   -1    0    0  501    0  0.00000000000E+00 -0.00000000000E+00 -0.23384743933E+03  0.23384743934E+03  0.25500000000E-02 0. -1.
    8880023    1    1    2    0    0  0.42073967078E+03  0.10174241528E+03  0.49549090834E+03  0.93096446557E+03  0.65864270000E+03 0.  0.
    8880022    1    1    2    0    0 -0.42073967078E+03 -0.10174241528E+03  0.32544728101E+04  0.32866941316E+04  0.15294330000E+03 0.  0.
<mgrwt>
<rscale>  0 0.68854498E+03</rscale>
<asrwt>0</asrwt>
<pdfrwt beam="1">  1        2 0.35976530E-01 0.78815201E+03</pdfrwt>
<pdfrwt beam="2">  1       -2 0.61289401E+00 0.78815201E+03</pdfrwt>
<totfact> 0.66641974E-02</totfact>
</mgrwt>
</event>
<event>
 4    1  0.8287789E-007  0.7260156E+03  0.7818608E-02  0.9902733E-01
          2   -1    0    0  501    0  0.00000000000E+00  0.00000000000E+00  0.96349033027E+03  0.96349033027E+03  0.25500000000E-02 0. -1.
         -2   -1    0    0    0  501 -0.00000000000E+00 -0.00000000000E+00 -0.31691182861E+03  0.31691182862E+03  0.25500000000E-02 0.  1.
    8880023    1    1    2    0    0  0.29698761844E+03 -0.71321755829E+02  0.58706389155E+03  0.93367160040E+03  0.65864270000E+03 0. -1.
    8880022    1    1    2    0    0 -0.29698761844E+03  0.71321755829E+02  0.59514610105E+02  0.34673055849E+03  0.15294330000E+03 0.  0.
<mgrwt>
<rscale>  0 0.60129011E+03</rscale>
<asrwt>0</asrwt>
<pdfrwt beam="1">  1        2 0.14822928E+00 0.72601560E+03</pdfrwt>
<pdfrwt beam="2">  1       -2 0.48755667E-01 0.72601560E+03</pdfrwt>
<totfact> 0.10753563E+02</totfact>
</mgrwt>
</event>
<event>
 4    1  0.8287789E-007  0.7789045E+03  0.7818608E-02  0.9758417E-01
          2   -1    0    0  501    0  0.00000000000E+00  0.00000000000E+00  0.74159200767E+03  0.74159200767E+03  0.25500000000E-02 0. -1.
         -2   -1    0    0    0  501 -0.00000000000E+00 -0.00000000000E+00 -0.63647833973E+03  0.63647833973E+03  0.25500000000E-02 0.  1.
    8880023    1    1    2    0    0  0.41148029914E+03  0.59716426204E+02  0.36954927702E+03  0.86212467923E+03  0.65864270000E+03 0. -1.
    8880022    1    1    2    0    0 -0.41148029914E+03 -0.59716426204E+02 -0.26443560908E+03  0.51594566817E+03  0.15294330000E+03 0.  0.
<mgrwt>
<rscale>  0 0.67642703E+03</rscale>
<asrwt>0</asrwt>
<pdfrwt beam="1">  1        2 0.11409108E+00 0.77890455E+03</pdfrwt>
<pdfrwt beam="2">  1       -2 0.97919745E-01 0.77890455E+03</pdfrwt>
<totfact> 0.33401093E+01</totfact>
</mgrwt>
</event>
<event>
 4    1  0.8287789E-007  0.8943253E+03  0.7818608E-02  0.9535203E-01
         -2   -1    0    0    0  501 -0.00000000000E+00  0.00000000000E+00  0.21999317594E+03  0.21999317596E+03  0.25500000000E-02 0.  1.
          2   -1    0    0  501    0  0.00000000000E+00 -0.00000000000E+00 -0.32062995266E+04  0.32062995266E+04  0.25500000000E-02 0. -1.
    8880023    1    1    2    0    0 -0.13019563233E+03  0.59081020469E+03 -0.98721273790E+03  0.13320686156E+04  0.65864270000E+03 0.  0.
    8880022    1    1    2    0    0  0.13019563233E+03 -0.59081020469E+03 -0.19990936128E+04  0.20942240869E+04  0.15294330000E+03 0.  0.
<mgrwt>
<rscale>  0 0.81737442E+03</rscale>
<asrwt>0</asrwt>
<pdfrwt beam="1">  1        2 0.49327682E+00 0.89432534E+03</pdfrwt>
<pdfrwt beam="2">  1       -2 0.33845106E-01 0.89432534E+03</pdfrwt>
<totfact> 0.10949406E+01</totfact>
</mgrwt>
</event>
<event>
 4    1  0.8287789E-007  0.6785585E+03  0.7818608E-02  0.1010151E+00
         -2   -1    0    0    0  501 -0.00000000000E+00  0.00000000000E+00  0.66531211071E+03  0.66531211072E+03  0.25500000000E-02 0.  1.
          2   -1    0    0  501    0  0.00000000000E+00 -0.00000000000E+00 -0.60675509745E+03  0.60675509745E+03  0.25500000000E-02 0. -1.
    8880023    1    1    2    0    0 -0.63554357737E+00 -0.16319005197E+03  0.45492963578E+03  0.81694710768E+03  0.65864270000E+03 0.  1.
    8880022    1    1    2    0    0  0.63554357737E+00  0.16319005197E+03 -0.39637262251E+03  0.45512010049E+03  0.15294330000E+03 0.  0.
<mgrwt>
<rscale>  0 0.51414632E+03</rscale>
<asrwt>0</asrwt>
<pdfrwt beam="1">  1        2 0.93346939E-01 0.67855847E+03</pdfrwt>
<pdfrwt beam="2">  1       -2 0.10235571E+00 0.67855847E+03</pdfrwt>
<totfact> 0.38934870E+01</totfact>
</mgrwt>
</event>
<event>
 4    1  0.8287789E-007  0.6741063E+03  0.7818608E-02  0.1012876E+00
          2   -1    0    0  501    0  0.00000000000E+00  0.00000000000E+00  0.89249359370E+03  0.89249359371E+03  0.25500000000E-02 0. -1.
         -2   -1    0    0    0  501 -0.00000000000E+00 -0.00000000000E+00 -0.68964443498E+03  0.68964443498E+03  0.25500000000E-02 0.  1.
    8880023    1    1    2    0    0 -0.16723089847E+01  0.14354909644E+03  0.74267587387E+03  0.10029889329E+04  0.65864270000E+03 0. -1.
    8880022    1    1    2    0    0  0.16723089847E+01 -0.14354909644E+03 -0.53982671515E+03  0.57914909575E+03  0.15294330000E+03 0.  0.
<mgrwt>
<rscale>  0 0.50347611E+03</rscale>
<asrwt>0</asrwt>
<pdfrwt beam="1">  1        2 0.13730671E+00 0.67410633E+03</pdfrwt>
<pdfrwt beam="2">  1       -2 0.10609914E+00 0.67410633E+03</pdfrwt>
<totfact> 0.21767069E+01</totfact>
</mgrwt>
</event>
<event>
 4    1  0.8287789E-007  0.8978805E+03  0.7818608E-02  0.9529443E-01
          2   -1    0    0  501    0  0.00000000000E+00  0.00000000000E+00  0.88227280123E+03  0.88227280124E+03  0.25500000000E-02 0. -1.
         -2   -1    0    0    0  501 -0.00000000000E+00 -0.00000000000E+00 -0.93227826186E+03  0.93227826186E+03  0.25500000000E-02 0.  1.
    8880023    1    1    2    0    0 -0.46711181698E+03 -0.39266501738E+03  0.45615196263E+03  0.10071067891E+04  0.65864270000E+03 0. -1.
    8880022    1    1    2    0    0  0.46711181698E+03  0.39266501738E+03 -0.50615742325E+03  0.80744427397E+03  0.15294330000E+03 0.  0.
<mgrwt>
<rscale>  0 0.82147510E+03</rscale>
<asrwt>0</asrwt>
<pdfrwt beam="1">  1        2 0.13573428E+00 0.89788054E+03</pdfrwt>
<pdfrwt beam="2">  1       -2 0.14342743E+00 0.89788054E+03</pdfrwt>
<totfact> 0.10175545E+01</totfact>
</mgrwt>
</event>
<event>
 4    1  0.8287789E-007  0.7063109E+03  0.7818608E-02  0.9971964E-01
          2   -1    0    0  501    0  0.00000000000E+00  0.00000000000E+00  0.10061469293E+04  0.10061469293E+04  0.25500000000E-02 0. -1.
         -2   -1    0    0    0  501 -0.00000000000E+00 -0.00000000000E+00 -0.33135795046E+03  0.33135795047E+03  0.25500000000E-02 0.  1.
    8880023    1    1    2    0    0  0.24962116131E+03 -0.52479646028E+02  0.75050877563E+03  0.10306010217E+04  0.65864270000E+03 0.  0.
    8880022    1    1    2    0    0 -0.24962116131E+03  0.52479646028E+02 -0.75719796821E+02  0.30690385802E+03  0.15294330000E+03 0.  0.
<mgrwt>
<rscale>  0 0.56896838E+03</rscale>
<asrwt>0</asrwt>
<pdfrwt beam="1">  1        2 0.15479183E+00 0.70631087E+03</pdfrwt>
<pdfrwt beam="2">  1       -2 0.50978147E-01 0.70631087E+03</pdfrwt>
<totfact> 0.92356773E+01</totfact>
</mgrwt>
</event>
<event>
 4    1  0.8287789E-007  0.1117917E+04  0.7818608E-02  0.9241366E-01
          2   -1    0    0  501    0  0.00000000000E+00  0.00000000000E+00  0.88119173496E+03  0.88119173496E+03  0.25500000000E-02 0. -1.
         -2   -1    0    0    0  501 -0.00000000000E+00 -0.00000000000E+00 -0.32068762242E+04  0.32068762242E+04  0.25500000000E-02 0.  1.
    8880023    1    1    2    0    0  0.53962736728E+03 -0.72438210057E+03  0.41950996349E+03  0.11940376623E+04  0.65864270000E+03 0.  0.
    8880022    1    1    2    0    0 -0.53962736728E+03  0.72438210057E+03 -0.27451944527E+04  0.28940302969E+04  0.15294330000E+03 0.  0.
<mgrwt>
<rscale>  0 0.10636479E+04</rscale>
<asrwt>0</asrwt>
<pdfrwt beam="1">  1        2 0.13556796E+00 0.11179165E+04</pdfrwt>
<pdfrwt beam="2">  1       -2 0.49336557E+00 0.11179165E+04</pdfrwt>
<totfact> 0.54388847E-02</totfact>
</mgrwt>
</event>
<event>
 4    1  0.8287789E-007  0.8834817E+03  0.7818608E-02  0.9553087E-01
          2   -1    0    0  501    0  0.00000000000E+00  0.00000000000E+00  0.72750394670E+03  0.72750394670E+03  0.25500000000E-02 0. -1.
         -2   -1    0    0    0  501 -0.00000000000E+00 -0.00000000000E+00 -0.10759269774E+04  0.10759269774E+04  0.25500000000E-02 0.  1.
    8880023    1    1    2    0    0  0.22090123130E+03  0.54583186841E+03  0.28193417482E+03  0.92737633556E+03  0.65864270000E+03 0.  0.
    8880022    1    1    2    0    0 -0.22090123130E+03 -0.54583186841E+03 -0.63035720555E+03  0.87605458858E+03  0.15294330000E+03 0.  0.
<mgrwt>
<rscale>  0 0.80480602E+03</rscale>
<asrwt>0</asrwt>
<pdfrwt beam="1">  1        2 0.11192368E+00 0.88348174E+03</pdfrwt>
<pdfrwt beam="2">  1       -2 0.16552723E+00 0.88348174E+03</pdfrwt>
<totfact> 0.89758608E+00</totfact>
</mgrwt>
</event>
<event>
 4    1  0.8287789E-007  0.1020734E+04  0.7818608E-02  0.9354920E-01
         -2   -1    0    0    0  501 -0.00000000000E+00  0.00000000000E+00  0.49379595335E+03  0.49379595336E+03  0.25500000000E-02 0.  1.
          2   -1    0    0  501    0  0.00000000000E+00 -0.00000000000E+00 -0.17312317510E+04  0.17312317510E+04  0.25500000000E-02 0. -1.
    8880023    1    1    2    0    0  0.56754537542E+03 -0.53477171554E+03 -0.90311825950E+03  0.13629091451E+04  0.65864270000E+03 0.  1.
    8880022    1    1    2    0    0 -0.56754537542E+03  0.53477171554E+03 -0.33431753817E+03  0.86211855928E+03  0.15294330000E+03 0. -1.
<mgrwt>
<rscale>  0 0.95880333E+03</rscale>
<asrwt>0</asrwt>
<pdfrwt beam="1">  1        2 0.26634334E+00 0.10207344E+04</pdfrwt>
<pdfrwt beam="2">  1       -2 0.75968609E-01 0.10207344E+04</pdfrwt>
<totfact> 0.14583134E+01</totfact>
</mgrwt>
</event>
<event>
 4    1  0.8287789E-007  0.8300564E+03  0.7818608E-02  0.9649223E-01
          2   -1    0    0  501    0  0.00000000000E+00  0.00000000000E+00  0.12951434757E+04  0.12951434757E+04  0.25500000000E-02 0. -1.
         -2   -1    0    0    0  501 -0.00000000000E+00 -0.00000000000E+00 -0.35734811004E+03  0.35734811005E+03  0.25500000000E-02 0.  1.
    8880023    1    1    2    0    0 -0.48914142888E+03 -0.12619098644E+03  0.62408621343E+03  0.10384976218E+04  0.65864270000E+03 0.  0.
    8880022    1    1    2    0    0  0.48914142888E+03  0.12619098644E+03  0.31370915219E+03  0.61399396388E+03  0.15294330000E+03 0.  1.
<mgrwt>
<rscale>  0 0.74122237E+03</rscale>
<asrwt>0</asrwt>
<pdfrwt beam="1">  1        2 0.19925285E+00 0.83005645E+03</pdfrwt>
<pdfrwt beam="2">  1       -2 0.54976632E-01 0.83005645E+03</pdfrwt>
<totfact> 0.52362843E+01</totfact>
</mgrwt>
</event>
<event>
 4    1  0.8452954E-007  0.1003222E+04  0.7818608E-02  0.9377355E-01
         -2   -1    0    0    0  501 -0.00000000000E+00  0.00000000000E+00  0.99911933231E+03  0.99911933231E+03  0.25500000000E-02 0.  1.
          2   -1    0    0  501    0  0.00000000000E+00 -0.00000000000E+00 -0.24032387230E+04  0.24032387230E+04  0.25500000000E-02 0. -1.
    8880023    1    1    2    0    0  0.31644721259E+03 -0.68738958995E+03 -0.21225908498E+04  0.23477319712E+04  0.65864270000E+03 0.  0.
    8880022    1    1    2    0    0 -0.31644721259E+03  0.68738958995E+03  0.71847145910E+03  0.10546260841E+04  0.15294330000E+03 0.  0.
<mgrwt>
<rscale>  0 0.93962942E+03</rscale>
<asrwt>0</asrwt>
<pdfrwt beam="1">  1        2 0.36972903E+00 0.10032216E+04</pdfrwt>
<pdfrwt beam="2">  1       -2 0.15371067E+00 0.10032216E+04</pdfrwt>
<totfact> 0.11151203E+00</totfact>
</mgrwt>
</event>
<event>
 4    1  0.8287789E-007  0.7205178E+03  0.7818608E-02  0.9920838E-01
         -2   -1    0    0    0  501 -0.00000000000E+00  0.00000000000E+00  0.24296573736E+03  0.24296573738E+03  0.25500000000E-02 0.  1.
          2   -1    0    0  501    0  0.00000000000E+00 -0.00000000000E+00 -0.18466901816E+04  0.18466901816E+04  0.25500000000E-02 0. -1.
    8880023    1    1    2    0    0 -0.28913493949E+03 -0.41673898110E+02 -0.16056599636E+04  0.17599118876E+04  0.65864270000E+03 0. -1.
    8880022    1    1    2    0    0  0.28913493949E+03  0.41673898110E+02  0.19355193459E+01  0.32974403143E+03  0.15294330000E+03 0.  0.
<mgrwt>
<rscale>  0 0.59261946E+03</rscale>
<asrwt>0</asrwt>
<pdfrwt beam="1">  1        2 0.28410617E+00 0.72051782E+03</pdfrwt>
<pdfrwt beam="2">  1       -2 0.37379345E-01 0.72051782E+03</pdfrwt>
<totfact> 0.56508071E+01</totfact>
</mgrwt>
</event>
<event>
 4    1  0.8287789E-007  0.8846855E+03  0.7818608E-02  0.9551077E-01
          2   -1    0    0  501    0  0.00000000000E+00  0.00000000000E+00  0.85491363596E+03  0.85491363596E+03  0.25500000000E-02 0. -1.
         -2   -1    0    0    0  501 -0.00000000000E+00 -0.00000000000E+00 -0.65382324358E+03  0.65382324359E+03  0.25500000000E-02 0.  1.
    8880023    1    1    2    0    0  0.59015461163E+03 -0.23995710997E+02  0.10046224866E+03  0.89037134357E+03  0.65864270000E+03 0.  1.
    8880022    1    1    2    0    0 -0.59015461163E+03  0.23995710997E+02  0.10062814371E+03  0.61836553598E+03  0.15294330000E+03 0. -1.
<mgrwt>
<rscale>  0 0.80620598E+03</rscale>
<asrwt>0</asrwt>
<pdfrwt beam="1">  1        2 0.13152517E+00 0.88468552E+03</pdfrwt>
<pdfrwt beam="2">  1       -2 0.10058819E+00 0.88468552E+03</pdfrwt>
<totfact> 0.25727860E+01</totfact>
</mgrwt>
</event>
<event>
 4    1  0.8287789E-007  0.1492996E+04  0.7818608E-02  0.8914597E-01
          2   -1    0    0  501    0  0.00000000000E+00  0.00000000000E+00  0.32220594742E+04  0.32220594742E+04  0.25500000000E-02 0. -1.
         -2   -1    0    0    0  501 -0.00000000000E+00 -0.00000000000E+00 -0.93145471122E+03  0.93145471123E+03  0.25500000000E-02 0.  1.
    8880023    1    1    2    0    0  0.74407738029E+03  0.11142605155E+04 -0.28036817664E+01  0.14929988986E+04  0.65864270000E+03 0.  1.
    8880022    1    1    2    0    0 -0.74407738029E+03 -0.11142605155E+04  0.22934084447E+04  0.26605152869E+04  0.15294330000E+03 0.  0.
<mgrwt>
<rscale>  0 0.14554985E+04</rscale>
<asrwt>0</asrwt>
<pdfrwt beam="1">  1        2 0.49570146E+00 0.14929963E+04</pdfrwt>
<pdfrwt beam="2">  1       -2 0.14330072E+00 0.14929963E+04</pdfrwt>
<totfact> 0.40341680E-01</totfact>
</mgrwt>
</event>
<event>
 4    1  0.8287789E-007  0.7169938E+03  0.7818608E-02  0.9932892E-01
         -2   -1    0    0    0  501 -0.00000000000E+00  0.00000000000E+00  0.23246596759E+03  0.23246596761E+03  0.25500000000E-02 0.  1.
          2   -1    0    0  501    0  0.00000000000E+00 -0.00000000000E+00 -0.19064162913E+04  0.19064162913E+04  0.25500000000E-02 0. -1.
    8880023    1    1    2    0    0  0.26078959302E+03  0.11071889792E+03 -0.16694287729E+04  0.18168853899E+04  0.65864270000E+03 0.  0.
    8880022    1    1    2    0    0 -0.26078959302E+03 -0.11071889792E+03 -0.45215508184E+01  0.32199686896E+03  0.15294330000E+03 0.  0.
<mgrwt>
<rscale>  0 0.58693330E+03</rscale>
<asrwt>0</asrwt>
<pdfrwt beam="1">  1        2 0.29329480E+00 0.71699379E+03</pdfrwt>
<pdfrwt beam="2">  1       -2 0.35763996E-01 0.71699379E+03</pdfrwt>
<totfact> 0.57093215E+01</totfact>
</mgrwt>
</event>
<event>
 4    1  0.8287789E-007  0.7287490E+03  0.7818608E-02  0.9894023E-01
          2   -1    0    0  501    0  0.00000000000E+00  0.00000000000E+00  0.70044648750E+03  0.70044648751E+03  0.25500000000E-02 0. -1.
         -2   -1    0    0    0  501 -0.00000000000E+00 -0.00000000000E+00 -0.46547138371E+03  0.46547138372E+03  0.25500000000E-02 0.  1.
    8880023    1    1    2    0    0  0.26801381530E+03 -0.15947887345E+03  0.33840705710E+03  0.80348892888E+03  0.65864270000E+03 0.  0.
    8880022    1    1    2    0    0 -0.26801381530E+03  0.15947887345E+03 -0.10343195332E+03  0.36242894235E+03  0.15294330000E+03 0.  0.
<mgrwt>
<rscale>  0 0.60551842E+03</rscale>
<asrwt>0</asrwt>
<pdfrwt beam="1">  1        2 0.10776100E+00 0.72874901E+03</pdfrwt>
<pdfrwt beam="2">  1       -2 0.71610983E-01 0.72874901E+03</pdfrwt>
<totfact> 0.73410423E+01</totfact>
</mgrwt>
</event>
<event>
 4    1  0.8287789E-007  0.7306710E+03  0.7818608E-02  0.9888006E-01
          2   -1    0    0  501    0  0.00000000000E+00  0.00000000000E+00  0.19822976647E+04  0.19822976647E+04  0.25500000000E-02 0. -1.
         -2   -1    0    0    0  501 -0.00000000000E+00 -0.00000000000E+00 -0.45991788172E+03  0.45991788173E+03  0.25500000000E-02 0.  1.
    8880023    1    1    2    0    0 -0.31557020312E+03 -0.22031240756E+02  0.18329795313E+04  0.19732445609E+04  0.65864270000E+03 0. -1.
    8880022    1    1    2    0    0  0.31557020312E+03  0.22031240756E+02 -0.31059974828E+03  0.46897098558E+03  0.15294330000E+03 0.  0.
<mgrwt>
<rscale>  0 0.60846120E+03</rscale>
<asrwt>0</asrwt>
<pdfrwt beam="1">  1        2 0.30496888E+00 0.73067102E+03</pdfrwt>
<pdfrwt beam="2">  1       -2 0.70756595E-01 0.73067102E+03</pdfrwt>
<totfact> 0.12875475E+01</totfact>
</mgrwt>
</event>
<event>
 4    1  0.8287789E-007  0.7257829E+03  0.7818608E-02  0.9903483E-01
          2   -1    0    0  501    0  0.00000000000E+00  0.00000000000E+00  0.24131635000E+04  0.24131635000E+04  0.25500000000E-02 0. -1.
         -2   -1    0    0    0  501 -0.00000000000E+00 -0.00000000000E+00 -0.20513678742E+03  0.20513678743E+03  0.25500000000E-02 0.  1.
    8880023    1    1    2    0    0  0.30200392626E+03  0.41764457620E+02  0.21539616246E+04  0.22729521614E+04  0.65864270000E+03 0.  0.
    8880022    1    1    2    0    0 -0.30200392626E+03 -0.41764457620E+02  0.54065087949E+02  0.34534812602E+03  0.15294330000E+03 0.  0.
<mgrwt>
<rscale>  0 0.60092775E+03</rscale>
<asrwt>0</asrwt>
<pdfrwt beam="1">  1        2 0.37125594E+00 0.72578292E+03</pdfrwt>
<pdfrwt beam="2">  1       -2 0.31559505E-01 0.72578292E+03</pdfrwt>
<totfact> 0.38010820E+01</totfact>
</mgrwt>
</event>
<event>
 4    1  0.8287789E-007  0.1435848E+04  0.7818608E-02  0.8956317E-01
         -2   -1    0    0    0  501 -0.00000000000E+00  0.00000000000E+00  0.18861868553E+04  0.18861868553E+04  0.25500000000E-02 0.  1.
          2   -1    0    0  501    0  0.00000000000E+00 -0.00000000000E+00 -0.13483271391E+04  0.13483271391E+04  0.25500000000E-02 0. -1.
    8880023    1    1    2    0    0 -0.68065290210E+02 -0.12740553184E+04 -0.56315147736E+03  0.15423357711E+04  0.65864270000E+03 0.  0.
    8880022    1    1    2    0    0  0.68065290210E+02  0.12740553184E+04  0.11010111936E+04  0.16921782234E+04  0.15294330000E+03 0.  0.
<mgrwt>
<rscale>  0 0.13965540E+04</rscale>
<asrwt>0</asrwt>
<pdfrwt beam="1">  1        2 0.20743495E+00 0.14358482E+04</pdfrwt>
<pdfrwt beam="2">  1       -2 0.29018259E+00 0.14358482E+04</pdfrwt>
<totfact> 0.53652433E-01</totfact>
</mgrwt>
</event>
<event>
 4    1  0.8287789E-007  0.7402625E+03  0.7818608E-02  0.9859183E-01
         -2   -1    0    0    0  501 -0.00000000000E+00  0.00000000000E+00  0.95743446117E+03  0.95743446118E+03  0.25500000000E-02 0.  1.
          2   -1    0    0  501    0  0.00000000000E+00 -0.00000000000E+00 -0.33682701701E+03  0.33682701702E+03  0.25500000000E-02 0. -1.
    8880023    1    1    2    0    0  0.26311380811E+03  0.21201276899E+03  0.28236308714E+03  0.79228619165E+03  0.65864270000E+03 0.  0.
    8880022    1    1    2    0    0 -0.26311380811E+03 -0.21201276899E+03  0.33824435703E+03  0.50197528655E+03  0.15294330000E+03 0.  0.
<mgrwt>
<rscale>  0 0.62280879E+03</rscale>
<asrwt>0</asrwt>
<pdfrwt beam="1">  1        2 0.51819542E-01 0.74026245E+03</pdfrwt>
<pdfrwt beam="2">  1       -2 0.14729761E+00 0.74026245E+03</pdfrwt>
<totfact> 0.30714850E+01</totfact>
</mgrwt>
</event>
<event>
 4    1  0.8287789E-007  0.6996152E+03  0.7818608E-02  0.9998801E-01
          2   -1    0    0  501    0  0.00000000000E+00  0.00000000000E+00  0.96957098726E+03  0.96957098727E+03  0.25500000000E-02 0. -1.
         -2   -1    0    0    0  501 -0.00000000000E+00 -0.00000000000E+00 -0.35121431477E+03  0.35121431478E+03  0.25500000000E-02 0.  1.
    8880023    1    1    2    0    0  0.18007123908E+03 -0.15239932224E+03  0.73650311684E+03  0.10158239276E+04  0.65864270000E+03 0. -1.
    8880022    1    1    2    0    0 -0.18007123908E+03  0.15239932224E+03 -0.11814644434E+03  0.30496137442E+03  0.15294330000E+03 0.  0.
<mgrwt>
<rscale>  0 0.55702829E+03</rscale>
<asrwt>0</asrwt>
<pdfrwt beam="1">  1        2 0.14916477E+00 0.69961519E+03</pdfrwt>
<pdfrwt beam="2">  1       -2 0.54032972E-01 0.69961519E+03</pdfrwt>
<totfact> 0.86541981E+01</totfact>
</mgrwt>
</event>
<event>
 4    1  0.8287789E-007  0.7292044E+03  0.7818608E-02  0.9892589E-01
         -2   -1    0    0    0  501 -0.00000000000E+00  0.00000000000E+00  0.45468669913E+03  0.45468669914E+03  0.25500000000E-02 0.  1.
          2   -1    0    0  501    0  0.00000000000E+00 -0.00000000000E+00 -0.17412808999E+04  0.17412808999E+04  0.25500000000E-02 0. -1.
    8880023    1    1    2    0    0  0.29345687008E+03  0.10868244836E+03 -0.15802529403E+04  0.17403845468E+04  0.65864270000E+03 0. -1.
    8880022    1    1    2    0    0 -0.29345687008E+03 -0.10868244836E+03  0.29365873952E+03  0.45558305224E+03  0.15294330000E+03 0.  0.
<mgrwt>
<rscale>  0 0.60621783E+03</rscale>
<asrwt>0</asrwt>
<pdfrwt beam="1">  1        2 0.26788937E+00 0.72920437E+03</pdfrwt>
<pdfrwt beam="2">  1       -2 0.69951801E-01 0.72920437E+03</pdfrwt>
<totfact> 0.17865343E+01</totfact>
</mgrwt>
</event>
<event>
 4    1  0.8287789E-007  0.8082725E+03  0.7818608E-02  0.9693186E-01
         -2   -1    0    0    0  501 -0.00000000000E+00  0.00000000000E+00  0.61757708271E+03  0.61757708271E+03  0.25500000000E-02 0.  1.
          2   -1    0    0  501    0  0.00000000000E+00 -0.00000000000E+00 -0.11292436253E+04  0.11292436253E+04  0.25500000000E-02 0. -1.
    8880023    1    1    2    0    0 -0.11373759650E+03 -0.45448658659E+03 -0.83125453241E+03  0.11594346045E+04  0.65864270000E+03 0.  0.
    8880022    1    1    2    0    0  0.11373759650E+03  0.45448658659E+03  0.31958798986E+03  0.58738610345E+03  0.15294330000E+03 0.  0.
<mgrwt>
<rscale>  0 0.71423918E+03</rscale>
<asrwt>0</asrwt>
<pdfrwt beam="1">  1        2 0.17372979E+00 0.80827254E+03</pdfrwt>
<pdfrwt beam="2">  1       -2 0.95011859E-01 0.80827254E+03</pdfrwt>
<totfact> 0.19707636E+01</totfact>
</mgrwt>
</event>
<event>
 4    1  0.8287789E-007  0.9408791E+03  0.7818608E-02  0.9463360E-01
         -2   -1    0    0    0  501 -0.00000000000E+00  0.00000000000E+00  0.25522905778E+04  0.25522905778E+04  0.25500000000E-02 0.  1.
          2   -1    0    0  501    0  0.00000000000E+00 -0.00000000000E+00 -0.31188737393E+03  0.31188737394E+03  0.25500000000E-02 0. -1.
    8880023    1    1    2    0    0 -0.96001977717E+02 -0.66500137026E+03  0.68762341684E+03  0.11653666255E+04  0.65864270000E+03 0. -1.
    8880022    1    1    2    0    0  0.96001977717E+02  0.66500137026E+03  0.15527797871E+04  0.16988113263E+04  0.15294330000E+03 0.  1.
<mgrwt>
<rscale>  0 0.87039859E+03</rscale>
<asrwt>0</asrwt>
<pdfrwt beam="1">  1        2 0.47982677E-01 0.94087906E+03</pdfrwt>
<pdfrwt beam="2">  1       -2 0.39266006E+00 0.94087906E+03</pdfrwt>
<totfact> 0.89750903E-01</totfact>
</mgrwt>
</event>
<event>
 4    1  0.8287789E-007  0.6806430E+03  0.7818608E-02  0.1008962E+00
         -2   -1    0    0    0  501 -0.00000000000E+00  0.00000000000E+00  0.31903446260E+03  0.31903446261E+03  0.25500000000E-02 0.  1.
          2   -1    0    0  501    0  0.00000000000E+00 -0.00000000000E+00 -0.11486567661E+04  0.11486567661E+04  0.25500000000E-02 0. -1.
    8880023    1    1    2    0    0  0.17016234020E+03 -0.22571571245E+02 -0.97985024856E+03  0.11930554948E+04  0.65864270000E+03 0. -1.
    8880022    1    1    2    0    0 -0.17016234020E+03  0.22571571245E+02  0.15022794504E+03  0.27463573390E+03  0.15294330000E+03 0.  0.
<mgrwt>
<rscale>  0 0.51889166E+03</rscale>
<asrwt>0</asrwt>
<pdfrwt beam="1">  1        2 0.17671642E+00 0.68064301E+03</pdfrwt>
<pdfrwt beam="2">  1       -2 0.49082225E-01 0.68064301E+03</pdfrwt>
<totfact> 0.81674685E+01</totfact>
</mgrwt>
</event>
<event>
 4    1  0.8287789E-007  0.6799421E+03  0.7818608E-02  0.1009356E+00
         -2   -1    0    0    0  501 -0.00000000000E+00  0.00000000000E+00  0.70330325237E+03  0.70330325238E+03  0.25500000000E-02 0.  1.
          2   -1    0    0  501    0  0.00000000000E+00 -0.00000000000E+00 -0.73170581010E+03  0.73170581010E+03  0.25500000000E-02 0. -1.
    8880023    1    1    2    0    0  0.14543728567E+03  0.85784573388E+02 -0.54435211321E+03  0.87099967079E+03  0.65864270000E+03 0. -1.
    8880022    1    1    2    0    0 -0.14543728567E+03 -0.85784573388E+02  0.51594955548E+03  0.56400939169E+03  0.15294330000E+03 0.  0.
<mgrwt>
<rscale>  0 0.51731208E+03</rscale>
<asrwt>0</asrwt>
<pdfrwt beam="1">  1        2 0.11257012E+00 0.67994206E+03</pdfrwt>
<pdfrwt beam="2">  1       -2 0.10820050E+00 0.67994206E+03</pdfrwt>
<totfact> 0.27013964E+01</totfact>
</mgrwt>
</event>
<event>
 4    1  0.8287789E-007  0.7139449E+03  0.7818608E-02  0.9943634E-01
          2   -1    0    0  501    0  0.00000000000E+00  0.00000000000E+00  0.10904001512E+04  0.10904001512E+04  0.25500000000E-02 0. -1.
         -2   -1    0    0    0  501 -0.00000000000E+00 -0.00000000000E+00 -0.41721449929E+03  0.41721449930E+03  0.25500000000E-02 0.  1.
    8880023    1    1    2    0    0 -0.11848021523E+03  0.24873582798E+03  0.87811266550E+03  0.11317239651E+04  0.65864270000E+03 0.  0.
    8880022    1    1    2    0    0  0.11848021523E+03 -0.24873582798E+03 -0.20492701356E+03  0.37589068547E+03  0.15294330000E+03 0.  0.
<mgrwt>
<rscale>  0 0.58192427E+03</rscale>
<asrwt>0</asrwt>
<pdfrwt beam="1">  1        2 0.16775387E+00 0.71394487E+03</pdfrwt>
<pdfrwt beam="2">  1       -2 0.64186846E-01 0.71394487E+03</pdfrwt>
<totfact> 0.50521572E+01</totfact>
</mgrwt>
</event>
<event>
 4    1  0.8287789E-007  0.7939144E+03  0.7818608E-02  0.9724112E-01
          2   -1    0    0  501    0  0.00000000000E+00  0.00000000000E+00  0.96420203036E+03  0.96420203036E+03  0.25500000000E-02 0. -1.
         -2   -1    0    0    0  501 -0.00000000000E+00 -0.00000000000E+00 -0.78677502498E+03  0.78677502498E+03  0.25500000000E-02 0.  1.
    8880023    1    1    2    0    0 -0.19544608370E+02 -0.44284061830E+03  0.69316567771E+03  0.10539348500E+04  0.65864270000E+03 0. -1.
    8880022    1    1    2    0    0  0.19544608370E+02  0.44284061830E+03 -0.51573867233E+03  0.69704220539E+03  0.15294330000E+03 0.  0.
<mgrwt>
<rscale>  0 0.69599131E+03</rscale>
<asrwt>0</asrwt>
<pdfrwt beam="1">  1        2 0.14833877E+00 0.79391436E+03</pdfrwt>
<pdfrwt beam="2">  1       -2 0.12104231E+00 0.79391436E+03</pdfrwt>
<totfact> 0.13971674E+01</totfact>
</mgrwt>
</event>
<event>
 4    1  0.8287789E-007  0.6962528E+03  0.7818608E-02  0.1001312E+00
         -2   -1    0    0    0  501 -0.00000000000E+00  0.00000000000E+00  0.39420092136E+03  0.39420092137E+03  0.25500000000E-02 0.  1.
          2   -1    0    0  501    0  0.00000000000E+00 -0.00000000000E+00 -0.72059983362E+03  0.72059983362E+03  0.25500000000E-02 0. -1.
    8880023    1    1    2    0    0 -0.22532420879E+03 -0.13667137930E+02 -0.43536379573E+03  0.82116358335E+03  0.65864270000E+03 0. -1.
    8880022    1    1    2    0    0  0.22532420879E+03  0.13667137930E+02  0.10896488348E+03  0.29363717164E+03  0.15294330000E+03 0.  0.
<mgrwt>
<rscale>  0 0.55078860E+03</rscale>
<asrwt>0</asrwt>
<pdfrwt beam="1">  1        2 0.11086151E+00 0.69625282E+03</pdfrwt>
<pdfrwt beam="2">  1       -2 0.60646296E-01 0.69625282E+03</pdfrwt>
<totfact> 0.10151320E+02</totfact>
</mgrwt>
</event>
<event>
 4    1  0.8287789E-007  0.7537706E+03  0.7818608E-02  0.9821510E-01
          2   -1    0    0  501    0  0.00000000000E+00  0.00000000000E+00  0.18019762469E+04  0.18019762469E+04  0.25500000000E-02 0. -1.
         -2   -1    0    0    0  501 -0.00000000000E+00 -0.00000000000E+00 -0.47493486160E+03  0.47493486161E+03  0.25500000000E-02 0.  1.
    8880023    1    1    2    0    0  0.22998490854E+03  0.28542400139E+03  0.16177313734E+04  0.17847198440E+04  0.65864270000E+03 0. -1.
    8880022    1    1    2    0    0 -0.22998490854E+03 -0.28542400139E+03 -0.29068998808E+03  0.49219126456E+03  0.15294330000E+03 0.  0.
<mgrwt>
<rscale>  0 0.64220859E+03</rscale>
<asrwt>0</asrwt>
<pdfrwt beam="1">  1        2 0.27722712E+00 0.75377061E+03</pdfrwt>
<pdfrwt beam="2">  1       -2 0.73066902E-01 0.75377061E+03</pdfrwt>
<totfact> 0.14995317E+01</totfact>
</mgrwt>
</event>
<event>
 4    1  0.8287789E-007  0.7346785E+03  0.7818608E-02  0.9875728E-01
          2   -1    0    0  501    0  0.00000000000E+00  0.00000000000E+00  0.17960791092E+04  0.17960791092E+04  0.25500000000E-02 0. -1.
         -2   -1    0    0    0  501 -0.00000000000E+00 -0.00000000000E+00 -0.69391532508E+03  0.69391532509E+03  0.25500000000E-02 0.  1.
    8880023    1    1    2    0    0 -0.26494845779E+03  0.18906261958E+03  0.16662454575E+04  0.18210234733E+04  0.65864270000E+03 0. -1.
    8880022    1    1    2    0    0  0.26494845779E+03 -0.18906261958E+03 -0.56408167337E+03  0.66897096100E+03  0.15294330000E+03 0.  0.
<mgrwt>
<rscale>  0 0.61452154E+03</rscale>
<asrwt>0</asrwt>
<pdfrwt beam="1">  1        2 0.27631986E+00 0.73467855E+03</pdfrwt>
<pdfrwt beam="2">  1       -2 0.10675621E+00 0.73467855E+03</pdfrwt>
<totfact> 0.63309863E+00</totfact>
</mgrwt>
</event>
<event>
 4    1  0.8287789E-007  0.6768858E+03  0.7818608E-02  0.1011143E+00
         -2   -1    0    0    0  501 -0.00000000000E+00  0.00000000000E+00  0.87281910102E+02  0.87281910139E+02  0.25500000000E-02 0.  1.
          2   -1    0    0  501    0  0.00000000000E+00 -0.00000000000E+00 -0.23123529194E+04  0.23123529194E+04  0.25500000000E-02 0. -1.
    8880023    1    1    2    0    0 -0.13530186948E+03  0.77830740454E+02 -0.15926807711E+04  0.17305509137E+04  0.65864270000E+03 0. -1.
    8880022    1    1    2    0    0  0.13530186948E+03 -0.77830740454E+02 -0.63239023820E+03  0.66908391583E+03  0.15294330000E+03 0.  0.
<mgrwt>
<rscale>  0 0.51022874E+03</rscale>
<asrwt>0</asrwt>
<pdfrwt beam="1">  1        2 0.35574656E+00 0.67688583E+03</pdfrwt>
<pdfrwt beam="2">  1       -2 0.13427988E-01 0.67688583E+03</pdfrwt>
<totfact> 0.19581547E+02</totfact>
</mgrwt>
</event>
<event>
 4    1  0.8287789E-007  0.7149809E+03  0.7818608E-02  0.9939950E-01
         -2   -1    0    0    0  501 -0.00000000000E+00  0.00000000000E+00  0.36713190184E+03  0.36713190185E+03  0.25500000000E-02 0.  1.
          2   -1    0    0  501    0  0.00000000000E+00 -0.00000000000E+00 -0.19713370449E+04  0.19713370449E+04  0.25500000000E-02 0. -1.
    8880023    1    1    2    0    0  0.23503026620E+03 -0.14882280513E+03 -0.12162896408E+02  0.71508432766E+03  0.65864270000E+03 0.  1.
    8880022    1    1    2    0    0 -0.23503026620E+03  0.14882280513E+03 -0.15920422466E+04  0.16233846190E+04  0.15294330000E+03 0.  0.
<mgrwt>
<rscale>  0 0.58363608E+03</rscale>
<asrwt>0</asrwt>
<pdfrwt beam="1">  1        2 0.30328262E+00 0.71498088E+03</pdfrwt>
<pdfrwt beam="2">  1       -2 0.56481832E-01 0.71498088E+03</pdfrwt>
<totfact> 0.21165962E+01</totfact>
</mgrwt>
</event>
<event>
 4    1  0.8287789E-007  0.7093136E+03  0.7818608E-02  0.9960559E-01
          2   -1    0    0  501    0  0.00000000000E+00  0.00000000000E+00  0.12351074253E+04  0.12351074253E+04  0.25500000000E-02 0. -1.
         -2   -1    0    0    0  501 -0.00000000000E+00 -0.00000000000E+00 -0.51848821061E+03  0.51848821061E+03  0.25500000000E-02 0.  1.
    8880023    1    1    2    0    0  0.10360096421E+02  0.26307451439E+03  0.10721232549E+04  0.12855248001E+04  0.65864270000E+03 0. -1.
    8880022    1    1    2    0    0 -0.10360096421E+02 -0.26307451439E+03 -0.35550404021E+03  0.46807083581E+03  0.15294330000E+03 0.  0.
<mgrwt>
<rscale>  0 0.57414009E+03</rscale>
<asrwt>0</asrwt>
<pdfrwt beam="1">  1        2 0.19001653E+00 0.70931357E+03</pdfrwt>
<pdfrwt beam="2">  1       -2 0.79767417E-01 0.70931357E+03</pdfrwt>
<totfact> 0.25717348E+01</totfact>
</mgrwt>
</event>
<event>
 4    1  0.8287789E-007  0.6968598E+03  0.7818608E-02  0.1001049E+00
          2   -1    0    0  501    0  0.00000000000E+00  0.00000000000E+00  0.20315704316E+03  0.20315704318E+03  0.25500000000E-02 0. -1.
         -2   -1    0    0    0  501 -0.00000000000E+00 -0.00000000000E+00 -0.13377923103E+04  0.13377923103E+04  0.25500000000E-02 0.  1.
    8880023    1    1    2    0    0 -0.14566607381E+03  0.17488490529E+03 -0.52502903153E+03  0.87250732110E+03  0.65864270000E+03 0. -1.
    8880022    1    1    2    0    0  0.14566607381E+03 -0.17488490529E+03 -0.60960623563E+03  0.66844203241E+03  0.15294330000E+03 0.  0.
<mgrwt>
<rscale>  0 0.55192829E+03</rscale>
<asrwt>0</asrwt>
<pdfrwt beam="1">  1        2 0.31254930E-01 0.69685977E+03</pdfrwt>
<pdfrwt beam="2">  1       -2 0.20581420E+00 0.69685977E+03</pdfrwt>
<totfact> 0.21159551E+01</totfact>
</mgrwt>
</event>
<event>
 4    1  0.8287789E-007  0.6814690E+03  0.7818608E-02  0.1008505E+00
         -2   -1    0    0    0  501 -0.00000000000E+00  0.00000000000E+00  0.35951822810E+03  0.35951822811E+03  0.25500000000E-02 0.  1.
          2   -1    0    0  501    0  0.00000000000E+00 -0.00000000000E+00 -0.12294806290E+04  0.12294806290E+04  0.25500000000E-02 0. -1.
    8880023    1    1    2    0    0  0.15815708993E+03 -0.74673081662E+02 -0.10791860108E+04  0.12763394480E+04  0.65864270000E+03 0. -1.
    8880022    1    1    2    0    0 -0.15815708993E+03  0.74673081662E+02  0.20922360986E+03  0.31265940920E+03  0.15294330000E+03 0.  0.
<mgrwt>
<rscale>  0 0.52073296E+03</rscale>
<asrwt>0</asrwt>
<pdfrwt beam="1">  1        2 0.18915086E+00 0.68146896E+03</pdfrwt>
<pdfrwt beam="2">  1       -2 0.55310497E-01 0.68146896E+03</pdfrwt>
<totfact> 0.57261718E+01</totfact>
</mgrwt>
</event>
<event>
 4    1  0.8287789E-007  0.7580171E+03  0.7818608E-02  0.9810268E-01
          2   -1    0    0  501    0  0.00000000000E+00  0.00000000000E+00  0.24069442909E+04  0.24069442909E+04  0.25500000000E-02 0. -1.
         -2   -1    0    0    0  501 -0.00000000000E+00 -0.00000000000E+00 -0.24519700162E+03  0.24519700164E+03  0.25500000000E-02 0.  1.
    8880023    1    1    2    0    0 -0.32544544040E+03 -0.18672159648E+03  0.21120094538E+04  0.22439193008E+04  0.65864270000E+03 0. -1.
    8880022    1    1    2    0    0  0.32544544040E+03  0.18672159648E+03  0.49737835507E+02  0.40822199177E+03  0.15294330000E+03 0.  0.
<mgrwt>
<rscale>  0 0.64814386E+03</rscale>
<asrwt>0</asrwt>
<pdfrwt beam="1">  1        2 0.37029911E+00 0.75801708E+03</pdfrwt>
<pdfrwt beam="2">  1       -2 0.37722617E-01 0.75801708E+03</pdfrwt>
<totfact> 0.27180536E+01</totfact>
</mgrwt>
</event>
<event>
 4    1  0.8287789E-007  0.6842818E+03  0.7818608E-02  0.1006998E+00
         -2   -1    0    0    0  501 -0.00000000000E+00  0.00000000000E+00  0.11236799753E+04  0.11236799753E+04  0.25500000000E-02 0.  1.
          2   -1    0    0  501    0  0.00000000000E+00 -0.00000000000E+00 -0.63239966875E+03  0.63239966875E+03  0.25500000000E-02 0. -1.
    8880023    1    1    2    0    0 -0.16050713514E+03  0.93106679893E+02 -0.42717192056E+03  0.80667059588E+03  0.65864270000E+03 0. -1.
    8880022    1    1    2    0    0  0.16050713514E+03 -0.93106679893E+02  0.91845222715E+03  0.94940904822E+03  0.15294330000E+03 0.  0.
<mgrwt>
<rscale>  0 0.52685229E+03</rscale>
<asrwt>0</asrwt>
<pdfrwt beam="1">  1        2 0.97292257E-01 0.68428181E+03</pdfrwt>
<pdfrwt beam="2">  1       -2 0.17287384E+00 0.68428181E+03</pdfrwt>
<totfact> 0.96906478E+00</totfact>
</mgrwt>
</event>
<event>
 4    1  0.8287789E-007  0.9881232E+03  0.7818608E-02  0.9397264E-01
         -2   -1    0    0    0  501 -0.00000000000E+00  0.00000000000E+00  0.63416159008E+03  0.63416159009E+03  0.25500000000E-02 0.  1.
          2   -1    0    0  501    0  0.00000000000E+00 -0.00000000000E+00 -0.11964424089E+04  0.11964424089E+04  0.25500000000E-02 0. -1.
    8880023    1    1    2    0    0 -0.53726122329E+03  0.50391230208E+03 -0.27935419423E+03  0.10268525709E+04  0.65864270000E+03 0.  1.
    8880022    1    1    2    0    0  0.53726122329E+03 -0.50391230208E+03 -0.28292662457E+03  0.80375142809E+03  0.15294330000E+03 0. -1.
<mgrwt>
<rscale>  0 0.92301209E+03</rscale>
<asrwt>0</asrwt>
<pdfrwt beam="1">  1        2 0.18406806E+00 0.98812319E+03</pdfrwt>
<pdfrwt beam="2">  1       -2 0.97563322E-01 0.98812319E+03</pdfrwt>
<totfact> 0.16587901E+01</totfact>
</mgrwt>
</event>
<event>
 4    1  0.8287789E-007  0.7878098E+03  0.7818608E-02  0.9737801E-01
         -2   -1    0    0    0  501 -0.00000000000E+00  0.00000000000E+00  0.17613151709E+03  0.17613151711E+03  0.25500000000E-02 0.  1.
          2   -1    0    0  501    0  0.00000000000E+00 -0.00000000000E+00 -0.27904693757E+04  0.27904693757E+04  0.25500000000E-02 0. -1.
    8880023    1    1    2    0    0 -0.16227760425E+02  0.43193834100E+03 -0.22406251754E+04  0.23750885148E+04  0.65864270000E+03 0.  0.
    8880022    1    1    2    0    0  0.16227760425E+02 -0.43193834100E+03 -0.37371268323E+03  0.59151237793E+03  0.15294330000E+03 0.  0.
<mgrwt>
<rscale>  0 0.68810033E+03</rscale>
<asrwt>0</asrwt>
<pdfrwt beam="1">  1        2 0.42930295E+00 0.78780980E+03</pdfrwt>
<pdfrwt beam="2">  1       -2 0.27097158E-01 0.78780980E+03</pdfrwt>
<totfact> 0.30310486E+01</totfact>
</mgrwt>
</event>
<event>
 4    1  0.8287789E-007  0.7916527E+03  0.7818608E-02  0.9729144E-01
          2   -1    0    0  501    0  0.00000000000E+00  0.00000000000E+00  0.13116081547E+04  0.13116081547E+04  0.25500000000E-02 0. -1.
         -2   -1    0    0    0  501 -0.00000000000E+00 -0.00000000000E+00 -0.32925967449E+03  0.32925967450E+03  0.25500000000E-02 0.  1.
    8880023    1    1    2    0    0  0.32815691673E+02 -0.43798048820E+03  0.84054155113E+03  0.11546532307E+04  0.65864270000E+03 0. -1.
    8880022    1    1    2    0    0 -0.32815691673E+02  0.43798048820E+03  0.14180692905E+03  0.48621459851E+03  0.15294330000E+03 0.  0.
<mgrwt>
<rscale>  0 0.69307772E+03</rscale>
<asrwt>0</asrwt>
<pdfrwt beam="1">  1        2 0.20178587E+00 0.79165269E+03</pdfrwt>
<pdfrwt beam="2">  1       -2 0.50655335E-01 0.79165269E+03</pdfrwt>
<totfact> 0.60845466E+01</totfact>
</mgrwt>
</event>
<event>
 4    1  0.8287789E-007  0.8142428E+03  0.7818608E-02  0.9680806E-01
         -2   -1    0    0    0  501 -0.00000000000E+00  0.00000000000E+00  0.19140017703E+03  0.19140017705E+03  0.25500000000E-02 0.  1.
          2   -1    0    0  501    0  0.00000000000E+00 -0.00000000000E+00 -0.26012905566E+04  0.26012905566E+04  0.25500000000E-02 0. -1.
    8880023    1    1    2    0    0  0.47707184009E+03  0.39795337611E+02 -0.19430172436E+04  0.21067290819E+04  0.65864270000E+03 0. -1.
    8880022    1    1    2    0    0 -0.47707184009E+03 -0.39795337611E+02 -0.46687313597E+03  0.68596165170E+03  0.15294330000E+03 0.  0.
<mgrwt>
<rscale>  0 0.72171179E+03</rscale>
<asrwt>0</asrwt>
<pdfrwt beam="1">  1        2 0.40019852E+00 0.81424285E+03</pdfrwt>
<pdfrwt beam="2">  1       -2 0.29446183E-01 0.81424285E+03</pdfrwt>
<totfact> 0.33408165E+01</totfact>
</mgrwt>
</event>
<event>
 4    1  0.8287789E-007  0.1050383E+04  0.7818608E-02  0.9318421E-01
         -2   -1    0    0    0  501 -0.00000000000E+00  0.00000000000E+00  0.31245403899E+03  0.31245403900E+03  0.25500000000E-02 0.  1.
          2   -1    0    0  501    0  0.00000000000E+00 -0.00000000000E+00 -0.28411315873E+04  0.28411315873E+04  0.25500000000E-02 0. -1.
    8880023    1    1    2    0    0  0.81191505053E+03  0.10143410272E+03 -0.14749950339E+04  0.18107775906E+04  0.65864270000E+03 0. -1.
    8880022    1    1    2    0    0 -0.81191505053E+03 -0.10143410272E+03 -0.10536825144E+04  0.13428080357E+04  0.15294330000E+03 0.  1.
<mgrwt>
<rscale>  0 0.99104559E+03</rscale>
<asrwt>0</asrwt>
<pdfrwt beam="1">  1        2 0.43709715E+00 0.10503833E+04</pdfrwt>
<pdfrwt beam="2">  1       -2 0.48069854E-01 0.10503833E+04</pdfrwt>
<totfact> 0.90651654E+00</totfact>
</mgrwt>
</event>
<event>
 4    1  0.8287789E-007  0.6675807E+03  0.7818608E-02  0.1017460E+00
         -2   -1    0    0    0  501 -0.00000000000E+00  0.00000000000E+00  0.13731123006E+04  0.13731123006E+04  0.25500000000E-02 0.  1.
          2   -1    0    0  501    0  0.00000000000E+00 -0.00000000000E+00 -0.94843656526E+03  0.94843656526E+03  0.25500000000E-02 0. -1.
    8880023    1    1    2    0    0  0.10871638677E+03 -0.58778976401E+01 -0.82306462551E+03  0.10597638352E+04  0.65864270000E+03 0. -1.
    8880022    1    1    2    0    0 -0.10871638677E+03  0.58778976401E+01  0.12477403608E+04  0.12617850306E+04  0.15294330000E+03 0.  0.
<mgrwt>
<rscale>  0 0.48614489E+03</rscale>
<asrwt>0</asrwt>
<pdfrwt beam="1">  1        2 0.14591332E+00 0.66758071E+03</pdfrwt>
<pdfrwt beam="2">  1       -2 0.21124805E+00 0.66758071E+03</pdfrwt>
<totfact> 0.31783611E+00</totfact>
</mgrwt>
</event>
<event>
 4    1  0.8287789E-007  0.7358198E+03  0.7818608E-02  0.9872295E-01
         -2   -1    0    0    0  501 -0.00000000000E+00  0.00000000000E+00  0.47664652598E+03  0.47664652598E+03  0.25500000000E-02 0.  1.
          2   -1    0    0  501    0  0.00000000000E+00 -0.00000000000E+00 -0.73176001058E+03  0.73176001058E+03  0.25500000000E-02 0. -1.
    8880023    1    1    2    0    0 -0.32803534580E+03 -0.36498250945E+01 -0.37661588102E+03  0.82660161954E+03  0.65864270000E+03 0. -1.
    8880022    1    1    2    0    0  0.32803534580E+03  0.36498250945E+01  0.12150239642E+03  0.38180491703E+03  0.15294330000E+03 0.  0.
<mgrwt>
<rscale>  0 0.61622957E+03</rscale>
<asrwt>0</asrwt>
<pdfrwt beam="1">  1        2 0.11257846E+00 0.73581976E+03</pdfrwt>
<pdfrwt beam="2">  1       -2 0.73330235E-01 0.73581976E+03</pdfrwt>
<totfact> 0.65877542E+01</totfact>
</mgrwt>
</event>
<event>
 4    1  0.8287789E-007  0.6694147E+03  0.7818608E-02  0.1016086E+00
         -2   -1    0    0    0  501 -0.00000000000E+00  0.00000000000E+00  0.28859159697E+03  0.28859159698E+03  0.25500000000E-02 0.  1.
          2   -1    0    0  501    0  0.00000000000E+00 -0.00000000000E+00 -0.35442960760E+04  0.35442960760E+04  0.25500000000E-02 0. -1.
    8880023    1    1    2    0    0  0.94486071698E+02  0.73335939230E+02 -0.34756366125E+04  0.35395149168E+04  0.65864270000E+03 0. -1.
    8880022    1    1    2    0    0 -0.94486071698E+02 -0.73335939230E+02  0.21993213347E+03  0.29337275619E+03  0.15294330000E+03 0.  0.
<mgrwt>
<rscale>  0 0.49125884E+03</rscale>
<asrwt>0</asrwt>
<pdfrwt beam="1">  1        2 0.54527629E+00 0.66941466E+03</pdfrwt>
<pdfrwt beam="2">  1       -2 0.44398710E-01 0.66941466E+03</pdfrwt>
<totfact> 0.40283335E+00</totfact>
</mgrwt>
</event>
<event>
 4    1  0.8508422E-007  0.6833345E+03  0.7818608E-02  0.1007497E+00
         -2   -1    0    0    0  501 -0.00000000000E+00  0.00000000000E+00  0.56788048493E+03  0.56788048494E+03  0.25500000000E-02 0.  1.
          2   -1    0    0  501    0  0.00000000000E+00 -0.00000000000E+00 -0.35738443941E+04  0.35738443941E+04  0.25500000000E-02 0. -1.
    8880023    1    1    2    0    0  0.16501974310E+03  0.76839835349E+02 -0.35145209683E+04  0.35803356992E+04  0.65864270000E+03 0. -1.
    8880022    1    1    2    0    0 -0.16501974310E+03 -0.76839835349E+02  0.50855705911E+03  0.56138917989E+03  0.15294330000E+03 0.  0.
<mgrwt>
<rscale>  0 0.52481655E+03</rscale>
<asrwt>0</asrwt>
<pdfrwt beam="1">  1        2 0.54982220E+00 0.68333453E+03</pdfrwt>
<pdfrwt beam="2">  1       -2 0.87366231E-01 0.68333453E+03</pdfrwt>
<totfact> 0.90592271E-01</totfact>
</mgrwt>
</event>
<event>
 4    1  0.8287789E-007  0.1140888E+04  0.7818608E-02  0.9216842E-01
          2   -1    0    0  501    0  0.00000000000E+00  0.00000000000E+00  0.10111819035E+04  0.10111819035E+04  0.25500000000E-02 0. -1.
         -2   -1    0    0    0  501 -0.00000000000E+00 -0.00000000000E+00 -0.15418335982E+04  0.15418335982E+04  0.25500000000E-02 0.  1.
    8880023    1    1    2    0    0 -0.87941177176E+03 -0.30732897571E+03  0.41764488698E+03  0.12149294718E+04  0.65864270000E+03 0. -1.
    8880022    1    1    2    0    0  0.87941177176E+03  0.30732897571E+03 -0.94829658169E+03  0.13380860299E+04  0.15294330000E+03 0.  0.
<mgrwt>
<rscale>  0 0.10881274E+04</rscale>
<asrwt>0</asrwt>
<pdfrwt beam="1">  1        2 0.15556645E+00 0.11408884E+04</pdfrwt>
<pdfrwt beam="2">  1       -2 0.23720517E+00 0.11408884E+04</pdfrwt>
<totfact> 0.18707529E+00</totfact>
</mgrwt>
</event>
<event>
 4    1  0.8287789E-007  0.6876536E+03  0.7818608E-02  0.1005288E+00
          2   -1    0    0  501    0  0.00000000000E+00  0.00000000000E+00  0.51544968317E+03  0.51544968318E+03  0.25500000000E-02 0. -1.
         -2   -1    0    0    0  501 -0.00000000000E+00 -0.00000000000E+00 -0.43714781532E+03  0.43714781533E+03  0.25500000000E-02 0.  1.
    8880023    1    1    2    0    0 -0.89174708841E+02 -0.17636638771E+03 -0.95134721019E+01  0.68771937869E+03  0.65864270000E+03 0. -1.
    8880022    1    1    2    0    0  0.89174708841E+02  0.17636638771E+03  0.87815339953E+02  0.26487811982E+03  0.15294330000E+03 0.  0.
<mgrwt>
<rscale>  0 0.53390976E+03</rscale>
<asrwt>0</asrwt>
<pdfrwt beam="1">  1        2 0.79299952E-01 0.68765357E+03</pdfrwt>
<pdfrwt beam="2">  1       -2 0.67253510E-01 0.68765357E+03</pdfrwt>
<totfact> 0.12222610E+02</totfact>
</mgrwt>
</event>
<event>
 4    1  0.8287789E-007  0.6934626E+03  0.7818608E-02  0.1002548E+00
         -2   -1    0    0    0  501 -0.00000000000E+00  0.00000000000E+00  0.23493571026E+03  0.23493571028E+03  0.25500000000E-02 0.  1.
          2   -1    0    0  501    0  0.00000000000E+00 -0.00000000000E+00 -0.41093849252E+04  0.41093849252E+04  0.25500000000E-02 0. -1.
    8880023    1    1    2    0    0  0.97976905670E+02 -0.19359934543E+03 -0.39935865174E+04  0.40533472166E+04  0.65864270000E+03 0. -1.
    8880022    1    1    2    0    0 -0.97976905670E+02  0.19359934543E+03  0.11913730247E+03  0.29097341880E+03  0.15294330000E+03 0.  0.
<mgrwt>
<rscale>  0 0.54546794E+03</rscale>
<asrwt>0</asrwt>
<pdfrwt beam="1">  1        2 0.63221301E+00 0.69346261E+03</pdfrwt>
<pdfrwt beam="2">  1       -2 0.36143958E-01 0.69346261E+03</pdfrwt>
<totfact> 0.22611598E+00</totfact>
</mgrwt>
</event>
<event>
 4    1  0.8287789E-007  0.1002143E+04  0.7818608E-02  0.9378759E-01
          2   -1    0    0  501    0  0.00000000000E+00  0.00000000000E+00  0.64344571278E+03  0.64344571278E+03  0.25500000000E-02 0. -1.
         -2   -1    0    0    0  501 -0.00000000000E+00 -0.00000000000E+00 -0.12683485117E+04  0.12683485117E+04  0.25500000000E-02 0.  1.
    8880023    1    1    2    0    0 -0.19343287719E+03 -0.73011236534E+03 -0.16866968482E+03  0.10162381674E+04  0.65864270000E+03 0.  0.
    8880022    1    1    2    0    0  0.19343287719E+03  0.73011236534E+03 -0.45623311410E+03  0.89555605711E+03  0.15294330000E+03 0. -1.
<mgrwt>
<rscale>  0 0.93844510E+03</rscale>
<asrwt>0</asrwt>
<pdfrwt beam="1">  1        2 0.98991649E-01 0.10021430E+04</pdfrwt>
<pdfrwt beam="2">  1       -2 0.19513054E+00 0.10021430E+04</pdfrwt>
<totfact> 0.64789635E+00</totfact>
</mgrwt>
</event>
<event>
 4    1  0.8287789E-007  0.8817747E+03  0.7818608E-02  0.9555946E-01
         -2   -1    0    0    0  501 -0.00000000000E+00  0.00000000000E+00  0.63554957151E+03  0.63554957152E+03  0.25500000000E-02 0.  1.
          2   -1    0    0  501    0  0.00000000000E+00 -0.00000000000E+00 -0.30233629018E+04  0.30233629018E+04  0.25500000000E-02 0. -1.
    8880023    1    1    2    0    0  0.52578028089E+03  0.25936744653E+03 -0.27937507779E+04  0.29296023606E+04  0.65864270000E+03 0. -1.
    8880022    1    1    2    0    0 -0.52578028089E+03 -0.25936744653E+03  0.40593744761E+03  0.72931011269E+03  0.15294330000E+03 0.  0.
<mgrwt>
<rscale>  0 0.80281865E+03</rscale>
<asrwt>0</asrwt>
<pdfrwt beam="1">  1        2 0.46513275E+00 0.88177468E+03</pdfrwt>
<pdfrwt beam="2">  1       -2 0.97776859E-01 0.88177468E+03</pdfrwt>
<totfact> 0.15263396E+00</totfact>
</mgrwt>
</event>
<event>
 4    1  0.8287789E-007  0.6938833E+03  0.7818608E-02  0.1002359E+00
         -2   -1    0    0    0  501 -0.00000000000E+00  0.00000000000E+00  0.90897830848E+03  0.90897830849E+03  0.25500000000E-02 0.  1.
          2   -1    0    0  501    0  0.00000000000E+00 -0.00000000000E+00 -0.13122141742E+04  0.13122141742E+04  0.25500000000E-02 0. -1.
    8880023    1    1    2    0    0  0.75956646225E+02 -0.20468139282E+03 -0.11971593736E+04  0.13837140806E+04  0.65864270000E+03 0. -1.
    8880022    1    1    2    0    0 -0.75956646225E+02  0.20468139282E+03  0.79392350788E+03  0.83747840214E+03  0.15294330000E+03 0.  0.
<mgrwt>
<rscale>  0 0.54627910E+03</rscale>
<asrwt>0</asrwt>
<pdfrwt beam="1">  1        2 0.20187910E+00 0.69388334E+03</pdfrwt>
<pdfrwt beam="2">  1       -2 0.13984282E+00 0.69388334E+03</pdfrwt>
<totfact> 0.60391986E+00</totfact>
</mgrwt>
</event>
<event>
 4    1  0.8287789E-007  0.7848903E+03  0.7818608E-02  0.9744473E-01
          2   -1    0    0  501    0  0.00000000000E+00  0.00000000000E+00  0.16230075548E+04  0.16230075548E+04  0.25500000000E-02 0. -1.
         -2   -1    0    0    0  501 -0.00000000000E+00 -0.00000000000E+00 -0.27804929760E+03  0.27804929761E+03  0.25500000000E-02 0.  1.
    8880023    1    1    2    0    0 -0.32326326986E+03 -0.27882498511E+03  0.11826694295E+04  0.14194223120E+04  0.65864270000E+03 0.  0.
    8880022    1    1    2    0    0  0.32326326986E+03  0.27882498511E+03  0.16228882772E+03  0.48163454048E+03  0.15294330000E+03 0.  0.
<mgrwt>
<rscale>  0 0.68429539E+03</rscale>
<asrwt>0</asrwt>
<pdfrwt beam="1">  1        2 0.24969346E+00 0.78489026E+03</pdfrwt>
<pdfrwt beam="2">  1       -2 0.42776816E-01 0.78489026E+03</pdfrwt>
<totfact> 0.57168960E+01</totfact>
</mgrwt>
</event>
<event>
 4    1  0.8287789E-007  0.9611858E+03  0.7818608E-02  0.9434200E-01
         -2   -1    0    0    0  501 -0.00000000000E+00  0.00000000000E+00  0.26621386228E+03  0.26621386230E+03  0.25500000000E-02 0.  1.
          2   -1    0    0  501    0  0.00000000000E+00 -0.00000000000E+00 -0.32164039349E+04  0.32164039349E+04  0.25500000000E-02 0. -1.
    8880023    1    1    2    0    0 -0.66914435710E+03 -0.20570293697E+03 -0.23803793226E+04  0.25671158514E+04  0.65864270000E+03 0. -1.
    8880022    1    1    2    0    0  0.66914435710E+03  0.20570293697E+03 -0.56981075010E+03  0.91550194585E+03  0.15294330000E+03 0.  0.
<mgrwt>
<rscale>  0 0.89313843E+03</rscale>
<asrwt>0</asrwt>
<pdfrwt beam="1">  1        2 0.49483135E+00 0.96118577E+03</pdfrwt>
<pdfrwt beam="2">  1       -2 0.40955981E-01 0.96118577E+03</pdfrwt>
<totfact> 0.73894835E+00</totfact>
</mgrwt>
</event>
<event>
 4    1  0.8287789E-007  0.1563039E+04  0.7818608E-02  0.8866359E-01
         -2   -1    0    0    0  501 -0.00000000000E+00  0.00000000000E+00  0.35253092586E+04  0.35253092586E+04  0.25500000000E-02 0.  1.
          2   -1    0    0  501    0  0.00000000000E+00 -0.00000000000E+00 -0.91888470614E+03  0.91888470614E+03  0.25500000000E-02 0. -1.
    8880023    1    1    2    0    0  0.31487240058E+03 -0.13820761759E+04  0.10695725737E+03  0.15666937307E+04  0.65864270000E+03 0.  0.
    8880022    1    1    2    0    0 -0.31487240058E+03  0.13820761759E+04  0.24994672951E+04  0.28775002340E+04  0.15294330000E+03 0.  0.
<mgrwt>
<rscale>  0 0.15275156E+04</rscale>
<asrwt>0</asrwt>
<pdfrwt beam="1">  1        2 0.14136688E+00 0.15630385E+04</pdfrwt>
<pdfrwt beam="2">  1       -2 0.54235527E+00 0.15630385E+04</pdfrwt>
<totfact> 0.24669938E-02</totfact>
</mgrwt>
</event>
<event>
 4    1  0.8287789E-007  0.9157411E+03  0.7818608E-02  0.9501220E-01
          2   -1    0    0  501    0  0.00000000000E+00  0.00000000000E+00  0.70460979849E+03  0.70460979850E+03  0.25500000000E-02 0. -1.
         -2   -1    0    0    0  501 -0.00000000000E+00 -0.00000000000E+00 -0.14597272851E+04  0.14597272851E+04  0.25500000000E-02 0.  1.
    8880023    1    1    2    0    0 -0.12946569584E+03  0.62290457421E+03  0.26417959745E+03  0.95308579936E+03  0.65864270000E+03 0. -1.
    8880022    1    1    2    0    0  0.12946569584E+03 -0.62290457421E+03 -0.10192970840E+04  0.12112512842E+04  0.15294330000E+03 0.  0.
<mgrwt>
<rscale>  0 0.84193909E+03</rscale>
<asrwt>0</asrwt>
<pdfrwt beam="1">  1        2 0.10840151E+00 0.91574106E+03</pdfrwt>
<pdfrwt beam="2">  1       -2 0.22457343E+00 0.91574106E+03</pdfrwt>
<totfact> 0.37740701E+00</totfact>
</mgrwt>
</event>
<event>
 4    1  0.8287789E-007  0.7238495E+03  0.7818608E-02  0.9909770E-01
         -2   -1    0    0    0  501 -0.00000000000E+00  0.00000000000E+00  0.45392365898E+03  0.45392365899E+03  0.25500000000E-02 0.  1.
          2   -1    0    0  501    0  0.00000000000E+00 -0.00000000000E+00 -0.20136713198E+04  0.20136713198E+04  0.25500000000E-02 0. -1.
    8880023    1    1    2    0    0  0.23666238546E+03 -0.18476680215E+03 -0.18727005929E+04  0.20077264686E+04  0.65864270000E+03 0. -1.
    8880022    1    1    2    0    0 -0.23666238546E+03  0.18476680215E+03  0.31295293213E+03  0.45986851013E+03  0.15294330000E+03 0.  1.
<mgrwt>
<rscale>  0 0.59790141E+03</rscale>
<asrwt>0</asrwt>
<pdfrwt beam="1">  1        2 0.30979558E+00 0.72384947E+03</pdfrwt>
<pdfrwt beam="2">  1       -2 0.69834410E-01 0.72384947E+03</pdfrwt>
<totfact> 0.12751027E+01</totfact>
</mgrwt>
</event>
<event>
 4    1  0.8287789E-007  0.1229632E+04  0.7818608E-02  0.9128843E-01
          2   -1    0    0  501    0  0.00000000000E+00  0.00000000000E+00  0.13591550980E+04  0.13591550980E+04  0.25500000000E-02 0. -1.
         -2   -1    0    0    0  501 -0.00000000000E+00 -0.00000000000E+00 -0.14346905085E+04  0.14346905085E+04  0.25500000000E-02 0.  1.
    8880023    1    1    2    0    0  0.88984807467E+03 -0.53512133080E+03  0.76588444978E+03  0.14486454471E+04  0.65864270000E+03 0.  0.
    8880022    1    1    2    0    0 -0.88984807467E+03  0.53512133080E+03 -0.84141986028E+03  0.13452001594E+04  0.15294330000E+03 0.  0.
<mgrwt>
<rscale>  0 0.11819066E+04</rscale>
<asrwt>0</asrwt>
<pdfrwt beam="1">  1        2 0.20910078E+00 0.12296319E+04</pdfrwt>
<pdfrwt beam="2">  1       -2 0.22072162E+00 0.12296319E+04</pdfrwt>
<totfact> 0.14453563E+00</totfact>
</mgrwt>
</event>
<event>
 4    1  0.8287789E-007  0.1042427E+04  0.7818608E-02  0.9328041E-01
          2   -1    0    0  501    0  0.00000000000E+00  0.00000000000E+00  0.96133260652E+03  0.96133260652E+03  0.25500000000E-02 0. -1.
         -2   -1    0    0    0  501 -0.00000000000E+00 -0.00000000000E+00 -0.13893677993E+04  0.13893677993E+04  0.25500000000E-02 0.  1.
    8880023    1    1    2    0    0  0.59472846924E+03 -0.54693921094E+03 -0.92178154265E+03  0.13915228605E+04  0.65864270000E+03 0.  1.
    8880022    1    1    2    0    0 -0.59472846924E+03  0.54693921094E+03  0.49374634983E+03  0.95917754539E+03  0.15294330000E+03 0.  0.
<mgrwt>
<rscale>  0 0.98241871E+03</rscale>
<asrwt>0</asrwt>
<pdfrwt beam="1">  1        2 0.14789732E+00 0.10424273E+04</pdfrwt>
<pdfrwt beam="2">  1       -2 0.21374889E+00 0.10424273E+04</pdfrwt>
<totfact> 0.28579849E+00</totfact>
</mgrwt>
</event>
<event>
 4    1  0.8287789E-007  0.8010436E+03  0.7818608E-02  0.9708544E-01
         -2   -1    0    0    0  501 -0.00000000000E+00  0.00000000000E+00  0.43987169849E+03  0.43987169850E+03  0.25500000000E-02 0.  1.
          2   -1    0    0  501    0  0.00000000000E+00 -0.00000000000E+00 -0.15258938518E+04  0.15258938518E+04  0.25500000000E-02 0. -1.
    8880023    1    1    2    0    0  0.23902101317E+03  0.38823908218E+03 -0.12263802656E+04  0.14648137737E+04  0.65864270000E+03 0. -1.
    8880022    1    1    2    0    0 -0.23902101317E+03 -0.38823908218E+03  0.14035811232E+03  0.50095177650E+03  0.15294330000E+03 0.  0.
<mgrwt>
<rscale>  0 0.70510349E+03</rscale>
<asrwt>0</asrwt>
<pdfrwt beam="1">  1        2 0.23475290E+00 0.80104359E+03</pdfrwt>
<pdfrwt beam="2">  1       -2 0.67672570E-01 0.80104359E+03</pdfrwt>
<totfact> 0.25004721E+01</totfact>
</mgrwt>
</event>
<event>
 4    1  0.8287789E-007  0.1070130E+04  0.7818608E-02  0.9295064E-01
         -2   -1    0    0    0  501 -0.00000000000E+00  0.00000000000E+00  0.10146297848E+04  0.10146297848E+04  0.25500000000E-02 0.  1.
          2   -1    0    0  501    0  0.00000000000E+00 -0.00000000000E+00 -0.22538813087E+04  0.22538813087E+04  0.25500000000E-02 0. -1.
    8880023    1    1    2    0    0  0.80631217284E+03 -0.24744620352E+03 -0.19037656780E+04  0.21839191621E+04  0.65864270000E+03 0.  0.
    8880022    1    1    2    0    0 -0.80631217284E+03  0.24744620352E+03  0.66451415410E+03  0.10845919314E+04  0.15294330000E+03 0.  0.
<mgrwt>
<rscale>  0 0.10123852E+04</rscale>
<asrwt>0</asrwt>
<pdfrwt beam="1">  1        2 0.34675097E+00 0.10701304E+04</pdfrwt>
<pdfrwt beam="2">  1       -2 0.15609689E+00 0.10701304E+04</pdfrwt>
<totfact> 0.12856024E+00</totfact>
</mgrwt>
</event>
<event>
 4    1  0.8287789E-007  0.6617068E+03  0.7818608E-02  0.1022472E+00
          2   -1    0    0  501    0  0.00000000000E+00  0.00000000000E+00  0.28318490250E+04  0.28318490250E+04  0.25500000000E-02 0. -1.
         -2   -1    0    0    0  501 -0.00000000000E+00 -0.00000000000E+00 -0.16502896270E+03  0.16502896272E+03  0.25500000000E-02 0.  1.
    8880023    1    1    2    0    0  0.31195016981E+02  0.55430418783E+02  0.27378281548E+04  0.28166573934E+04  0.65864270000E+03 0. -1.
    8880022    1    1    2    0    0 -0.31195016981E+02 -0.55430418783E+02 -0.71008092467E+02  0.18022059433E+03  0.15294330000E+03 0.  0.
<mgrwt>
<rscale>  0 0.46804961E+03</rscale>
<asrwt>0</asrwt>
<pdfrwt beam="1">  1        2 0.43566907E+00 0.66170678E+03</pdfrwt>
<pdfrwt beam="2">  1       -2 0.25389072E-01 0.66170678E+03</pdfrwt>
<totfact> 0.32888778E+01</totfact>
</mgrwt>
</event>
<event>
 4    1  0.8287789E-007  0.9064151E+03  0.7818608E-02  0.9515811E-01
         -2   -1    0    0    0  501 -0.00000000000E+00  0.00000000000E+00  0.70213676347E+03  0.70213676347E+03  0.25500000000E-02 0.  1.
          2   -1    0    0  501    0  0.00000000000E+00 -0.00000000000E+00 -0.27226132096E+04  0.27226132096E+04  0.25500000000E-02 0. -1.
    8880023    1    1    2    0    0  0.30805931288E+03  0.54118169462E+03 -0.24769860793E+04  0.26376217337E+04  0.65864270000E+03 0. -1.
    8880022    1    1    2    0    0 -0.30805931288E+03 -0.54118169462E+03  0.45650963324E+03  0.78712823929E+03  0.15294330000E+03 0.  0.
<mgrwt>
<rscale>  0 0.83128130E+03</rscale>
<asrwt>0</asrwt>
<pdfrwt beam="1">  1        2 0.41886357E+00 0.90641512E+03</pdfrwt>
<pdfrwt beam="2">  1       -2 0.10802104E+00 0.90641512E+03</pdfrwt>
<totfact> 0.18162275E+00</totfact>
</mgrwt>
</event>
<event>
 4    1  0.8287789E-007  0.6956742E+03  0.7818608E-02  0.1001564E+00
          2   -1    0    0  501    0  0.00000000000E+00  0.00000000000E+00  0.77617618327E+03  0.77617618327E+03  0.25500000000E-02 0. -1.
         -2   -1    0    0    0  501 -0.00000000000E+00 -0.00000000000E+00 -0.88426663232E+03  0.88426663232E+03  0.25500000000E-02 0.  1.
    8880023    1    1    2    0    0  0.17130593223E+03 -0.14424513858E+03  0.58959002675E+03  0.91190952859E+03  0.65864270000E+03 0. -1.
    8880022    1    1    2    0    0 -0.17130593223E+03  0.14424513858E+03 -0.69768047580E+03  0.74853328700E+03  0.15294330000E+03 0.  0.
<mgrwt>
<rscale>  0 0.54969635E+03</rscale>
<asrwt>0</asrwt>
<pdfrwt beam="1">  1        2 0.11941172E+00 0.69567420E+03</pdfrwt>
<pdfrwt beam="2">  1       -2 0.13604102E+00 0.69567420E+03</pdfrwt>
<totfact> 0.14161676E+01</totfact>
</mgrwt>
</event>
<event>
 4    1  0.8287789E-007  0.1360646E+04  0.7818608E-02  0.9014881E-01
         -2   -1    0    0    0  501 -0.00000000000E+00  0.00000000000E+00  0.13236423988E+04  0.13236423988E+04  0.25500000000E-02 0.  1.
          2   -1    0    0  501    0  0.00000000000E+00 -0.00000000000E+00 -0.19913046714E+04  0.19913046714E+04  0.25500000000E-02 0. -1.
    8880023    1    1    2    0    0  0.34471430524E+03 -0.11396139012E+04  0.67083365559E+03  0.15170286074E+04  0.65864270000E+03 0.  0.
    8880022    1    1    2    0    0 -0.34471430524E+03  0.11396139012E+04 -0.13384959282E+04  0.17979184628E+04  0.15294330000E+03 0.  0.
<mgrwt>
<rscale>  0 0.13186806E+04</rscale>
<asrwt>0</asrwt>
<pdfrwt beam="1">  1        2 0.30635457E+00 0.13606462E+04</pdfrwt>
<pdfrwt beam="2">  1       -2 0.20363729E+00 0.13606462E+04</pdfrwt>
<totfact> 0.81071947E-01</totfact>
</mgrwt>
</event>
<event>
 4    1  0.8287789E-007  0.7796859E+03  0.7818608E-02  0.9756575E-01
          2   -1    0    0  501    0  0.00000000000E+00  0.00000000000E+00  0.12340842813E+04  0.12340842813E+04  0.25500000000E-02 0. -1.
         -2   -1    0    0    0  501 -0.00000000000E+00 -0.00000000000E+00 -0.91772643387E+03  0.91772643388E+03  0.25500000000E-02 0.  1.
    8880023    1    1    2    0    0  0.30102713508E+03  0.28893338104E+03 -0.69667189759E+03  0.10455915904E+04  0.65864270000E+03 0.  1.
    8880022    1    1    2    0    0 -0.30102713508E+03 -0.28893338104E+03  0.10130297450E+04  0.11062191248E+04  0.15294330000E+03 0.  0.
<mgrwt>
<rscale>  0 0.67745943E+03</rscale>
<asrwt>0</asrwt>
<pdfrwt beam="1">  1        2 0.18985912E+00 0.77968586E+03</pdfrwt>
<pdfrwt beam="2">  1       -2 0.14118868E+00 0.77968586E+03</pdfrwt>
<totfact> 0.64600203E+00</totfact>
</mgrwt>
</event>
<event>
 4    1  0.8287789E-007  0.6864371E+03  0.7818608E-02  0.1005894E+00
         -2   -1    0    0    0  501 -0.00000000000E+00  0.00000000000E+00  0.90319429817E+03  0.90319429817E+03  0.25500000000E-02 0.  1.
          2   -1    0    0  501    0  0.00000000000E+00 -0.00000000000E+00 -0.11875808326E+04  0.11875808326E+04  0.25500000000E-02 0. -1.
    8880023    1    1    2    0    0 -0.19243143275E+03  0.18862305785E+02 -0.10678449643E+04  0.12694442552E+04  0.65864270000E+03 0. -1.
    8880022    1    1    2    0    0  0.19243143275E+03 -0.18862305785E+02  0.78345842988E+03  0.82133087562E+03  0.15294330000E+03 0.  0.
<mgrwt>
<rscale>  0 0.53139592E+03</rscale>
<asrwt>0</asrwt>
<pdfrwt beam="1">  1        2 0.18270474E+00 0.68643707E+03</pdfrwt>
<pdfrwt beam="2">  1       -2 0.13895297E+00 0.68643707E+03</pdfrwt>
<totfact> 0.72647239E+00</totfact>
</mgrwt>
</event>
<event>
 4    1  0.8287789E-007  0.1813344E+04  0.7818608E-02  0.8715191E-01
          2   -1    0    0  501    0  0.00000000000E+00  0.00000000000E+00  0.43914822079E+04  0.43914822079E+04  0.25500000000E-02 0. -1.
         -2   -1    0    0    0  501 -0.00000000000E+00 -0.00000000000E+00 -0.15058541584E+04  0.15058541584E+04  0.25500000000E-02 0.  1.
    8880023    1    1    2    0    0  0.16147536597E+04 -0.49696593134E+03  0.36200135058E+04  0.40487914873E+04  0.65864270000E+03 0.  0.
    8880022    1    1    2    0    0 -0.16147536597E+04  0.49696593134E+03 -0.73438545626E+03  0.18485448791E+04  0.15294330000E+03 0.  0.
<mgrwt>
<rscale>  0 0.17833746E+04</rscale>
<asrwt>0</asrwt>
<pdfrwt beam="1">  1        2 0.67561265E+00 0.18133435E+04</pdfrwt>
<pdfrwt beam="2">  1       -2 0.23166987E+00 0.18133435E+04</pdfrwt>
<totfact> 0.11965694E-02</totfact>
</mgrwt>
</event>
<event>
 4    1  0.8287789E-007  0.8011394E+03  0.7818608E-02  0.9708338E-01
         -2   -1    0    0    0  501 -0.00000000000E+00  0.00000000000E+00  0.38680637163E+03  0.38680637164E+03  0.25500000000E-02 0.  1.
          2   -1    0    0  501    0  0.00000000000E+00 -0.00000000000E+00 -0.14642375353E+04  0.14642375353E+04  0.25500000000E-02 0. -1.
    8880023    1    1    2    0    0  0.36046973616E+03 -0.27942025272E+03 -0.11099801515E+04  0.13688974583E+04  0.65864270000E+03 0.  0.
    8880022    1    1    2    0    0 -0.36046973616E+03  0.27942025272E+03  0.32548987843E+02  0.48214644865E+03  0.15294330000E+03 0.  0.
<mgrwt>
<rscale>  0 0.70522522E+03</rscale>
<asrwt>0</asrwt>
<pdfrwt beam="1">  1        2 0.22526731E+00 0.80113939E+03</pdfrwt>
<pdfrwt beam="2">  1       -2 0.59508673E-01 0.80113939E+03</pdfrwt>
<totfact> 0.35636887E+01</totfact>
</mgrwt>
</event>
<event>
 4    1  0.8287789E-007  0.7573946E+03  0.7818608E-02  0.9811900E-01
          2   -1    0    0  501    0  0.00000000000E+00  0.00000000000E+00  0.93585959350E+03  0.93585959351E+03  0.25500000000E-02 0. -1.
         -2   -1    0    0    0  501 -0.00000000000E+00 -0.00000000000E+00 -0.58069270916E+03  0.58069270916E+03  0.25500000000E-02 0.  1.
    8880023    1    1    2    0    0  0.27674524314E+03  0.25149256339E+03  0.66461089883E+03  0.10076479009E+04  0.65864270000E+03 0. -1.
    8880022    1    1    2    0    0 -0.27674524314E+03 -0.25149256339E+03 -0.30944401448E+03  0.50890440179E+03  0.15294330000E+03 0.  0.
<mgrwt>
<rscale>  0 0.64727828E+03</rscale>
<asrwt>0</asrwt>
<pdfrwt beam="1">  1        2 0.14397840E+00 0.75739464E+03</pdfrwt>
<pdfrwt beam="2">  1       -2 0.89337340E-01 0.75739464E+03</pdfrwt>
<totfact> 0.30260983E+01</totfact>
</mgrwt>
</event>
<event>
 4    1  0.8287789E-007  0.7633769E+03  0.7818608E-02  0.9796442E-01
         -2   -1    0    0    0  501 -0.00000000000E+00  0.00000000000E+00  0.17559079419E+03  0.17559079421E+03  0.25500000000E-02 0.  1.
          2   -1    0    0  501    0  0.00000000000E+00 -0.00000000000E+00 -0.27105893124E+04  0.27105893124E+04  0.25500000000E-02 0. -1.
    8880023    1    1    2    0    0  0.83576859852E+01 -0.38582931249E+03 -0.22669718311E+04  0.23920505008E+04  0.65864270000E+03 0.  0.
    8880022    1    1    2    0    0 -0.83576859852E+01  0.38582931249E+03 -0.26802668713E+03  0.49412960579E+03  0.15294330000E+03 0.  0.
<mgrwt>
<rscale>  0 0.65553826E+03</rscale>
<asrwt>0</asrwt>
<pdfrwt beam="1">  1        2 0.41701371E+00 0.76337692E+03</pdfrwt>
<pdfrwt beam="2">  1       -2 0.27013970E-01 0.76337692E+03</pdfrwt>
<totfact> 0.34076235E+01</totfact>
</mgrwt>
</event>
<event>
 4    1  0.8287789E-007  0.7331043E+03  0.7818608E-02  0.9880509E-01
         -2   -1    0    0    0  501 -0.00000000000E+00  0.00000000000E+00  0.18854809104E+03  0.18854809106E+03  0.25500000000E-02 0.  1.
          2   -1    0    0  501    0  0.00000000000E+00 -0.00000000000E+00 -0.19033176009E+04  0.19033176009E+04  0.25500000000E-02 0. -1.
    8880023    1    1    2    0    0 -0.16502779475E+03 -0.27640107026E+03 -0.15155843897E+04  0.16835789180E+04  0.65864270000E+03 0.  0.
    8880022    1    1    2    0    0  0.16502779475E+03  0.27640107026E+03 -0.19918512023E+03  0.40828677399E+03  0.15294330000E+03 0.  0.
<mgrwt>
<rscale>  0 0.61215273E+03</rscale>
<asrwt>0</asrwt>
<pdfrwt beam="1">  1        2 0.29281808E+00 0.73310431E+03</pdfrwt>
<pdfrwt beam="2">  1       -2 0.29007400E-01 0.73310431E+03</pdfrwt>
<totfact> 0.84758853E+01</totfact>
</mgrwt>
</event>
<event>
 4    1  0.8287789E-007  0.7041421E+03  0.7818608E-02  0.9980433E-01
          2   -1    0    0  501    0  0.00000000000E+00  0.00000000000E+00  0.11077204812E+04  0.11077204812E+04  0.25500000000E-02 0. -1.
         -2   -1    0    0    0  501 -0.00000000000E+00 -0.00000000000E+00 -0.32778887750E+03  0.32778887751E+03  0.25500000000E-02 0.  1.
    8880023    1    1    2    0    0 -0.18401397469E+03 -0.16776416903E+03  0.87962278789E+03  0.11267441655E+04  0.65864270000E+03 0.  0.
    8880022    1    1    2    0    0  0.18401397469E+03  0.16776416903E+03 -0.99691184213E+02  0.30876519317E+03  0.15294330000E+03 0.  0.
<mgrwt>
<rscale>  0 0.56516593E+03</rscale>
<asrwt>0</asrwt>
<pdfrwt beam="1">  1        2 0.17041853E+00 0.70414215E+03</pdfrwt>
<pdfrwt beam="2">  1       -2 0.50429059E-01 0.70414215E+03</pdfrwt>
<totfact> 0.81663530E+01</totfact>
</mgrwt>
</event>
<event>
 4    1  0.8287789E-007  0.1079073E+04  0.7818608E-02  0.9284721E-01
          2   -1    0    0  501    0  0.00000000000E+00  0.00000000000E+00  0.22494513879E+04  0.22494513879E+04  0.25500000000E-02 0. -1.
         -2   -1    0    0    0  501 -0.00000000000E+00 -0.00000000000E+00 -0.61890069887E+03  0.61890069888E+03  0.25500000000E-02 0.  1.
    8880023    1    1    2    0    0 -0.66209323454E+02 -0.85217643153E+03  0.68579620955E+02  0.10812500708E+04  0.65864270000E+03 0.  1.
    8880022    1    1    2    0    0  0.66209323454E+02  0.85217643153E+03  0.15619710681E+04  0.17871020159E+04  0.15294330000E+03 0.  0.
<mgrwt>
<rscale>  0 0.10220170E+04</rscale>
<asrwt>0</asrwt>
<pdfrwt beam="1">  1        2 0.34606945E+00 0.10790730E+04</pdfrwt>
<pdfrwt beam="2">  1       -2 0.95215491E-01 0.10790730E+04</pdfrwt>
<totfact> 0.44661409E+00</totfact>
</mgrwt>
</event>
<event>
 4    1  0.8287789E-007  0.7217159E+03  0.7818608E-02  0.9916822E-01
         -2   -1    0    0    0  501 -0.00000000000E+00  0.00000000000E+00  0.32736523632E+03  0.32736523633E+03  0.25500000000E-02 0.  1.
          2   -1    0    0  501    0  0.00000000000E+00 -0.00000000000E+00 -0.12133096292E+04  0.12133096292E+04  0.25500000000E-02 0. -1.
    8880023    1    1    2    0    0 -0.29218183696E+03 -0.41150417499E+02 -0.95915875010E+03  0.12003579870E+04  0.65864270000E+03 0.  0.
    8880022    1    1    2    0    0  0.29218183696E+03  0.41150417499E+02  0.73214357233E+02  0.34031687855E+03  0.15294330000E+03 0.  0.
<mgrwt>
<rscale>  0 0.59452891E+03</rscale>
<asrwt>0</asrwt>
<pdfrwt beam="1">  1        2 0.18666302E+00 0.72171586E+03</pdfrwt>
<pdfrwt beam="2">  1       -2 0.50363883E-01 0.72171586E+03</pdfrwt>
<totfact> 0.70682344E+01</totfact>
</mgrwt>
</event>
<event>
 4    1  0.8287789E-007  0.7463786E+03  0.7818608E-02  0.9841742E-01
         -2   -1    0    0    0  501 -0.00000000000E+00  0.00000000000E+00  0.80513486226E+03  0.80513486226E+03  0.25500000000E-02 0.  1.
          2   -1    0    0  501    0  0.00000000000E+00 -0.00000000000E+00 -0.53531200032E+03  0.53531200033E+03  0.25500000000E-02 0. -1.
    8880023    1    1    2    0    0 -0.35099395539E+03  0.86022987112E+01 -0.16149220369E+03  0.76364958874E+03  0.65864270000E+03 0. -1.
    8880022    1    1    2    0    0  0.35099395539E+03 -0.86022987112E+01  0.43131506563E+03  0.57679727385E+03  0.15294330000E+03 0.  0.
<mgrwt>
<rscale>  0 0.63169759E+03</rscale>
<asrwt>0</asrwt>
<pdfrwt beam="1">  1        2 0.82355692E-01 0.74637857E+03</pdfrwt>
<pdfrwt beam="2">  1       -2 0.12386690E+00 0.74637857E+03</pdfrwt>
<totfact> 0.28244309E+01</totfact>
</mgrwt>
</event>
<event>
 4    1  0.8287789E-007  0.6683519E+03  0.7818608E-02  0.1016873E+00
          2   -1    0    0  501    0  0.00000000000E+00  0.00000000000E+00  0.18763151231E+04  0.18763151231E+04  0.25500000000E-02 0. -1.
         -2   -1    0    0    0  501 -0.00000000000E+00 -0.00000000000E+00 -0.12618690281E+03  0.12618690284E+03  0.25500000000E-02 0.  1.
    8880023    1    1    2    0    0 -0.11155891779E+03 -0.20943992055E+02  0.16645122222E+04  0.17936820195E+04  0.65864270000E+03 0. -1.
    8880022    1    1    2    0    0  0.11155891779E+03  0.20943992055E+02  0.85615998063E+02  0.20882000642E+03  0.15294330000E+03 0.  0.
<mgrwt>
<rscale>  0 0.48832151E+03</rscale>
<asrwt>0</asrwt>
<pdfrwt beam="1">  1        2 0.28866386E+00 0.66835189E+03</pdfrwt>
<pdfrwt beam="2">  1       -2 0.19413370E-01 0.66835189E+03</pdfrwt>
<totfact> 0.18114405E+02</totfact>
</mgrwt>
</event>
<event>
 4    1  0.8287789E-007  0.7667514E+03  0.7818608E-02  0.9787932E-01
         -2   -1    0    0    0  501 -0.00000000000E+00  0.00000000000E+00  0.20975230553E+03  0.20975230554E+03  0.25500000000E-02 0.  1.
          2   -1    0    0  501    0  0.00000000000E+00 -0.00000000000E+00 -0.32219149901E+04  0.32219149901E+04  0.25500000000E-02 0. -1.
    8880023    1    1    2    0    0 -0.39208450626E+03 -0.19165027100E+02 -0.28943794001E+04  0.29942177403E+04  0.65864270000E+03 0. -1.
    8880022    1    1    2    0    0  0.39208450626E+03  0.19165027100E+02 -0.11778328441E+03  0.43744955528E+03  0.15294330000E+03 0.  0.
<mgrwt>
<rscale>  0 0.66014212E+03</rscale>
<asrwt>0</asrwt>
<pdfrwt beam="1">  1        2 0.49567920E+00 0.76675144E+03</pdfrwt>
<pdfrwt beam="2">  1       -2 0.32269588E-01 0.76675144E+03</pdfrwt>
<totfact> 0.11955851E+01</totfact>
</mgrwt>
</event>
<event>
 4    1  0.8287789E-007  0.8315486E+03  0.7818608E-02  0.9646327E-01
         -2   -1    0    0    0  501 -0.00000000000E+00  0.00000000000E+00  0.46565737578E+03  0.46565737578E+03  0.25500000000E-02 0.  1.
          2   -1    0    0  501    0  0.00000000000E+00 -0.00000000000E+00 -0.41297268159E+04  0.41297268159E+04  0.25500000000E-02 0. -1.
    8880023    1    1    2    0    0 -0.22588724861E+03 -0.45457435450E+03 -0.39196229708E+04  0.40068587862E+04  0.65864270000E+03 0.  0.
    8880022    1    1    2    0    0  0.22588724861E+03  0.45457435450E+03  0.25555353069E+03  0.58852540550E+03  0.15294330000E+03 0.  0.
<mgrwt>
<rscale>  0 0.74304405E+03</rscale>
<asrwt>0</asrwt>
<pdfrwt beam="1">  1        2 0.63534256E+00 0.83154862E+03</pdfrwt>
<pdfrwt beam="2">  1       -2 0.71639599E-01 0.83154862E+03</pdfrwt>
<totfact> 0.51827933E-01</totfact>
</mgrwt>
</event>
<event>
 4    1  0.8287789E-007  0.6940754E+03  0.7818608E-02  0.1002273E+00
         -2   -1    0    0    0  501 -0.00000000000E+00  0.00000000000E+00  0.88691424637E+03  0.88691424638E+03  0.25500000000E-02 0.  1.
          2   -1    0    0  501    0  0.00000000000E+00 -0.00000000000E+00 -0.10339158276E+04  0.10339158276E+04  0.25500000000E-02 0. -1.
    8880023    1    1    2    0    0 -0.11327572023E+03 -0.18734755442E+03 -0.89153035396E+03  0.11298526777E+04  0.65864270000E+03 0. -1.
    8880022    1    1    2    0    0  0.11327572023E+03  0.18734755442E+03  0.74452877276E+03  0.79097739628E+03  0.15294330000E+03 0.  0.
<mgrwt>
<rscale>  0 0.54664837E+03</rscale>
<asrwt>0</asrwt>
<pdfrwt beam="1">  1        2 0.15906397E+00 0.69407543E+03</pdfrwt>
<pdfrwt beam="2">  1       -2 0.13644835E+00 0.69407543E+03</pdfrwt>
<totfact> 0.94314631E+00</totfact>
</mgrwt>
</event>
<event>
 4    1  0.8287789E-007  0.8835549E+03  0.7818608E-02  0.9552964E-01
          2   -1    0    0  501    0  0.00000000000E+00  0.00000000000E+00  0.16499340530E+04  0.16499340530E+04  0.25500000000E-02 0. -1.
         -2   -1    0    0    0  501 -0.00000000000E+00 -0.00000000000E+00 -0.80544182894E+03  0.80544182894E+03  0.25500000000E-02 0.  1.
    8880023    1    1    2    0    0  0.58893825777E+03  0.32729590391E+01 -0.47442001696E+03  0.10028676595E+04  0.65864270000E+03 0.  0.
    8880022    1    1    2    0    0 -0.58893825777E+03 -0.32729590391E+01  0.13189122411E+04  0.14525082225E+04  0.15294330000E+03 0.  0.
<mgrwt>
<rscale>  0 0.80489108E+03</rscale>
<asrwt>0</asrwt>
<pdfrwt beam="1">  1        2 0.25383601E+00 0.88355486E+03</pdfrwt>
<pdfrwt beam="2">  1       -2 0.12391413E+00 0.88355486E+03</pdfrwt>
<totfact> 0.51718809E+00</totfact>
</mgrwt>
</event>
<event>
 4    1  0.8287789E-007  0.7559450E+03  0.7818608E-02  0.9815721E-01
          2   -1    0    0  501    0  0.00000000000E+00  0.00000000000E+00  0.50929990778E+03  0.50929990779E+03  0.25500000000E-02 0. -1.
         -2   -1    0    0    0  501 -0.00000000000E+00 -0.00000000000E+00 -0.87781733122E+03  0.87781733122E+03  0.25500000000E-02 0.  1.
    8880023    1    1    2    0    0  0.62760894407E+02 -0.36565513109E+03  0.10857025801E+03  0.76370171661E+03  0.65864270000E+03 0.  0.
    8880022    1    1    2    0    0 -0.62760894407E+02  0.36565513109E+03 -0.47708768145E+03  0.62341552240E+03  0.15294330000E+03 0.  0.
<mgrwt>
<rscale>  0 0.64525655E+03</rscale>
<asrwt>0</asrwt>
<pdfrwt beam="1">  1        2 0.78353832E-01 0.75594498E+03</pdfrwt>
<pdfrwt beam="2">  1       -2 0.13504882E+00 0.75594498E+03</pdfrwt>
<totfact> 0.24048181E+01</totfact>
</mgrwt>
</event>
<event>
 4    1  0.8287789E-007  0.1002371E+04  0.7818608E-02  0.9378462E-01
          2   -1    0    0  501    0  0.00000000000E+00  0.00000000000E+00  0.40791953098E+04  0.40791953098E+04  0.25500000000E-02 0. -1.
         -2   -1    0    0    0  501 -0.00000000000E+00 -0.00000000000E+00 -0.73337044952E+03  0.73337044953E+03  0.25500000000E-02 0.  1.
    8880023    1    1    2    0    0 -0.66808566839E+02 -0.75264473751E+03  0.37917200793E+04  0.39219751212E+04  0.65864270000E+03 0.  0.
    8880022    1    1    2    0    0  0.66808566839E+02  0.75264473751E+03 -0.44589521894E+03  0.89059063817E+03  0.15294330000E+03 0.  0.
<mgrwt>
<rscale>  0 0.93869555E+03</rscale>
<asrwt>0</asrwt>
<pdfrwt beam="1">  1        2 0.62756850E+00 0.10023710E+04</pdfrwt>
<pdfrwt beam="2">  1       -2 0.11282623E+00 0.10023710E+04</pdfrwt>
<totfact> 0.19154840E-01</totfact>
</mgrwt>
</event>
<event>
 4    1  0.8287789E-007  0.8555292E+03  0.7818608E-02  0.9601566E-01
         -2   -1    0    0    0  501 -0.00000000000E+00  0.00000000000E+00  0.34798636253E+03  0.34798636254E+03  0.25500000000E-02 0.  1.
          2   -1    0    0  501    0  0.00000000000E+00 -0.00000000000E+00 -0.20273197972E+04  0.20273197972E+04  0.25500000000E-02 0. -1.
    8880023    1    1    2    0    0 -0.45073611077E+03 -0.30815096236E+03 -0.15840753458E+04  0.18003402358E+04  0.65864270000E+03 0. -1.
    8880022    1    1    2    0    0  0.45073611077E+03  0.30815096236E+03 -0.95258088828E+02  0.57496592391E+03  0.15294330000E+03 0.  0.
<mgrwt>
<rscale>  0 0.77192612E+03</rscale>
<asrwt>0</asrwt>
<pdfrwt beam="1">  1        2 0.31189535E+00 0.85552923E+03</pdfrwt>
<pdfrwt beam="2">  1       -2 0.53536365E-01 0.85552923E+03</pdfrwt>
<totfact> 0.21644671E+01</totfact>
</mgrwt>
</event>
<event>
 4    1  0.8287789E-007  0.1342308E+04  0.7818608E-02  0.9029859E-01
          2   -1    0    0  501    0  0.00000000000E+00  0.00000000000E+00  0.15204744498E+04  0.15204744498E+04  0.25500000000E-02 0. -1.
         -2   -1    0    0    0  501 -0.00000000000E+00 -0.00000000000E+00 -0.13026853306E+04  0.13026853306E+04  0.25500000000E-02 0.  1.
    8880023    1    1    2    0    0  0.70439617414E+03 -0.93370611567E+03 -0.51137527727E+03  0.14364177530E+04  0.65864270000E+03 0.  1.
    8880022    1    1    2    0    0 -0.70439617414E+03  0.93370611567E+03  0.72916439647E+03  0.13867420274E+04  0.15294330000E+03 0.  0.
<mgrwt>
<rscale>  0 0.12996297E+04</rscale>
<asrwt>0</asrwt>
<pdfrwt beam="1">  1        2 0.23391915E+00 0.13423082E+04</pdfrwt>
<pdfrwt beam="2">  1       -2 0.20041313E+00 0.13423082E+04</pdfrwt>
<totfact> 0.15616347E+00</totfact>
</mgrwt>
</event>
<event>
 4    1  0.8287789E-007  0.7443909E+03  0.7818608E-02  0.9847336E-01
          2   -1    0    0  501    0  0.00000000000E+00  0.00000000000E+00  0.10967039892E+04  0.10967039892E+04  0.25500000000E-02 0. -1.
         -2   -1    0    0    0  501 -0.00000000000E+00 -0.00000000000E+00 -0.40033377495E+03  0.40033377496E+03  0.25500000000E-02 0.  1.
    8880023    1    1    2    0    0  0.83865928273E+02  0.33656222659E+03  0.81116842710E+03  0.11009596040E+04  0.65864270000E+03 0. -1.
    8880022    1    1    2    0    0 -0.83865928273E+02 -0.33656222659E+03 -0.11479821281E+03  0.39607816018E+03  0.15294330000E+03 0.  0.
<mgrwt>
<rscale>  0 0.62882909E+03</rscale>
<asrwt>0</asrwt>
<pdfrwt beam="1">  1        2 0.16872369E+00 0.74439091E+03</pdfrwt>
<pdfrwt beam="2">  1       -2 0.61589812E-01 0.74439091E+03</pdfrwt>
<totfact> 0.54530748E+01</totfact>
</mgrwt>
</event>
<event>
 4    1  0.8287789E-007  0.9276999E+03  0.7818608E-02  0.9482952E-01
          2   -1    0    0  501    0  0.00000000000E+00  0.00000000000E+00  0.20157098884E+04  0.20157098884E+04  0.25500000000E-02 0. -1.
         -2   -1    0    0    0  501 -0.00000000000E+00 -0.00000000000E+00 -0.49515608533E+03  0.49515608533E+03  0.25500000000E-02 0.  1.
    8880023    1    1    2    0    0 -0.36026966120E+03 -0.54499787065E+03  0.91586873399E+02  0.93220988487E+03  0.65864270000E+03 0.  0.
    8880022    1    1    2    0    0  0.36026966120E+03  0.54499787065E+03  0.14289669297E+04  0.15786560889E+04  0.15294330000E+03 0.  0.
<mgrwt>
<rscale>  0 0.85552431E+03</rscale>
<asrwt>0</asrwt>
<pdfrwt beam="1">  1        2 0.31010922E+00 0.92769991E+03</pdfrwt>
<pdfrwt beam="2">  1       -2 0.76177858E-01 0.92769991E+03</pdfrwt>
<totfact> 0.10212628E+01</totfact>
</mgrwt>
</event>
<event>
 4    1  0.8287789E-007  0.8944575E+03  0.7818608E-02  0.9534988E-01
          2   -1    0    0  501    0  0.00000000000E+00  0.00000000000E+00  0.16486162387E+04  0.16486162387E+04  0.25500000000E-02 0. -1.
         -2   -1    0    0    0  501 -0.00000000000E+00 -0.00000000000E+00 -0.73078905123E+03  0.73078905123E+03  0.25500000000E-02 0.  1.
    8880023    1    1    2    0    0  0.58425913178E+03 -0.15775067976E+03  0.13505409467E+04  0.16198811886E+04  0.65864270000E+03 0. -1.
    8880022    1    1    2    0    0 -0.58425913178E+03  0.15775067976E+03 -0.43271375928E+03  0.75952410134E+03  0.15294330000E+03 0.  0.
<mgrwt>
<rscale>  0 0.81752703E+03</rscale>
<asrwt>0</asrwt>
<pdfrwt beam="1">  1        2 0.25363326E+00 0.89445750E+03</pdfrwt>
<pdfrwt beam="2">  1       -2 0.11242909E+00 0.89445750E+03</pdfrwt>
<totfact> 0.65793350E+00</totfact>
</mgrwt>
</event>
<event>
 4    1  0.8287789E-007  0.7759803E+03  0.7818608E-02  0.9765366E-01
          2   -1    0    0  501    0  0.00000000000E+00  0.00000000000E+00  0.90131530594E+03  0.90131530594E+03  0.25500000000E-02 0. -1.
         -2   -1    0    0    0  501 -0.00000000000E+00 -0.00000000000E+00 -0.97051994286E+03  0.97051994286E+03  0.25500000000E-02 0.  1.
    8880023    1    1    2    0    0  0.20706435382E+03 -0.35420265950E+03  0.66170602286E+03  0.10198040192E+04  0.65864270000E+03 0.  0.
    8880022    1    1    2    0    0 -0.20706435382E+03  0.35420265950E+03 -0.73091065978E+03  0.85203122960E+03  0.15294330000E+03 0.  1.
<mgrwt>
<rscale>  0 0.67254813E+03</rscale>
<asrwt>0</asrwt>
<pdfrwt beam="1">  1        2 0.13866389E+00 0.77598027E+03</pdfrwt>
<pdfrwt beam="2">  1       -2 0.14931076E+00 0.77598027E+03</pdfrwt>
<totfact> 0.90004362E+00</totfact>
</mgrwt>
</event>
<event>
 4    1  0.8287789E-007  0.7977853E+03  0.7818608E-02  0.9715605E-01
          2   -1    0    0  501    0  0.00000000000E+00  0.00000000000E+00  0.19027951090E+04  0.19027951090E+04  0.25500000000E-02 0. -1.
         -2   -1    0    0    0  501 -0.00000000000E+00 -0.00000000000E+00 -0.45579058680E+03  0.45579058681E+03  0.25500000000E-02 0.  1.
    8880023    1    1    2    0    0 -0.25710503801E+03 -0.36952431620E+03  0.16568339458E+04  0.18389018873E+04  0.65864270000E+03 0. -1.
    8880022    1    1    2    0    0  0.25710503801E+03  0.36952431620E+03 -0.20982942359E+03  0.51968380853E+03  0.15294330000E+03 0.  0.
<mgrwt>
<rscale>  0 0.70095217E+03</rscale>
<asrwt>0</asrwt>
<pdfrwt beam="1">  1        2 0.29273771E+00 0.79778533E+03</pdfrwt>
<pdfrwt beam="2">  1       -2 0.70121628E-01 0.79778533E+03</pdfrwt>
<totfact> 0.14374505E+01</totfact>
</mgrwt>
</event>
<event>
 4    1  0.8287789E-007  0.7670954E+03  0.7818608E-02  0.9787073E-01
          2   -1    0    0  501    0  0.00000000000E+00  0.00000000000E+00  0.11386517321E+04  0.11386517321E+04  0.25500000000E-02 0. -1.
         -2   -1    0    0    0  501 -0.00000000000E+00 -0.00000000000E+00 -0.99632097809E+03  0.99632097809E+03  0.25500000000E-02 0.  1.
    8880023    1    1    2    0    0 -0.25837430398E+02 -0.39237418052E+03  0.95162220610E+03  0.12223011494E+04  0.65864270000E+03 0. -1.
    8880022    1    1    2    0    0  0.25837430398E+02  0.39237418052E+03 -0.80929145213E+03  0.91267156078E+03  0.15294330000E+03 0.  0.
<mgrwt>
<rscale>  0 0.66060919E+03</rscale>
<asrwt>0</asrwt>
<pdfrwt beam="1">  1        2 0.17517719E+00 0.76709535E+03</pdfrwt>
<pdfrwt beam="2">  1       -2 0.15328015E+00 0.76709535E+03</pdfrwt>
<totfact> 0.59411692E+00</totfact>
</mgrwt>
</event>
<event>
 4    1  0.8287789E-007  0.6627082E+03  0.7818608E-02  0.1021539E+00
          2   -1    0    0  501    0  0.00000000000E+00  0.00000000000E+00  0.18233851938E+04  0.18233851938E+04  0.25500000000E-02 0. -1.
         -2   -1    0    0    0  501 -0.00000000000E+00 -0.00000000000E+00 -0.99915686236E+02  0.99915686269E+02  0.25500000000E-02 0.  1.
    8880023    1    1    2    0    0  0.73006479505E+02 -0.64772337755E+01  0.15215405125E+04  0.16595986376E+04  0.65864270000E+03 0. -1.
    8880022    1    1    2    0    0 -0.73006479505E+02  0.64772337755E+01  0.20192899511E+03  0.26370224248E+03  0.15294330000E+03 0.  1.
<mgrwt>
<rscale>  0 0.47135385E+03</rscale>
<asrwt>0</asrwt>
<pdfrwt beam="1">  1        2 0.28052078E+00 0.66270816E+03</pdfrwt>
<pdfrwt beam="2">  1       -2 0.15371645E-01 0.66270816E+03</pdfrwt>
<totfact> 0.28898736E+02</totfact>
</mgrwt>
</event>
<event>
 4    1  0.8287789E-007  0.7933028E+03  0.7818608E-02  0.9725468E-01
          2   -1    0    0  501    0  0.00000000000E+00  0.00000000000E+00  0.17025169110E+04  0.17025169110E+04  0.25500000000E-02 0. -1.
         -2   -1    0    0    0  501 -0.00000000000E+00 -0.00000000000E+00 -0.59464697129E+03  0.59464697129E+03  0.25500000000E-02 0.  1.
    8880023    1    1    2    0    0 -0.23622945050E+03  0.37378431648E+03  0.14933226691E+04  0.16909588608E+04  0.65864270000E+03 0. -1.
    8880022    1    1    2    0    0  0.23622945050E+03 -0.37378431648E+03 -0.38545272937E+03  0.60620502153E+03  0.15294330000E+03 0.  0.
<mgrwt>
<rscale>  0 0.69520455E+03</rscale>
<asrwt>0</asrwt>
<pdfrwt beam="1">  1        2 0.26192567E+00 0.79330276E+03</pdfrwt>
<pdfrwt beam="2">  1       -2 0.91484151E-01 0.79330276E+03</pdfrwt>
<totfact> 0.10171150E+01</totfact>
</mgrwt>
</event>
<event>
 4    1  0.8287789E-007  0.7384253E+03  0.7818608E-02  0.9864558E-01
          2   -1    0    0  501    0  0.00000000000E+00  0.00000000000E+00  0.84083602277E+03  0.84083602278E+03  0.25500000000E-02 0. -1.
         -2   -1    0    0    0  501 -0.00000000000E+00 -0.00000000000E+00 -0.44141761189E+03  0.44141761190E+03  0.25500000000E-02 0.  1.
    8880023    1    1    2    0    0  0.32909969776E+03  0.56170384177E+02  0.51153217209E+03  0.89829677305E+03  0.65864270000E+03 0. -1.
    8880022    1    1    2    0    0 -0.32909969776E+03 -0.56170384177E+02 -0.11211376121E+03  0.38395686163E+03  0.15294330000E+03 0.  0.
<mgrwt>
<rscale>  0 0.62010132E+03</rscale>
<asrwt>0</asrwt>
<pdfrwt beam="1">  1        2 0.12935939E+00 0.73842530E+03</pdfrwt>
<pdfrwt beam="2">  1       -2 0.67910403E-01 0.73842530E+03</pdfrwt>
<totfact> 0.64894706E+01</totfact>
</mgrwt>
</event>
<event>
 4    1  0.8287789E-007  0.1313427E+04  0.7818608E-02  0.9054050E-01
         -2   -1    0    0    0  501 -0.00000000000E+00  0.00000000000E+00  0.16169048844E+04  0.16169048844E+04  0.25500000000E-02 0.  1.
          2   -1    0    0  501    0  0.00000000000E+00 -0.00000000000E+00 -0.24292420959E+04  0.24292420959E+04  0.25500000000E-02 0. -1.
    8880023    1    1    2    0    0 -0.52337043016E+03 -0.10086450591E+04 -0.20016763154E+04  0.23941177373E+04  0.65864270000E+03 0.  0.
    8880022    1    1    2    0    0  0.52337043016E+03  0.10086450591E+04  0.11893391039E+04  0.16520292429E+04  0.15294330000E+03 0.  0.
<mgrwt>
<rscale>  0 0.12695704E+04</rscale>
<asrwt>0</asrwt>
<pdfrwt beam="1">  1        2 0.37372955E+00 0.13134275E+04</pdfrwt>
<pdfrwt beam="2">  1       -2 0.24875460E+00 0.13134275E+04</pdfrwt>
<totfact> 0.24028347E-01</totfact>
</mgrwt>
</event>
<event>
 4    1  0.8656563E-007  0.7407865E+03  0.7818608E-02  0.9857662E-01
         -2   -1    0    0    0  501 -0.00000000000E+00  0.00000000000E+00  0.48944474973E+03  0.48944474974E+03  0.25500000000E-02 0.  1.
          2   -1    0    0  501    0  0.00000000000E+00 -0.00000000000E+00 -0.16704461337E+04  0.16704461337E+04  0.25500000000E-02 0. -1.
    8880023    1    1    2    0    0  0.21066455272E+03 -0.26565943850E+03 -0.14980169986E+04  0.16711731285E+04  0.65864270000E+03 0. -1.
    8880022    1    1    2    0    0 -0.21066455272E+03  0.26565943850E+03  0.31701561465E+03  0.48871775493E+03  0.15294330000E+03 0.  0.
<mgrwt>
<rscale>  0 0.62357787E+03</rscale>
<asrwt>0</asrwt>
<pdfrwt beam="1">  1        2 0.25699171E+00 0.74078654E+03</pdfrwt>
<pdfrwt beam="2">  1       -2 0.75299193E-01 0.74078654E+03</pdfrwt>
<totfact> 0.16584364E+01</totfact>
</mgrwt>
</event>
<event>
 4    1  0.1090021E-006  0.7916261E+03  0.7818608E-02  0.9729203E-01
          2   -1    0    0  501    0  0.00000000000E+00  0.00000000000E+00  0.13666374890E+04  0.13666374890E+04  0.25500000000E-02 0. -1.
         -2   -1    0    0    0  501 -0.00000000000E+00 -0.00000000000E+00 -0.21333332202E+04  0.21333332202E+04  0.25500000000E-02 0.  1.
    8880023    1    1    2    0    0  0.23279534637E+03  0.37238152552E+03  0.12228940962E+04  0.14567573067E+04  0.65864270000E+03 0. -1.
    8880022    1    1    2    0    0 -0.23279534637E+03 -0.37238152552E+03 -0.19895898274E+04  0.20432134025E+04  0.15294330000E+03 0.  0.
<mgrwt>
<rscale>  0 0.69304339E+03</rscale>
<asrwt>0</asrwt>
<pdfrwt beam="1">  1        2 0.21025192E+00 0.79162610E+03</pdfrwt>
<pdfrwt beam="2">  1       -2 0.32820511E+00 0.79162610E+03</pdfrwt>
<totfact> 0.33815355E-01</totfact>
</mgrwt>
</event>
<event>
 4    1  0.8287789E-007  0.7900403E+03  0.7818608E-02  0.9732760E-01
         -2   -1    0    0    0  501 -0.00000000000E+00  0.00000000000E+00  0.28237406725E+03  0.28237406726E+03  0.25500000000E-02 0.  1.
          2   -1    0    0  501    0  0.00000000000E+00 -0.00000000000E+00 -0.22739981004E+04  0.22739981004E+04  0.25500000000E-02 0. -1.
    8880023    1    1    2    0    0 -0.39112782234E+03  0.19331957169E+03 -0.19356494023E+04  0.20906702861E+04  0.65864270000E+03 0. -1.
    8880022    1    1    2    0    0  0.39112782234E+03 -0.19331957169E+03 -0.55974630862E+02  0.46570188160E+03  0.15294330000E+03 0.  0.
<mgrwt>
<rscale>  0 0.69099347E+03</rscale>
<asrwt>0</asrwt>
<pdfrwt beam="1">  1        2 0.34984585E+00 0.79004028E+03</pdfrwt>
<pdfrwt beam="2">  1       -2 0.43442166E-01 0.79004028E+03</pdfrwt>
<totfact> 0.24357824E+01</totfact>
</mgrwt>
</event>
<event>
 4    1  0.1081712E-006  0.9433309E+03  0.7818608E-02  0.9459775E-01
          2   -1    0    0  501    0  0.00000000000E+00  0.00000000000E+00  0.22274169216E+04  0.22274169216E+04  0.25500000000E-02 0. -1.
         -2   -1    0    0    0  501 -0.00000000000E+00 -0.00000000000E+00 -0.15221494975E+04  0.15221494975E+04  0.25500000000E-02 0.  1.
    8880023    1    1    2    0    0 -0.66976300486E+03  0.86490190094E+02  0.20390905514E+04  0.22467228398E+04  0.65864270000E+03 0.  0.
    8880022    1    1    2    0    0  0.66976300486E+03 -0.86490190094E+02 -0.13338231274E+04  0.15028435793E+04  0.15294330000E+03 0.  0.
<mgrwt>
<rscale>  0 0.87315531E+03</rscale>
<asrwt>0</asrwt>
<pdfrwt beam="1">  1        2 0.34267952E+00 0.94333093E+03</pdfrwt>
<pdfrwt beam="2">  1       -2 0.23417685E+00 0.94333093E+03</pdfrwt>
<totfact> 0.40725051E-01</totfact>
</mgrwt>
</event>
<event>
 4    1  0.8287789E-007  0.9687151E+03  0.7818608E-02  0.9423684E-01
         -2   -1    0    0    0  501 -0.00000000000E+00  0.00000000000E+00  0.43036280718E+03  0.43036280719E+03  0.25500000000E-02 0.  1.
          2   -1    0    0  501    0  0.00000000000E+00 -0.00000000000E+00 -0.16702443938E+04  0.16702443938E+04  0.25500000000E-02 0. -1.
    8880023    1    1    2    0    0 -0.47903779678E+03  0.52452025880E+03 -0.68855608523E+03  0.11884941739E+04  0.65864270000E+03 0.  0.
    8880022    1    1    2    0    0  0.47903779678E+03 -0.52452025880E+03 -0.55132550135E+03  0.91211302704E+03  0.15294330000E+03 0.  1.
<mgrwt>
<rscale>  0 0.90151986E+03</rscale>
<asrwt>0</asrwt>
<pdfrwt beam="1">  1        2 0.25696067E+00 0.96871509E+03</pdfrwt>
<pdfrwt beam="2">  1       -2 0.66209664E-01 0.96871509E+03</pdfrwt>
<totfact> 0.21429950E+01</totfact>
</mgrwt>
</event>
<event>
 4    1  0.8287789E-007  0.7218020E+03  0.7818608E-02  0.9916535E-01
         -2   -1    0    0    0  501 -0.00000000000E+00  0.00000000000E+00  0.23065897026E+04  0.23065897026E+04  0.25500000000E-02 0.  1.
          2   -1    0    0  501    0  0.00000000000E+00 -0.00000000000E+00 -0.10341169758E+04  0.10341169758E+04  0.25500000000E-02 0. -1.
    8880023    1    1    2    0    0 -0.29502147668E+03 -0.12259478287E+02 -0.89391362845E+03  0.11489472346E+04  0.65864270000E+03 0.  0.
    8880022    1    1    2    0    0  0.29502147668E+03  0.12259478287E+02  0.21663863552E+04  0.21917594438E+04  0.15294330000E+03 0.  1.
<mgrwt>
<rscale>  0 0.59466580E+03</rscale>
<asrwt>0</asrwt>
<pdfrwt beam="1">  1        2 0.15909492E+00 0.72180203E+03</pdfrwt>
<pdfrwt beam="2">  1       -2 0.35485995E+00 0.72180203E+03</pdfrwt>
<totfact> 0.37062429E-01</totfact>
</mgrwt>
</event>
<event>
 4    1  0.8287789E-007  0.8697167E+03  0.7818608E-02  0.9576508E-01
          2   -1    0    0  501    0  0.00000000000E+00  0.00000000000E+00  0.24400797482E+04  0.24400797482E+04  0.25500000000E-02 0. -1.
         -2   -1    0    0    0  501 -0.00000000000E+00 -0.00000000000E+00 -0.46592281274E+03  0.46592281275E+03  0.25500000000E-02 0.  1.
    8880023    1    1    2    0    0  0.56774092164E+03  0.16343812902E+02  0.21272713966E+04  0.22981929152E+04  0.65864270000E+03 0. -1.
    8880022    1    1    2    0    0 -0.56774092164E+03 -0.16343812902E+02 -0.15311446110E+03  0.60780964581E+03  0.15294330000E+03 0.  0.
<mgrwt>
<rscale>  0 0.78870766E+03</rscale>
<asrwt>0</asrwt>
<pdfrwt beam="1">  1        2 0.37539689E+00 0.86971667E+03</pdfrwt>
<pdfrwt beam="2">  1       -2 0.71680432E-01 0.86971667E+03</pdfrwt>
<totfact> 0.68385211E+00</totfact>
</mgrwt>
</event>
<event>
 4    1  0.8287789E-007  0.9037072E+03  0.7818608E-02  0.9520106E-01
         -2   -1    0    0    0  501 -0.00000000000E+00  0.00000000000E+00  0.24956515084E+03  0.24956515085E+03  0.25500000000E-02 0.  1.
          2   -1    0    0  501    0  0.00000000000E+00 -0.00000000000E+00 -0.28922618848E+04  0.28922618848E+04  0.25500000000E-02 0. -1.
    8880023    1    1    2    0    0  0.61628427099E+03  0.55408602488E+02 -0.21626838883E+04  0.23439044824E+04  0.65864270000E+03 0.  0.
    8880022    1    1    2    0    0 -0.61628427099E+03 -0.55408602488E+02 -0.48001284569E+03  0.79792255322E+03  0.15294330000E+03 0.  0.
<mgrwt>
<rscale>  0 0.82817550E+03</rscale>
<asrwt>0</asrwt>
<pdfrwt beam="1">  1        2 0.44496334E+00 0.90370716E+03</pdfrwt>
<pdfrwt beam="2">  1       -2 0.38394640E-01 0.90370716E+03</pdfrwt>
<totfact> 0.13449368E+01</totfact>
</mgrwt>
</event>
<event>
 4    1  0.8287789E-007  0.6944572E+03  0.7818608E-02  0.1002102E+00
         -2   -1    0    0    0  501 -0.00000000000E+00  0.00000000000E+00  0.23636924027E+04  0.23636924027E+04  0.25500000000E-02 0.  1.
          2   -1    0    0  501    0  0.00000000000E+00 -0.00000000000E+00 -0.14536309201E+03  0.14536309203E+03  0.25500000000E-02 0. -1.
    8880023    1    1    2    0    0  0.21165590335E+03 -0.60517589405E+02  0.77322792479E+03  0.10393037236E+04  0.65864270000E+03 0. -1.
    8880022    1    1    2    0    0 -0.21165590335E+03  0.60517589405E+02  0.14451013859E+04  0.14697517711E+04  0.15294330000E+03 0.  0.
<mgrwt>
<rscale>  0 0.54738030E+03</rscale>
<asrwt>0</asrwt>
<pdfrwt beam="1">  1        2 0.22363554E-01 0.69445720E+03</pdfrwt>
<pdfrwt beam="2">  1       -2 0.36364496E+00 0.69445720E+03</pdfrwt>
<totfact> 0.33776172E+00</totfact>
</mgrwt>
</event>
<event>
 4    1  0.8287789E-007  0.9613586E+03  0.7818608E-02  0.9433956E-01
          2   -1    0    0  501    0  0.00000000000E+00  0.00000000000E+00  0.19465249196E+04  0.19465249196E+04  0.25500000000E-02 0. -1.
         -2   -1    0    0    0  501 -0.00000000000E+00 -0.00000000000E+00 -0.51070780356E+03  0.51070780356E+03  0.25500000000E-02 0.  1.
    8880023    1    1    2    0    0 -0.27836398378E+03  0.64258355543E+03  0.14506505212E+04  0.17402865494E+04  0.65864270000E+03 0. -1.
    8880022    1    1    2    0    0  0.27836398378E+03 -0.64258355543E+03 -0.14833405129E+02  0.71694617378E+03  0.15294330000E+03 0.  0.
<mgrwt>
<rscale>  0 0.89333110E+03</rscale>
<asrwt>0</asrwt>
<pdfrwt beam="1">  1        2 0.29946537E+00 0.96135859E+03</pdfrwt>
<pdfrwt beam="2">  1       -2 0.78570432E-01 0.96135859E+03</pdfrwt>
<totfact> 0.10360266E+01</totfact>
</mgrwt>
</event>
<event>
 4    1  0.8287789E-007  0.7346574E+03  0.7818608E-02  0.9875792E-01
         -2   -1    0    0    0  501 -0.00000000000E+00  0.00000000000E+00  0.26185759691E+03  0.26185759692E+03  0.25500000000E-02 0.  1.
          2   -1    0    0  501    0  0.00000000000E+00 -0.00000000000E+00 -0.11856906219E+04  0.11856906219E+04  0.25500000000E-02 0. -1.
    8880023    1    1    2    0    0  0.30712574868E+03  0.10763419689E+03 -0.74365983486E+03  0.10453475509E+04  0.65864270000E+03 0. -1.
    8880022    1    1    2    0    0 -0.30712574868E+03 -0.10763419689E+03 -0.18017319012E+03  0.40220066795E+03  0.15294330000E+03 0.  1.
<mgrwt>
<rscale>  0 0.61448988E+03</rscale>
<asrwt>0</asrwt>
<pdfrwt beam="1">  1        2 0.18241394E+00 0.73465744E+03</pdfrwt>
<pdfrwt beam="2">  1       -2 0.40285785E-01 0.73465744E+03</pdfrwt>
<totfact> 0.11442264E+02</totfact>
</mgrwt>
</event>
<event>
 4    1  0.8287789E-007  0.6647166E+03  0.7818608E-02  0.1019772E+00
          2   -1    0    0  501    0  0.00000000000E+00  0.00000000000E+00  0.81592819778E+03  0.81592819778E+03  0.25500000000E-02 0. -1.
         -2   -1    0    0    0  501 -0.00000000000E+00 -0.00000000000E+00 -0.63512749226E+03  0.63512749227E+03  0.25500000000E-02 0.  1.
    8880023    1    1    2    0    0  0.82279323214E+02  0.35609490718E+02  0.66206411064E+03  0.93817749692E+03  0.65864270000E+03 0. -1.
    8880022    1    1    2    0    0 -0.82279323214E+02 -0.35609490718E+02 -0.48126340513E+03  0.51287819313E+03  0.15294330000E+03 0.  0.
<mgrwt>
<rscale>  0 0.47768840E+03</rscale>
<asrwt>0</asrwt>
<pdfrwt beam="1">  1        2 0.12552742E+00 0.66471658E+03</pdfrwt>
<pdfrwt beam="2">  1       -2 0.97711922E-01 0.66471658E+03</pdfrwt>
<totfact> 0.29930475E+01</totfact>
</mgrwt>
</event>
<event>
 4    1  0.8287789E-007  0.8154763E+03  0.7818608E-02  0.9678281E-01
         -2   -1    0    0    0  501 -0.00000000000E+00  0.00000000000E+00  0.21491719423E+03  0.21491719425E+03  0.25500000000E-02 0.  1.
          2   -1    0    0  501    0  0.00000000000E+00 -0.00000000000E+00 -0.26710410984E+04  0.26710410984E+04  0.25500000000E-02 0. -1.
    8880023    1    1    2    0    0 -0.46439862829E+03  0.12460060530E+03 -0.21410765932E+04  0.22911155757E+04  0.65864270000E+03 0. -1.
    8880022    1    1    2    0    0  0.46439862829E+03 -0.12460060530E+03 -0.31504731097E+03  0.59484271699E+03  0.15294330000E+03 0.  0.
<mgrwt>
<rscale>  0 0.72324792E+03</rscale>
<asrwt>0</asrwt>
<pdfrwt beam="1">  1        2 0.41092938E+00 0.81547630E+03</pdfrwt>
<pdfrwt beam="2">  1       -2 0.33064186E-01 0.81547630E+03</pdfrwt>
<totfact> 0.24507046E+01</totfact>
</mgrwt>
</event>
<event>
 4    1  0.8287789E-007  0.7319407E+03  0.7818608E-02  0.9884077E-01
          2   -1    0    0  501    0  0.00000000000E+00  0.00000000000E+00  0.20631830003E+04  0.20631830003E+04  0.25500000000E-02 0. -1.
         -2   -1    0    0    0  501 -0.00000000000E+00 -0.00000000000E+00 -0.35978597009E+03  0.35978597010E+03  0.25500000000E-02 0.  1.
    8880023    1    1    2    0    0 -0.24289718109E+03 -0.20719052942E+03  0.18871452009E+04  0.20241181220E+04  0.65864270000E+03 0. -1.
    8880022    1    1    2    0    0  0.24289718109E+03  0.20719052942E+03 -0.18374817069E+03  0.39885084845E+03  0.15294330000E+03 0.  0.
<mgrwt>
<rscale>  0 0.61039204E+03</rscale>
<asrwt>0</asrwt>
<pdfrwt beam="1">  1        2 0.31741277E+00 0.73194068E+03</pdfrwt>
<pdfrwt beam="2">  1       -2 0.55351687E-01 0.73194068E+03</pdfrwt>
<totfact> 0.19622153E+01</totfact>
</mgrwt>
</event>
<event>
 4    1  0.8287789E-007  0.6736223E+03  0.7818608E-02  0.1013189E+00
         -2   -1    0    0    0  501 -0.00000000000E+00  0.00000000000E+00  0.53642059057E+03  0.53642059058E+03  0.25500000000E-02 0.  1.
          2   -1    0    0  501    0  0.00000000000E+00 -0.00000000000E+00 -0.75882535634E+03  0.75882535635E+03  0.25500000000E-02 0. -1.
    8880023    1    1    2    0    0 -0.46429091714E+02 -0.13342099300E+03 -0.57507236123E+03  0.88570607362E+03  0.65864270000E+03 0. -1.
    8880022    1    1    2    0    0  0.46429091714E+02  0.13342099300E+03  0.35266759546E+03  0.40953987331E+03  0.15294330000E+03 0.  0.
<mgrwt>
<rscale>  0 0.50226635E+03</rscale>
<asrwt>0</asrwt>
<pdfrwt beam="1">  1        2 0.11674236E+00 0.67362232E+03</pdfrwt>
<pdfrwt beam="2">  1       -2 0.82526245E-01 0.67362232E+03</pdfrwt>
<totfact> 0.48530933E+01</totfact>
</mgrwt>
</event>
<event>
 4    1  0.8287789E-007  0.8066016E+03  0.7818608E-02  0.9696700E-01
          2   -1    0    0  501    0  0.00000000000E+00  0.00000000000E+00  0.10797944583E+04  0.10797944583E+04  0.25500000000E-02 0. -1.
         -2   -1    0    0    0  501 -0.00000000000E+00 -0.00000000000E+00 -0.11093313997E+04  0.11093313997E+04  0.25500000000E-02 0.  1.
    8880023    1    1    2    0    0 -0.21942589658E+03 -0.41066806186E+03  0.85653766560E+03  0.11765470496E+04  0.65864270000E+03 0. -1.
    8880022    1    1    2    0    0  0.21942589658E+03  0.41066806186E+03 -0.88607460698E+03  0.10125788084E+04  0.15294330000E+03 0.  0.
<mgrwt>
<rscale>  0 0.71213635E+03</rscale>
<asrwt>0</asrwt>
<pdfrwt beam="1">  1        2 0.16612222E+00 0.80660163E+03</pdfrwt>
<pdfrwt beam="2">  1       -2 0.17066637E+00 0.80660163E+03</pdfrwt>
<totfact> 0.47918021E+00</totfact>
</mgrwt>
</event>
<event>
 4    1  0.8287789E-007  0.7308700E+03  0.7818608E-02  0.9887388E-01
         -2   -1    0    0    0  501 -0.00000000000E+00  0.00000000000E+00  0.42366520739E+03  0.42366520740E+03  0.25500000000E-02 0.  1.
          2   -1    0    0  501    0  0.00000000000E+00 -0.00000000000E+00 -0.13532949523E+04  0.13532949523E+04  0.25500000000E-02 0. -1.
    8880023    1    1    2    0    0  0.21463081476E+03 -0.23301150371E+03 -0.11494572328E+04  0.13621390838E+04  0.65864270000E+03 0. -1.
    8880022    1    1    2    0    0 -0.21463081476E+03  0.23301150371E+03  0.21982748788E+03  0.41482107583E+03  0.15294330000E+03 0.  0.
<mgrwt>
<rscale>  0 0.60876448E+03</rscale>
<asrwt>0</asrwt>
<pdfrwt beam="1">  1        2 0.20819922E+00 0.73087000E+03</pdfrwt>
<pdfrwt beam="2">  1       -2 0.65179263E-01 0.73087000E+03</pdfrwt>
<totfact> 0.34170337E+01</totfact>
</mgrwt>
</event>
<event>
 4    1  0.8287789E-007  0.8178193E+03  0.7818608E-02  0.9673514E-01
          2   -1    0    0  501    0  0.00000000000E+00  0.00000000000E+00  0.63197635400E+03  0.63197635400E+03  0.25500000000E-02 0. -1.
         -2   -1    0    0    0  501 -0.00000000000E+00 -0.00000000000E+00 -0.72881761315E+03  0.72881761315E+03  0.25500000000E-02 0.  1.
    8880023    1    1    2    0    0 -0.48477032379E+03  0.39930131351E+01  0.81980948753E+02  0.82191805748E+03  0.65864270000E+03 0.  0.
    8880022    1    1    2    0    0  0.48477032379E+03 -0.39930131351E+01 -0.17882220790E+03  0.53887590968E+03  0.15294330000E+03 0. -1.
<mgrwt>
<rscale>  0 0.72615888E+03</rscale>
<asrwt>0</asrwt>
<pdfrwt beam="1">  1        2 0.97227132E-01 0.81781931E+03</pdfrwt>
<pdfrwt beam="2">  1       -2 0.11212579E+00 0.81781931E+03</pdfrwt>
<totfact> 0.29416277E+01</totfact>
</mgrwt>
</event>
<event>
 4    1  0.8287789E-007  0.9278971E+03  0.7818608E-02  0.9482655E-01
          2   -1    0    0  501    0  0.00000000000E+00  0.00000000000E+00  0.37086583766E+04  0.37086583766E+04  0.25500000000E-02 0. -1.
         -2   -1    0    0    0  501 -0.00000000000E+00 -0.00000000000E+00 -0.30807126099E+03  0.30807126100E+03  0.25500000000E-02 0.  1.
    8880023    1    1    2    0    0  0.65246157664E+03  0.38428234856E+02  0.31762097016E+04  0.33089728184E+04  0.65864270000E+03 0.  0.
    8880022    1    1    2    0    0 -0.65246157664E+03 -0.38428234856E+02  0.22437741407E+03  0.70775681925E+03  0.15294330000E+03 0.  0.
<mgrwt>
<rscale>  0 0.85574760E+03</rscale>
<asrwt>0</asrwt>
<pdfrwt beam="1">  1        2 0.57056277E+00 0.92789711E+03</pdfrwt>
<pdfrwt beam="2">  1       -2 0.47395583E-01 0.92789711E+03</pdfrwt>
<totfact> 0.25650825E+00</totfact>
</mgrwt>
</event>
<event>
 4    1  0.8287789E-007  0.7954648E+03  0.7818608E-02  0.9720689E-01
         -2   -1    0    0    0  501 -0.00000000000E+00  0.00000000000E+00  0.25905717185E+03  0.25905717186E+03  0.25500000000E-02 0.  1.
          2   -1    0    0  501    0  0.00000000000E+00 -0.00000000000E+00 -0.15493807114E+04  0.15493807114E+04  0.25500000000E-02 0. -1.
    8880023    1    1    2    0    0 -0.19442960526E+03  0.40143631384E+03 -0.82039466194E+03  0.11427211353E+04  0.65864270000E+03 0.  1.
    8880022    1    1    2    0    0  0.19442960526E+03 -0.40143631384E+03 -0.46992887760E+03  0.66571674794E+03  0.15294330000E+03 0.  1.
<mgrwt>
<rscale>  0 0.69798210E+03</rscale>
<asrwt>0</asrwt>
<pdfrwt beam="1">  1        2 0.23836626E+00 0.79546476E+03</pdfrwt>
<pdfrwt beam="2">  1       -2 0.39854950E-01 0.79546476E+03</pdfrwt>
<totfact> 0.72068725E+01</totfact>
</mgrwt>
</event>
<event>
 4    1  0.8287789E-007  0.6957346E+03  0.7818608E-02  0.1001538E+00
          2   -1    0    0  501    0  0.00000000000E+00  0.00000000000E+00  0.18615459364E+04  0.18615459364E+04  0.25500000000E-02 0. -1.
         -2   -1    0    0    0  501 -0.00000000000E+00 -0.00000000000E+00 -0.26218727210E+03  0.26218727212E+03  0.25500000000E-02 0.  1.
    8880023    1    1    2    0    0 -0.21680107893E+03  0.56865432233E+02  0.16980064073E+04  0.18350129020E+04  0.65864270000E+03 0. -1.
    8880022    1    1    2    0    0  0.21680107893E+03 -0.56865432233E+02 -0.98647742924E+02  0.28872030654E+03  0.15294330000E+03 0.  0.
<mgrwt>
<rscale>  0 0.54981058E+03</rscale>
<asrwt>0</asrwt>
<pdfrwt beam="1">  1        2 0.28639167E+00 0.69573457E+03</pdfrwt>
<pdfrwt beam="2">  1       -2 0.40336505E-01 0.69573457E+03</pdfrwt>
<totfact> 0.48003051E+01</totfact>
</mgrwt>
</event>
<event>
 4    1  0.8287789E-007  0.7699507E+03  0.7818608E-02  0.9779995E-01
          2   -1    0    0  501    0  0.00000000000E+00  0.00000000000E+00  0.91332169079E+03  0.91332169080E+03  0.25500000000E-02 0. -1.
         -2   -1    0    0    0  501 -0.00000000000E+00 -0.00000000000E+00 -0.13651209161E+04  0.13651209161E+04  0.25500000000E-02 0.  1.
    8880023    1    1    2    0    0 -0.38344388806E+03  0.10947462908E+03  0.70584413249E+03  0.10445286283E+04  0.65864270000E+03 0.  0.
    8880022    1    1    2    0    0  0.38344388806E+03 -0.10947462908E+03 -0.11576433578E+04  0.12339139786E+04  0.15294330000E+03 0.  0.
<mgrwt>
<rscale>  0 0.66447242E+03</rscale>
<asrwt>0</asrwt>
<pdfrwt beam="1">  1        2 0.14051103E+00 0.76995072E+03</pdfrwt>
<pdfrwt beam="2">  1       -2 0.21001860E+00 0.76995072E+03</pdfrwt>
<totfact> 0.33596963E+00</totfact>
</mgrwt>
</event>
<event>
 4    1  0.8287789E-007  0.8740167E+03  0.7818608E-02  0.9569101E-01
          2   -1    0    0  501    0  0.00000000000E+00  0.00000000000E+00  0.20756740697E+04  0.20756740697E+04  0.25500000000E-02 0. -1.
         -2   -1    0    0    0  501 -0.00000000000E+00 -0.00000000000E+00 -0.52872590605E+03  0.52872590606E+03  0.25500000000E-02 0.  1.
    8880023    1    1    2    0    0  0.12132965572E+03 -0.56158176001E+03  0.17662706377E+04  0.19706895063E+04  0.65864270000E+03 0. -1.
    8880022    1    1    2    0    0 -0.12132965572E+03  0.56158176001E+03 -0.21932247398E+03  0.63371046949E+03  0.15294330000E+03 0.  1.
<mgrwt>
<rscale>  0 0.79375489E+03</rscale>
<asrwt>0</asrwt>
<pdfrwt beam="1">  1        2 0.31933447E+00 0.87401668E+03</pdfrwt>
<pdfrwt beam="2">  1       -2 0.81342448E-01 0.87401668E+03</pdfrwt>
<totfact> 0.82245803E+00</totfact>
</mgrwt>
</event>
<event>
 4    1  0.8287789E-007  0.8480989E+03  0.7818608E-02  0.9615094E-01
         -2   -1    0    0    0  501 -0.00000000000E+00  0.00000000000E+00  0.31271218629E+03  0.31271218630E+03  0.25500000000E-02 0.  1.
          2   -1    0    0  501    0  0.00000000000E+00 -0.00000000000E+00 -0.17561196590E+04  0.17561196590E+04  0.25500000000E-02 0. -1.
    8880023    1    1    2    0    0  0.48405150237E+03 -0.22617612795E+03 -0.53137044845E+03  0.10008127985E+04  0.65864270000E+03 0. -1.
    8880022    1    1    2    0    0 -0.48405150237E+03  0.22617612795E+03 -0.91203702428E+03  0.10680190469E+04  0.15294330000E+03 0.  1.
<mgrwt>
<rscale>  0 0.76305154E+03</rscale>
<asrwt>0</asrwt>
<pdfrwt beam="1">  1        2 0.27017225E+00 0.84809888E+03</pdfrwt>
<pdfrwt beam="2">  1       -2 0.48109568E-01 0.84809888E+03</pdfrwt>
<totfact> 0.37947176E+01</totfact>
</mgrwt>
</event>
<event>
 4    1  0.8287789E-007  0.8466491E+03  0.7818608E-02  0.9617768E-01
         -2   -1    0    0    0  501 -0.00000000000E+00  0.00000000000E+00  0.44075604257E+03  0.44075604257E+03  0.25500000000E-02 0.  1.
          2   -1    0    0  501    0  0.00000000000E+00 -0.00000000000E+00 -0.11168945181E+04  0.11168945181E+04  0.25500000000E-02 0. -1.
    8880023    1    1    2    0    0  0.52893280192E+03  0.56873631378E+02 -0.45889236379E+03  0.96301449974E+03  0.65864270000E+03 0. -1.
    8880022    1    1    2    0    0 -0.52893280192E+03 -0.56873631378E+02 -0.21724611176E+03  0.59463606095E+03  0.15294330000E+03 0.  1.
<mgrwt>
<rscale>  0 0.76131259E+03</rscale>
<asrwt>0</asrwt>
<pdfrwt beam="1">  1        2 0.17182993E+00 0.84664912E+03</pdfrwt>
<pdfrwt beam="2">  1       -2 0.67808622E-01 0.84664912E+03</pdfrwt>
<totfact> 0.42732154E+01</totfact>
</mgrwt>
</event>
<event>
 4    1  0.8287789E-007  0.6773150E+03  0.7818608E-02  0.1010885E+00
         -2   -1    0    0    0  501 -0.00000000000E+00  0.00000000000E+00  0.16506950332E+03  0.16506950334E+03  0.25500000000E-02 0.  1.
          2   -1    0    0  501    0  0.00000000000E+00 -0.00000000000E+00 -0.22061257942E+04  0.22061257942E+04  0.25500000000E-02 0. -1.
    8880023    1    1    2    0    0  0.13857283616E+03  0.75782181517E+02 -0.20419339155E+04  0.21513367221E+04  0.65864270000E+03 0. -1.
    8880022    1    1    2    0    0 -0.13857283616E+03 -0.75782181517E+02  0.87762470591E+00  0.21985857544E+03  0.15294330000E+03 0.  0.
<mgrwt>
<rscale>  0 0.51124373E+03</rscale>
<asrwt>0</asrwt>
<pdfrwt beam="1">  1        2 0.33940395E+00 0.67731498E+03</pdfrwt>
<pdfrwt beam="2">  1       -2 0.25395310E-01 0.67731498E+03</pdfrwt>
<totfact> 0.74317747E+01</totfact>
</mgrwt>
</event>
<event>
 4    1  0.8287789E-007  0.7978475E+03  0.7818608E-02  0.9715470E-01
          2   -1    0    0  501    0  0.00000000000E+00  0.00000000000E+00  0.68211470968E+03  0.68211470968E+03  0.25500000000E-02 0. -1.
         -2   -1    0    0    0  501 -0.00000000000E+00 -0.00000000000E+00 -0.34012978523E+04  0.34012978523E+04  0.25500000000E-02 0.  1.
    8880023    1    1    2    0    0 -0.70101041755E+02  0.44478793763E+03  0.42464870602E+03  0.90381812070E+03  0.65864270000E+03 0. -1.
    8880022    1    1    2    0    0  0.70101041755E+02 -0.44478793763E+03 -0.31438318487E+04  0.31795944413E+04  0.15294330000E+03 0.  0.
<mgrwt>
<rscale>  0 0.70103162E+03</rscale>
<asrwt>0</asrwt>
<pdfrwt beam="1">  1        2 0.10494073E+00 0.79784752E+03</pdfrwt>
<pdfrwt beam="2">  1       -2 0.52327658E+00 0.79784752E+03</pdfrwt>
<totfact> 0.52676183E-02</totfact>
</mgrwt>
</event>
<event>
 4    1  0.8287789E-007  0.7989854E+03  0.7818608E-02  0.9712994E-01
         -2   -1    0    0    0  501 -0.00000000000E+00  0.00000000000E+00  0.22233260798E+03  0.22233260800E+03  0.25500000000E-02 0.  1.
          2   -1    0    0  501    0  0.00000000000E+00 -0.00000000000E+00 -0.30900736382E+04  0.30900736382E+04  0.25500000000E-02 0. -1.
    8880023    1    1    2    0    0 -0.15341409533E+03  0.42547802602E+03 -0.26847031064E+04  0.28010727251E+04  0.65864270000E+03 0.  0.
    8880022    1    1    2    0    0  0.15341409533E+03 -0.42547802602E+03 -0.18303792381E+03  0.51133352114E+03  0.15294330000E+03 0.  0.
<mgrwt>
<rscale>  0 0.70248368E+03</rscale>
<asrwt>0</asrwt>
<pdfrwt beam="1">  1        2 0.47539591E+00 0.79898538E+03</pdfrwt>
<pdfrwt beam="2">  1       -2 0.34205019E-01 0.79898538E+03</pdfrwt>
<totfact> 0.12902555E+01</totfact>
</mgrwt>
</event>
<event>
 4    1  0.8287789E-007  0.8983869E+03  0.7818608E-02  0.9528626E-01
         -2   -1    0    0    0  501 -0.00000000000E+00  0.00000000000E+00  0.28538910117E+03  0.28538910118E+03  0.25500000000E-02 0.  1.
          2   -1    0    0  501    0  0.00000000000E+00 -0.00000000000E+00 -0.38083963435E+04  0.38083963435E+04  0.25500000000E-02 0. -1.
    8880023    1    1    2    0    0 -0.49760470414E+03  0.35451146453E+03 -0.33087000679E+04  0.34284975084E+04  0.65864270000E+03 0.  0.
    8880022    1    1    2    0    0  0.49760470414E+03 -0.35451146453E+03 -0.21430717448E+03  0.66528793625E+03  0.15294330000E+03 0.  0.
<mgrwt>
<rscale>  0 0.82205838E+03</rscale>
<asrwt>0</asrwt>
<pdfrwt beam="1">  1        2 0.58590709E+00 0.89838690E+03</pdfrwt>
<pdfrwt beam="2">  1       -2 0.43906018E-01 0.89838690E+03</pdfrwt>
<totfact> 0.25390412E+00</totfact>
</mgrwt>
</event>
<event>
 4    1  0.8287789E-007  0.7277811E+03  0.7818608E-02  0.9897086E-01
         -2   -1    0    0    0  501 -0.00000000000E+00  0.00000000000E+00  0.14545018561E+03  0.14545018563E+03  0.25500000000E-02 0.  1.
          2   -1    0    0  501    0  0.00000000000E+00 -0.00000000000E+00 -0.32909261528E+04  0.32909261528E+04  0.25500000000E-02 0. -1.
    8880023    1    1    2    0    0  0.26745283943E+03  0.15596201667E+03 -0.29523289433E+04  0.30407090567E+04  0.65864270000E+03 0. -1.
    8880022    1    1    2    0    0 -0.26745283943E+03 -0.15596201667E+03 -0.19314702389E+03  0.39566728171E+03  0.15294330000E+03 0.  0.
<mgrwt>
<rscale>  0 0.60402713E+03</rscale>
<asrwt>0</asrwt>
<pdfrwt beam="1">  1        2 0.50629627E+00 0.72778113E+03</pdfrwt>
<pdfrwt beam="2">  1       -2 0.22376954E-01 0.72778113E+03</pdfrwt>
<totfact> 0.21195871E+01</totfact>
</mgrwt>
</event>
<event>
 4    1  0.8287789E-007  0.7666176E+03  0.7818608E-02  0.9788267E-01
         -2   -1    0    0    0  501 -0.00000000000E+00  0.00000000000E+00  0.16771707327E+04  0.16771707327E+04  0.25500000000E-02 0.  1.
          2   -1    0    0  501    0  0.00000000000E+00 -0.00000000000E+00 -0.26624351837E+03  0.26624351838E+03  0.25500000000E-02 0. -1.
    8880023    1    1    2    0    0 -0.14935005044E+03  0.36274913595E+03  0.43713078787E+03  0.88248847311E+03  0.65864270000E+03 0.  0.
    8880022    1    1    2    0    0  0.14935005044E+03 -0.36274913595E+03  0.97379642650E+03  0.10609257780E+04  0.15294330000E+03 0.  0.
<mgrwt>
<rscale>  0 0.65996028E+03</rscale>
<asrwt>0</asrwt>
<pdfrwt beam="1">  1        2 0.40960540E-01 0.76661762E+03</pdfrwt>
<pdfrwt beam="2">  1       -2 0.25802627E+00 0.76661762E+03</pdfrwt>
<totfact> 0.73884745E+00</totfact>
</mgrwt>
</event>
<event>
 4    1  0.8287789E-007  0.7226518E+03  0.7818608E-02  0.9913713E-01
          2   -1    0    0  501    0  0.00000000000E+00  0.00000000000E+00  0.19716880424E+04  0.19716880424E+04  0.25500000000E-02 0. -1.
         -2   -1    0    0    0  501 -0.00000000000E+00 -0.00000000000E+00 -0.16364405527E+03  0.16364405529E+03  0.25500000000E-02 0.  1.
    8880023    1    1    2    0    0  0.24432184420E+03  0.16947643369E+03  0.15591893299E+04  0.17185159289E+04  0.65864270000E+03 0. -1.
    8880022    1    1    2    0    0 -0.24432184420E+03 -0.16947643369E+03  0.24885465722E+03  0.41681616879E+03  0.15294330000E+03 0.  0.
<mgrwt>
<rscale>  0 0.59601266E+03</rscale>
<asrwt>0</asrwt>
<pdfrwt beam="1">  1        2 0.30333665E+00 0.72265181E+03</pdfrwt>
<pdfrwt beam="2">  1       -2 0.25176006E-01 0.72265181E+03</pdfrwt>
<totfact> 0.10085760E+02</totfact>
</mgrwt>
</event>
<event>
 4    1  0.8287789E-007  0.9055728E+03  0.7818608E-02  0.9517144E-01
         -2   -1    0    0    0  501 -0.00000000000E+00  0.00000000000E+00  0.47979705426E+03  0.47979705426E+03  0.25500000000E-02 0.  1.
          2   -1    0    0  501    0  0.00000000000E+00 -0.00000000000E+00 -0.19306534390E+04  0.19306534390E+04  0.25500000000E-02 0. -1.
    8880023    1    1    2    0    0  0.57310612435E+03 -0.24041899598E+03 -0.15172840464E+04  0.17669784965E+04  0.65864270000E+03 0. -1.
    8880022    1    1    2    0    0 -0.57310612435E+03  0.24041899598E+03  0.66427661627E+02  0.64347199678E+03  0.15294330000E+03 0.  0.
<mgrwt>
<rscale>  0 0.83031580E+03</rscale>
<asrwt>0</asrwt>
<pdfrwt beam="1">  1        2 0.29702360E+00 0.90557282E+03</pdfrwt>
<pdfrwt beam="2">  1       -2 0.73814932E-01 0.90557282E+03</pdfrwt>
<totfact> 0.12229410E+01</totfact>
</mgrwt>
</event>
<event>
 4    1  0.8287789E-007  0.8594919E+03  0.7818608E-02  0.9594468E-01
          2   -1    0    0  501    0  0.00000000000E+00  0.00000000000E+00  0.12245044646E+04  0.12245044646E+04  0.25500000000E-02 0. -1.
         -2   -1    0    0    0  501 -0.00000000000E+00 -0.00000000000E+00 -0.11453286577E+04  0.11453286577E+04  0.25500000000E-02 0.  1.
    8880023    1    1    2    0    0 -0.48501660376E+03  0.26396033456E+03  0.97919595785E+03  0.13029010301E+04  0.65864270000E+03 0. -1.
    8880022    1    1    2    0    0  0.48501660376E+03 -0.26396033456E+03 -0.90002015096E+03  0.10669320922E+04  0.15294330000E+03 0.  0.
<mgrwt>
<rscale>  0 0.77663419E+03</rscale>
<asrwt>0</asrwt>
<pdfrwt beam="1">  1        2 0.18838530E+00 0.85949193E+03</pdfrwt>
<pdfrwt beam="2">  1       -2 0.17620441E+00 0.85949193E+03</pdfrwt>
<totfact> 0.35587751E+00</totfact>
</mgrwt>
</event>
<event>
 4    1  0.8287789E-007  0.1162232E+04  0.7818608E-02  0.9194740E-01
         -2   -1    0    0    0  501 -0.00000000000E+00  0.00000000000E+00  0.51507594835E+03  0.51507594836E+03  0.25500000000E-02 0.  1.
          2   -1    0    0  501    0  0.00000000000E+00 -0.00000000000E+00 -0.26116356583E+04  0.26116356583E+04  0.25500000000E-02 0. -1.
    8880023    1    1    2    0    0  0.49134873528E+03 -0.82191769294E+03 -0.17421635611E+04  0.20942579482E+04  0.65864270000E+03 0.  0.
    8880022    1    1    2    0    0 -0.49134873528E+03  0.82191769294E+03 -0.35439614890E+03  0.10324536585E+04  0.15294330000E+03 0.  0.
<mgrwt>
<rscale>  0 0.11107889E+04</rscale>
<asrwt>0</asrwt>
<pdfrwt beam="1">  1        2 0.40179009E+00 0.11622317E+04</pdfrwt>
<pdfrwt beam="2">  1       -2 0.79242455E-01 0.11622317E+04</pdfrwt>
<totfact> 0.41969732E+00</totfact>
</mgrwt>
</event>
<event>
 4    1  0.8287789E-007  0.8271924E+03  0.7818608E-02  0.9654820E-01
          2   -1    0    0  501    0  0.00000000000E+00  0.00000000000E+00  0.21294278647E+04  0.21294278647E+04  0.25500000000E-02 0. -1.
         -2   -1    0    0    0  501 -0.00000000000E+00 -0.00000000000E+00 -0.63103407463E+03  0.63103407463E+03  0.25500000000E-02 0.  1.
    8880023    1    1    2    0    0  0.38066012811E+03 -0.32486128157E+03 -0.30580466807E+03  0.88190911474E+03  0.65864270000E+03 0.  1.
    8880022    1    1    2    0    0 -0.38066012811E+03  0.32486128157E+03  0.18041984581E+04  0.18785528246E+04  0.15294330000E+03 0.  0.
<mgrwt>
<rscale>  0 0.73771692E+03</rscale>
<asrwt>0</asrwt>
<pdfrwt beam="1">  1        2 0.32760429E+00 0.82719235E+03</pdfrwt>
<pdfrwt beam="2">  1       -2 0.97082166E-01 0.82719235E+03</pdfrwt>
<totfact> 0.51444296E+00</totfact>
</mgrwt>
</event>
<event>
 4    1  0.8592848E-007  0.6936544E+03  0.7818608E-02  0.1002462E+00
          2   -1    0    0  501    0  0.00000000000E+00  0.00000000000E+00  0.17451723883E+04  0.17451723883E+04  0.25500000000E-02 0. -1.
         -2   -1    0    0    0  501 -0.00000000000E+00 -0.00000000000E+00 -0.41323748106E+03  0.41323748107E+03  0.25500000000E-02 0.  1.
    8880023    1    1    2    0    0 -0.13421093389E+03 -0.17127059039E+03  0.16224646778E+04  0.17645248729E+04  0.65864270000E+03 0. -1.
    8880022    1    1    2    0    0  0.13421093389E+03  0.17127059039E+03 -0.29052977055E+03  0.39388499654E+03  0.15294330000E+03 0.  0.
<mgrwt>
<rscale>  0 0.54583807E+03</rscale>
<asrwt>0</asrwt>
<pdfrwt beam="1">  1        2 0.26848806E+00 0.69365438E+03</pdfrwt>
<pdfrwt beam="2">  1       -2 0.63574997E-01 0.69365438E+03</pdfrwt>
<totfact> 0.21959960E+01</totfact>
</mgrwt>
</event>
<event>
 4    1  0.8287789E-007  0.6850003E+03  0.7818608E-02  0.1006626E+00
          2   -1    0    0  501    0  0.00000000000E+00  0.00000000000E+00  0.10124667287E+04  0.10124667287E+04  0.25500000000E-02 0. -1.
         -2   -1    0    0    0  501 -0.00000000000E+00 -0.00000000000E+00 -0.62212704782E+03  0.62212704783E+03  0.25500000000E-02 0.  1.
    8880023    1    1    2    0    0  0.18744295444E+03 -0.16744882726E+02  0.86392079448E+03  0.11025355313E+04  0.65864270000E+03 0. -1.
    8880022    1    1    2    0    0 -0.18744295444E+03  0.16744882726E+02 -0.47358111357E+03  0.53205824532E+03  0.15294330000E+03 0.  0.
<mgrwt>
<rscale>  0 0.52838031E+03</rscale>
<asrwt>0</asrwt>
<pdfrwt beam="1">  1        2 0.15576411E+00 0.68500033E+03</pdfrwt>
<pdfrwt beam="2">  1       -2 0.95711854E-01 0.68500033E+03</pdfrwt>
<totfact> 0.23183235E+01</totfact>
</mgrwt>
</event>
<event>
 4    1  0.8287789E-007  0.6749116E+03  0.7818608E-02  0.1012362E+00
         -2   -1    0    0    0  501 -0.00000000000E+00  0.00000000000E+00  0.29993154809E+03  0.29993154810E+03  0.25500000000E-02 0.  1.
          2   -1    0    0  501    0  0.00000000000E+00 -0.00000000000E+00 -0.89234677217E+03  0.89234677217E+03  0.25500000000E-02 0. -1.
    8880023    1    1    2    0    0 -0.21140958206E+02  0.14576881502E+03 -0.68410358307E+03  0.96099084604E+03  0.65864270000E+03 0. -1.
    8880022    1    1    2    0    0  0.21140958206E+02 -0.14576881502E+03  0.91688358987E+02  0.23128747423E+03  0.15294330000E+03 0.  0.
<mgrwt>
<rscale>  0 0.50546579E+03</rscale>
<asrwt>0</asrwt>
<pdfrwt beam="1">  1        2 0.13728412E+00 0.67491162E+03</pdfrwt>
<pdfrwt beam="2">  1       -2 0.46143316E-01 0.67491162E+03</pdfrwt>
<totfact> 0.13436550E+02</totfact>
</mgrwt>
</event>
<event>
 4    1  0.8287789E-007  0.7405244E+03  0.7818608E-02  0.9858422E-01
         -2   -1    0    0    0  501 -0.00000000000E+00  0.00000000000E+00  0.12863265010E+03  0.12863265012E+03  0.25500000000E-02 0.  1.
          2   -1    0    0  501    0  0.00000000000E+00 -0.00000000000E+00 -0.28614002021E+04  0.28614002021E+04  0.25500000000E-02 0. -1.
    8880023    1    1    2    0    0  0.90703970593E+02 -0.32609658638E+03 -0.23172866029E+04  0.24327337709E+04  0.65864270000E+03 0. -1.
    8880022    1    1    2    0    0 -0.90703970593E+02  0.32609658638E+03 -0.41548094906E+03  0.55729908127E+03  0.15294330000E+03 0.  0.
<mgrwt>
<rscale>  0 0.62319338E+03</rscale>
<asrwt>0</asrwt>
<pdfrwt beam="1">  1        2 0.44021537E+00 0.74052441E+03</pdfrwt>
<pdfrwt beam="2">  1       -2 0.19789641E-01 0.74052441E+03</pdfrwt>
<totfact> 0.48548568E+01</totfact>
</mgrwt>
</event>
<event>
 4    1  0.8287789E-007  0.1288399E+04  0.7818608E-02  0.9075643E-01
          2   -1    0    0  501    0  0.00000000000E+00  0.00000000000E+00  0.94676839102E+03  0.94676839102E+03  0.25500000000E-02 0. -1.
         -2   -1    0    0    0  501 -0.00000000000E+00 -0.00000000000E+00 -0.20996026570E+04  0.20996026570E+04  0.25500000000E-02 0.  1.
    8880023    1    1    2    0    0  0.11020022354E+04  0.10841622800E+03 -0.13988582135E+04  0.19017827198E+04  0.65864270000E+03 0.  1.
    8880022    1    1    2    0    0 -0.11020022354E+04 -0.10841622800E+03  0.24602394757E+03  0.11445883282E+04  0.15294330000E+03 0.  0.
<mgrwt>
<rscale>  0 0.12434614E+04</rscale>
<asrwt>0</asrwt>
<pdfrwt beam="1">  1        2 0.14565668E+00 0.12883995E+04</pdfrwt>
<pdfrwt beam="2">  1       -2 0.32301579E+00 0.12883995E+04</pdfrwt>
<totfact> 0.60749545E-01</totfact>
</mgrwt>
</event>
<event>
 4    1  0.8287789E-007  0.6970857E+03  0.7818608E-02  0.1000951E+00
         -2   -1    0    0    0  501 -0.00000000000E+00  0.00000000000E+00  0.92995968696E+03  0.92995968697E+03  0.25500000000E-02 0.  1.
          2   -1    0    0  501    0  0.00000000000E+00 -0.00000000000E+00 -0.69449319849E+03  0.69449319849E+03  0.25500000000E-02 0. -1.
    8880023    1    1    2    0    0  0.41646285331E+02  0.22446356878E+03 -0.48775681192E+03  0.85078506136E+03  0.65864270000E+03 0. -1.
    8880022    1    1    2    0    0 -0.41646285331E+02 -0.22446356878E+03  0.72322330040E+03  0.77366782410E+03  0.15294330000E+03 0.  0.
<mgrwt>
<rscale>  0 0.55235104E+03</rscale>
<asrwt>0</asrwt>
<pdfrwt beam="1">  1        2 0.10684511E+00 0.69708573E+03</pdfrwt>
<pdfrwt beam="2">  1       -2 0.14307072E+00 0.69708573E+03</pdfrwt>
<totfact> 0.14332335E+01</totfact>
</mgrwt>
</event>
<event>
 4    1  0.8287789E-007  0.8929179E+03  0.7818608E-02  0.9537498E-01
          2   -1    0    0  501    0  0.00000000000E+00  0.00000000000E+00  0.13071582244E+04  0.13071582244E+04  0.25500000000E-02 0. -1.
         -2   -1    0    0    0  501 -0.00000000000E+00 -0.00000000000E+00 -0.50984289594E+03  0.50984289595E+03  0.25500000000E-02 0.  1.
    8880023    1    1    2    0    0 -0.59252741451E+03  0.11137052858E+03  0.79417048089E+03  0.11949933433E+04  0.65864270000E+03 0. -1.
    8880022    1    1    2    0    0  0.59252741451E+03 -0.11137052858E+03  0.31448475535E+01  0.62200777702E+03  0.15294330000E+03 0.  0.
<mgrwt>
<rscale>  0 0.81574835E+03</rscale>
<asrwt>0</asrwt>
<pdfrwt beam="1">  1        2 0.20110126E+00 0.89291788E+03</pdfrwt>
<pdfrwt beam="2">  1       -2 0.78437369E-01 0.89291788E+03</pdfrwt>
<totfact> 0.23792743E+01</totfact>
</mgrwt>
</event>
<event>
 4    1  0.8287789E-007  0.9838626E+03  0.7818608E-02  0.9402982E-01
          2   -1    0    0  501    0  0.00000000000E+00  0.00000000000E+00  0.19950813511E+04  0.19950813512E+04  0.25500000000E-02 0. -1.
         -2   -1    0    0    0  501 -0.00000000000E+00 -0.00000000000E+00 -0.43447112012E+03  0.43447112013E+03  0.25500000000E-02 0.  1.
    8880023    1    1    2    0    0  0.71217968025E+03  0.16424216721E+03  0.13173946957E+04  0.16442367156E+04  0.65864270000E+03 0. -1.
    8880022    1    1    2    0    0 -0.71217968025E+03 -0.16424216721E+03  0.24321553533E+03  0.78531575566E+03  0.15294330000E+03 0.  0.
<mgrwt>
<rscale>  0 0.91830716E+03</rscale>
<asrwt>0</asrwt>
<pdfrwt beam="1">  1        2 0.30693560E+00 0.98386259E+03</pdfrwt>
<pdfrwt beam="2">  1       -2 0.66841710E-01 0.98386259E+03</pdfrwt>
<totfact> 0.13886687E+01</totfact>
</mgrwt>
</event>
<event>
 4    1  0.8287789E-007  0.7093900E+03  0.7818608E-02  0.9960273E-01
         -2   -1    0    0    0  501 -0.00000000000E+00  0.00000000000E+00  0.29476986357E+03  0.29476986358E+03  0.25500000000E-02 0.  1.
          2   -1    0    0  501    0  0.00000000000E+00 -0.00000000000E+00 -0.17353108777E+04  0.17353108777E+04  0.25500000000E-02 0. -1.
    8880023    1    1    2    0    0  0.22293464876E+03  0.14044231583E+03 -0.15513894564E+04  0.17058849180E+04  0.65864270000E+03 0. -1.
    8880022    1    1    2    0    0 -0.22293464876E+03 -0.14044231583E+03  0.11084844226E+03  0.32419582332E+03  0.15294330000E+03 0.  0.
<mgrwt>
<rscale>  0 0.57427032E+03</rscale>
<asrwt>0</asrwt>
<pdfrwt beam="1">  1        2 0.26697090E+00 0.70938995E+03</pdfrwt>
<pdfrwt beam="2">  1       -2 0.45349211E-01 0.70938995E+03</pdfrwt>
<totfact> 0.44552872E+01</totfact>
</mgrwt>
</event>
<event>
 4    1  0.8287789E-007  0.8460722E+03  0.7818608E-02  0.9618835E-01
          2   -1    0    0  501    0  0.00000000000E+00  0.00000000000E+00  0.22717708826E+04  0.22717708826E+04  0.25500000000E-02 0. -1.
         -2   -1    0    0    0  501 -0.00000000000E+00 -0.00000000000E+00 -0.27504184697E+03  0.27504184699E+03  0.25500000000E-02 0.  1.
    8880023    1    1    2    0    0 -0.49988767825E+03  0.17927684886E+03  0.17454938935E+04  0.19397389045E+04  0.65864270000E+03 0. -1.
    8880022    1    1    2    0    0  0.49988767825E+03 -0.17927684886E+03  0.25123514219E+03  0.60707382507E+03  0.15294330000E+03 0.  0.
<mgrwt>
<rscale>  0 0.76061984E+03</rscale>
<asrwt>0</asrwt>
<pdfrwt beam="1">  1        2 0.34950320E+00 0.84607215E+03</pdfrwt>
<pdfrwt beam="2">  1       -2 0.42314132E-01 0.84607215E+03</pdfrwt>
<totfact> 0.25545545E+01</totfact>
</mgrwt>
</event>
<event>
 4    1  0.8287789E-007  0.7883824E+03  0.7818608E-02  0.9736503E-01
         -2   -1    0    0    0  501 -0.00000000000E+00  0.00000000000E+00  0.29647508793E+04  0.29647508793E+04  0.25500000000E-02 0.  1.
          2   -1    0    0  501    0  0.00000000000E+00 -0.00000000000E+00 -0.37851156205E+03  0.37851156206E+03  0.25500000000E-02 0. -1.
    8880023    1    1    2    0    0 -0.42243324157E+03  0.96367970781E+02  0.76812635977E+02  0.79211553241E+03  0.65864270000E+03 0. -1.
    8880022    1    1    2    0    0  0.42243324157E+03 -0.96367970781E+02  0.25094266812E+04  0.25511469089E+04  0.15294330000E+03 0.  0.
<mgrwt>
<rscale>  0 0.68884419E+03</rscale>
<asrwt>0</asrwt>
<pdfrwt beam="1">  1        2 0.58232551E-01 0.78838242E+03</pdfrwt>
<pdfrwt beam="2">  1       -2 0.45611549E+00 0.78838242E+03</pdfrwt>
<totfact> 0.28306659E-01</totfact>
</mgrwt>
</event>
<event>
 4    1  0.8287789E-007  0.7229388E+03  0.7818608E-02  0.9912765E-01
          2   -1    0    0  501    0  0.00000000000E+00  0.00000000000E+00  0.32950091065E+04  0.32950091065E+04  0.25500000000E-02 0. -1.
         -2   -1    0    0    0  501 -0.00000000000E+00 -0.00000000000E+00 -0.10085306912E+03  0.10085306916E+03  0.25500000000E-02 0.  1.
    8880023    1    1    2    0    0  0.29279361371E+03  0.55697160142E+02  0.27257533415E+04  0.28199949927E+04  0.65864270000E+03 0.  0.
    8880022    1    1    2    0    0 -0.29279361371E+03 -0.55697160142E+02  0.46840269581E+03  0.57586718289E+03  0.15294330000E+03 0.  0.
<mgrwt>
<rscale>  0 0.59646623E+03</rscale>
<asrwt>0</asrwt>
<pdfrwt beam="1">  1        2 0.50692450E+00 0.72293878E+03</pdfrwt>
<pdfrwt beam="2">  1       -2 0.15515856E-01 0.72293878E+03</pdfrwt>
<totfact> 0.39788097E+01</totfact>
</mgrwt>
</event>
<event>
 4    1  0.8287789E-007  0.7429607E+03  0.7818608E-02  0.9851405E-01
         -2   -1    0    0    0  501 -0.00000000000E+00  0.00000000000E+00  0.24351892890E+03  0.24351892892E+03  0.25500000000E-02 0.  1.
          2   -1    0    0  501    0  0.00000000000E+00 -0.00000000000E+00 -0.15011319826E+04  0.15011319826E+04  0.25500000000E-02 0. -1.
    8880023    1    1    2    0    0 -0.34373894847E+03 -0.48992188674E+01 -0.11199882351E+04  0.13440105357E+04  0.65864270000E+03 0.  0.
    8880022    1    1    2    0    0  0.34373894847E+03  0.48992188674E+01 -0.13762481862E+03  0.40064037585E+03  0.15294330000E+03 0.  0.
<mgrwt>
<rscale>  0 0.62675329E+03</rscale>
<asrwt>0</asrwt>
<pdfrwt beam="1">  1        2 0.23094338E+00 0.74296075E+03</pdfrwt>
<pdfrwt beam="2">  1       -2 0.37464451E-01 0.74296075E+03</pdfrwt>
<totfact> 0.86850120E+01</totfact>
</mgrwt>
</event>
<event>
 4    1  0.8287789E-007  0.7807540E+03  0.7818608E-02  0.9754069E-01
         -2   -1    0    0    0  501 -0.00000000000E+00  0.00000000000E+00  0.34159970257E+03  0.34159970258E+03  0.25500000000E-02 0.  1.
          2   -1    0    0  501    0  0.00000000000E+00 -0.00000000000E+00 -0.31021749991E+04  0.31021749991E+04  0.25500000000E-02 0. -1.
    8880023    1    1    2    0    0  0.32961781304E+03 -0.25907276673E+03 -0.28782378669E+04  0.29822525087E+04  0.65864270000E+03 0.  0.
    8880022    1    1    2    0    0 -0.32961781304E+03  0.25907276673E+03  0.11766257034E+03  0.46152219297E+03  0.15294330000E+03 0.  0.
<mgrwt>
<rscale>  0 0.67886818E+03</rscale>
<asrwt>0</asrwt>
<pdfrwt beam="1">  1        2 0.47725767E+00 0.78075400E+03</pdfrwt>
<pdfrwt beam="2">  1       -2 0.52553803E-01 0.78075400E+03</pdfrwt>
<totfact> 0.54475802E+00</totfact>
</mgrwt>
</event>
<event>
 4    1  0.8287789E-007  0.1194670E+04  0.7818608E-02  0.9162321E-01
          2   -1    0    0  501    0  0.00000000000E+00  0.00000000000E+00  0.20791870459E+04  0.20791870459E+04  0.25500000000E-02 0. -1.
         -2   -1    0    0    0  501 -0.00000000000E+00 -0.00000000000E+00 -0.10929561479E+04  0.10929561479E+04  0.25500000000E-02 0.  1.
    8880023    1    1    2    0    0  0.65568558047E+03  0.75066803015E+03 -0.56534287106E+03  0.13216840924E+04  0.65864270000E+03 0.  0.
    8880022    1    1    2    0    0 -0.65568558047E+03 -0.75066803015E+03  0.15515737691E+04  0.18504591014E+04  0.15294330000E+03 0.  0.
<mgrwt>
<rscale>  0 0.11450945E+04</rscale>
<asrwt>0</asrwt>
<pdfrwt beam="1">  1        2 0.31987493E+00 0.11946699E+04</pdfrwt>
<pdfrwt beam="2">  1       -2 0.16814710E+00 0.11946699E+04</pdfrwt>
<totfact> 0.12907765E+00</totfact>
</mgrwt>
</event>
<event>
 4    1  0.8287789E-007  0.1158811E+04  0.7818608E-02  0.9198239E-01
          2   -1    0    0  501    0  0.00000000000E+00  0.00000000000E+00  0.28005441908E+04  0.28005441908E+04  0.25500000000E-02 0. -1.
         -2   -1    0    0    0  501 -0.00000000000E+00 -0.00000000000E+00 -0.43949969089E+03  0.43949969090E+03  0.25500000000E-02 0.  1.
    8880023    1    1    2    0    0  0.93162453688E+03 -0.20275472281E+03  0.81312939518E+03  0.14156353255E+04  0.65864270000E+03 0.  0.
    8880022    1    1    2    0    0 -0.93162453688E+03  0.20275472281E+03  0.15479151047E+04  0.18244085562E+04  0.15294330000E+03 0.  0.
<mgrwt>
<rscale>  0 0.11071624E+04</rscale>
<asrwt>0</asrwt>
<pdfrwt beam="1">  1        2 0.43085296E+00 0.11588114E+04</pdfrwt>
<pdfrwt beam="2">  1       -2 0.67615336E-01 0.11588114E+04</pdfrwt>
<totfact> 0.46183566E+00</totfact>
</mgrwt>
</event>
<event>
 4    1  0.8287789E-007  0.1023447E+04  0.7818608E-02  0.9351505E-01
          2   -1    0    0  501    0  0.00000000000E+00  0.00000000000E+00  0.16010420714E+04  0.16010420714E+04  0.25500000000E-02 0. -1.
         -2   -1    0    0    0  501 -0.00000000000E+00 -0.00000000000E+00 -0.95216145785E+03  0.95216145785E+03  0.25500000000E-02 0.  1.
    8880023    1    1    2    0    0 -0.24525842092E+03 -0.74396322210E+03  0.12045926742E+04  0.15806602057E+04  0.65864270000E+03 0. -1.
    8880022    1    1    2    0    0  0.24525842092E+03  0.74396322210E+03 -0.55571206064E+03  0.97254332357E+03  0.15294330000E+03 0.  0.
<mgrwt>
<rscale>  0 0.96176386E+03</rscale>
<asrwt>0</asrwt>
<pdfrwt beam="1">  1        2 0.24631416E+00 0.10234467E+04</pdfrwt>
<pdfrwt beam="2">  1       -2 0.14648638E+00 0.10234467E+04</pdfrwt>
<totfact> 0.35199785E+00</totfact>
</mgrwt>
</event>
<event>
 4    1  0.8287789E-007  0.7062458E+03  0.7818608E-02  0.9972215E-01
         -2   -1    0    0    0  501 -0.00000000000E+00  0.00000000000E+00  0.23780205306E+03  0.23780205308E+03  0.25500000000E-02 0.  1.
          2   -1    0    0  501    0  0.00000000000E+00 -0.00000000000E+00 -0.29364514588E+04  0.29364514588E+04  0.25500000000E-02 0. -1.
    8880023    1    1    2    0    0  0.18694406187E+03  0.17327662571E+03 -0.27781750882E+04  0.28665379639E+04  0.65864270000E+03 0. -1.
    8880022    1    1    2    0    0 -0.18694406187E+03 -0.17327662571E+03  0.79525682491E+02  0.30771554799E+03  0.15294330000E+03 0.  0.
<mgrwt>
<rscale>  0 0.56885507E+03</rscale>
<asrwt>0</asrwt>
<pdfrwt beam="1">  1        2 0.45176174E+00 0.70624576E+03</pdfrwt>
<pdfrwt beam="2">  1       -2 0.36584933E-01 0.70624576E+03</pdfrwt>
<totfact> 0.14325983E+01</totfact>
</mgrwt>
</event>
<event>
 4    1  0.8287789E-007  0.7405050E+03  0.7818608E-02  0.9858478E-01
          2   -1    0    0  501    0  0.00000000000E+00  0.00000000000E+00  0.12750773101E+04  0.12750773101E+04  0.25500000000E-02 0. -1.
         -2   -1    0    0    0  501 -0.00000000000E+00 -0.00000000000E+00 -0.10860206987E+04  0.10860206987E+04  0.25500000000E-02 0.  1.
    8880023    1    1    2    0    0  0.33421321518E+03  0.53282655822E+02  0.11291485654E+04  0.13503052261E+04  0.65864270000E+03 0. -1.
    8880022    1    1    2    0    0 -0.33421321518E+03 -0.53282655822E+02 -0.94009195402E+03  0.10107927827E+04  0.15294330000E+03 0.  0.
<mgrwt>
<rscale>  0 0.62316497E+03</rscale>
<asrwt>0</asrwt>
<pdfrwt beam="1">  1        2 0.19616574E+00 0.74050504E+03</pdfrwt>
<pdfrwt beam="2">  1       -2 0.16708011E+00 0.74050504E+03</pdfrwt>
<totfact> 0.39208537E+00</totfact>
</mgrwt>
</event>
<event>
 4    1  0.8287789E-007  0.8159399E+03  0.7818608E-02  0.9677335E-01
         -2   -1    0    0    0  501 -0.00000000000E+00  0.00000000000E+00  0.50509807795E+03  0.50509807795E+03  0.25500000000E-02 0.  1.
          2   -1    0    0  501    0  0.00000000000E+00 -0.00000000000E+00 -0.11371296512E+04  0.11371296512E+04  0.25500000000E-02 0. -1.
    8880023    1    1    2    0    0  0.46501995171E+03  0.12531629112E+03 -0.76632040455E+03  0.11193770129E+04  0.65864270000E+03 0. -1.
    8880022    1    1    2    0    0 -0.46501995171E+03 -0.12531629112E+03  0.13428883127E+03  0.52285071629E+03  0.15294330000E+03 0.  0.
<mgrwt>
<rscale>  0 0.72382463E+03</rscale>
<asrwt>0</asrwt>
<pdfrwt beam="1">  1        2 0.17494302E+00 0.81593991E+03</pdfrwt>
<pdfrwt beam="2">  1       -2 0.77707397E-01 0.81593991E+03</pdfrwt>
<totfact> 0.30846331E+01</totfact>
</mgrwt>
</event>
<event>
 4    1  0.8287789E-007  0.8943932E+03  0.7818608E-02  0.9535093E-01
          2   -1    0    0  501    0  0.00000000000E+00  0.00000000000E+00  0.19969639782E+04  0.19969639782E+04  0.25500000000E-02 0. -1.
         -2   -1    0    0    0  501 -0.00000000000E+00 -0.00000000000E+00 -0.36600956371E+03  0.36600956372E+03  0.25500000000E-02 0.  1.
    8880023    1    1    2    0    0 -0.59116261713E+03  0.12905743304E+03  0.39368379948E+03  0.97720325478E+03  0.65864270000E+03 0.  1.
    8880022    1    1    2    0    0  0.59116261713E+03 -0.12905743304E+03  0.12372706150E+04  0.13857702871E+04  0.15294330000E+03 0.  0.
<mgrwt>
<rscale>  0 0.81745283E+03</rscale>
<asrwt>0</asrwt>
<pdfrwt beam="1">  1        2 0.30722522E+00 0.89439324E+03</pdfrwt>
<pdfrwt beam="2">  1       -2 0.56309165E-01 0.89439324E+03</pdfrwt>
<totfact> 0.20157650E+01</totfact>
</mgrwt>
</event>
<event>
 4    1  0.8287789E-007  0.9315696E+03  0.7818608E-02  0.9477143E-01
          2   -1    0    0  501    0  0.00000000000E+00  0.00000000000E+00  0.32443697486E+04  0.32443697486E+04  0.25500000000E-02 0. -1.
         -2   -1    0    0    0  501 -0.00000000000E+00 -0.00000000000E+00 -0.22119272487E+03  0.22119272489E+03  0.25500000000E-02 0.  1.
    8880023    1    1    2    0    0 -0.29888458568E+03 -0.58709422797E+03  0.11877355846E+04  0.15094825780E+04  0.65864270000E+03 0.  1.
    8880022    1    1    2    0    0  0.29888458568E+03  0.58709422797E+03  0.18354414392E+04  0.19560798956E+04  0.15294330000E+03 0. -1.
<mgrwt>
<rscale>  0 0.85990183E+03</rscale>
<asrwt>0</asrwt>
<pdfrwt beam="1">  1        2 0.49913377E+00 0.93156955E+03</pdfrwt>
<pdfrwt beam="2">  1       -2 0.34029652E-01 0.93156955E+03</pdfrwt>
<totfact> 0.10186279E+01</totfact>
</mgrwt>
</event>
<event>
 4    1  0.8287789E-007  0.9742067E+03  0.7818608E-02  0.9416109E-01
          2   -1    0    0  501    0  0.00000000000E+00  0.00000000000E+00  0.12772424929E+04  0.12772424929E+04  0.25500000000E-02 0. -1.
         -2   -1    0    0    0  501 -0.00000000000E+00 -0.00000000000E+00 -0.66949388367E+03  0.66949388367E+03  0.25500000000E-02 0.  1.
    8880023    1    1    2    0    0 -0.70679265771E+03  0.12535028548E+03  0.71032232590E+03  0.12056685150E+04  0.65864270000E+03 0. -1.
    8880022    1    1    2    0    0  0.70679265771E+03 -0.12535028548E+03 -0.10257371671E+03  0.74106786156E+03  0.15294330000E+03 0.  1.
<mgrwt>
<rscale>  0 0.90761718E+03</rscale>
<asrwt>0</asrwt>
<pdfrwt beam="1">  1        2 0.19649884E+00 0.97420673E+03</pdfrwt>
<pdfrwt beam="2">  1       -2 0.10299906E+00 0.97420673E+03</pdfrwt>
<totfact> 0.13076314E+01</totfact>
</mgrwt>
</event>
<event>
 4    1  0.8287789E-007  0.1123181E+04  0.7818608E-02  0.9235676E-01
          2   -1    0    0  501    0  0.00000000000E+00  0.00000000000E+00  0.32564518253E+03  0.32564518254E+03  0.25500000000E-02 0. -1.
         -2   -1    0    0    0  501 -0.00000000000E+00 -0.00000000000E+00 -0.38640755476E+04  0.38640755476E+04  0.25500000000E-02 0.  1.
    8880023    1    1    2    0    0  0.80967303846E+03 -0.41491556130E+03 -0.10569555333E+04  0.15423004110E+04  0.65864270000E+03 0. -1.
    8880022    1    1    2    0    0 -0.80967303846E+03  0.41491556130E+03 -0.24814748318E+04  0.26474203191E+04  0.15294330000E+03 0.  0.
<mgrwt>
<rscale>  0 0.10692665E+04</rscale>
<asrwt>0</asrwt>
<pdfrwt beam="1">  1        2 0.50099262E-01 0.11231810E+04</pdfrwt>
<pdfrwt beam="2">  1       -2 0.59447313E+00 0.11231810E+04</pdfrwt>
<totfact> 0.51974096E-02</totfact>
</mgrwt>
</event>
<event>
 4    1  0.1059033E-006  0.6942870E+03  0.7818608E-02  0.1002178E+00
          2   -1    0    0  501    0  0.00000000000E+00  0.00000000000E+00  0.15206580943E+04  0.15206580943E+04  0.25500000000E-02 0. -1.
         -2   -1    0    0    0  501 -0.00000000000E+00 -0.00000000000E+00 -0.47134696793E+03  0.47134696793E+03  0.25500000000E-02 0.  1.
    8880023    1    1    2    0    0  0.24863940110E+02 -0.21818792971E+03  0.13929899248E+04  0.15564238899E+04  0.65864270000E+03 0. -1.
    8880022    1    1    2    0    0 -0.24863940110E+02  0.21818792971E+03 -0.34367879843E+03  0.43558117233E+03  0.15294330000E+03 0.  0.
<mgrwt>
<rscale>  0 0.54705425E+03</rscale>
<asrwt>0</asrwt>
<pdfrwt beam="1">  1        2 0.23394740E+00 0.69428697E+03</pdfrwt>
<pdfrwt beam="2">  1       -2 0.72514919E-01 0.69428697E+03</pdfrwt>
<totfact> 0.21927533E+01</totfact>
</mgrwt>
</event>
<event>
 4    1  0.8287789E-007  0.6596554E+03  0.7818608E-02  0.1024512E+00
         -2   -1    0    0    0  501 -0.00000000000E+00  0.00000000000E+00  0.19354575245E+03  0.19354575246E+03  0.25500000000E-02 0.  1.
          2   -1    0    0  501    0  0.00000000000E+00 -0.00000000000E+00 -0.24240770505E+04  0.24240770505E+04  0.25500000000E-02 0. -1.
    8880023    1    1    2    0    0 -0.17602274927E+01  0.36495276967E+02 -0.23366105322E+04  0.24279402771E+04  0.65864270000E+03 0. -1.
    8880022    1    1    2    0    0  0.17602274927E+01 -0.36495276967E+02  0.10607923423E+03  0.18968252580E+03  0.15294330000E+03 0.  0.
<mgrwt>
<rscale>  0 0.46092844E+03</rscale>
<asrwt>0</asrwt>
<pdfrwt beam="1">  1        2 0.37293491E+00 0.65965537E+03</pdfrwt>
<pdfrwt beam="2">  1       -2 0.29776271E-01 0.65965537E+03</pdfrwt>
<totfact> 0.42174655E+01</totfact>
</mgrwt>
</event>
<event>
 4    1  0.1187522E-006  0.8044038E+03  0.7818608E-02  0.9701354E-01
          2   -1    0    0  501    0  0.00000000000E+00  0.00000000000E+00  0.21126054138E+04  0.21126054138E+04  0.25500000000E-02 0. -1.
         -2   -1    0    0    0  501 -0.00000000000E+00 -0.00000000000E+00 -0.76198178072E+03  0.76198178073E+03  0.25500000000E-02 0.  1.
    8880023    1    1    2    0    0 -0.33547583554E+03 -0.31735038567E+03  0.19460245988E+04  0.21057248749E+04  0.65864270000E+03 0.  0.
    8880022    1    1    2    0    0  0.33547583554E+03  0.31735038567E+03 -0.59540096572E+03  0.76886231960E+03  0.15294330000E+03 0.  0.
<mgrwt>
<rscale>  0 0.70936247E+03</rscale>
<asrwt>0</asrwt>
<pdfrwt beam="1">  1        2 0.32501621E+00 0.80440382E+03</pdfrwt>
<pdfrwt beam="2">  1       -2 0.11722797E+00 0.80440382E+03</pdfrwt>
<totfact> 0.33492985E+00</totfact>
</mgrwt>
</event>
<event>
 4    1  0.8287789E-007  0.8740662E+03  0.7818608E-02  0.9569016E-01
          2   -1    0    0  501    0  0.00000000000E+00  0.00000000000E+00  0.26756738998E+04  0.26756738998E+04  0.25500000000E-02 0. -1.
         -2   -1    0    0    0  501 -0.00000000000E+00 -0.00000000000E+00 -0.22103170061E+03  0.22103170063E+03  0.25500000000E-02 0.  1.
    8880023    1    1    2    0    0  0.49592554495E+03  0.29024031771E+03  0.10173263585E+04  0.13412474470E+04  0.65864270000E+03 0. -1.
    8880022    1    1    2    0    0 -0.49592554495E+03 -0.29024031771E+03  0.14373158407E+04  0.15554581534E+04  0.15294330000E+03 0.  0.
<mgrwt>
<rscale>  0 0.79381296E+03</rscale>
<asrwt>0</asrwt>
<pdfrwt beam="1">  1        2 0.41164216E+00 0.87406624E+03</pdfrwt>
<pdfrwt beam="2">  1       -2 0.34004876E-01 0.87406624E+03</pdfrwt>
<totfact> 0.22911170E+01</totfact>
</mgrwt>
</event>
<event>
 4    1  0.8287789E-007  0.7417129E+03  0.7818608E-02  0.9854985E-01
         -2   -1    0    0    0  501 -0.00000000000E+00  0.00000000000E+00  0.29405973559E+03  0.29405973560E+03  0.25500000000E-02 0.  1.
          2   -1    0    0  501    0  0.00000000000E+00 -0.00000000000E+00 -0.11031424702E+04  0.11031424702E+04  0.25500000000E-02 0. -1.
    8880023    1    1    2    0    0  0.28009328369E+03  0.19461633101E+03 -0.39860975351E+03  0.84203782915E+03  0.65864270000E+03 0.  1.
    8880022    1    1    2    0    0 -0.28009328369E+03 -0.19461633101E+03 -0.41047298108E+03  0.55516437663E+03  0.15294330000E+03 0.  0.
<mgrwt>
<rscale>  0 0.62493371E+03</rscale>
<asrwt>0</asrwt>
<pdfrwt beam="1">  1        2 0.16971422E+00 0.74171286E+03</pdfrwt>
<pdfrwt beam="2">  1       -2 0.45239960E-01 0.74171286E+03</pdfrwt>
<totfact> 0.10199119E+02</totfact>
</mgrwt>
</event>
<event>
 4    1  0.8287789E-007  0.1070202E+04  0.7818608E-02  0.9294981E-01
         -2   -1    0    0    0  501 -0.00000000000E+00  0.00000000000E+00  0.18074356829E+04  0.18074356829E+04  0.25500000000E-02 0.  1.
          2   -1    0    0  501    0  0.00000000000E+00 -0.00000000000E+00 -0.12312824721E+04  0.12312824721E+04  0.25500000000E-02 0. -1.
    8880023    1    1    2    0    0 -0.93530143486E+02  0.83831590385E+03 -0.85543862763E+03  0.13700755068E+04  0.65864270000E+03 0. -1.
    8880022    1    1    2    0    0  0.93530143486E+02 -0.83831590385E+03  0.14315918385E+04  0.16686426482E+04  0.15294330000E+03 0.  0.
<mgrwt>
<rscale>  0 0.10124620E+04</rscale>
<asrwt>0</asrwt>
<pdfrwt beam="1">  1        2 0.18942807E+00 0.10702017E+04</pdfrwt>
<pdfrwt beam="2">  1       -2 0.27806703E+00 0.10702017E+04</pdfrwt>
<totfact> 0.77797981E-01</totfact>
</mgrwt>
</event>
<event>
 4    1  0.8287789E-007  0.7149080E+03  0.7818608E-02  0.9940208E-01
         -2   -1    0    0    0  501 -0.00000000000E+00  0.00000000000E+00  0.42724147907E+03  0.42724147907E+03  0.25500000000E-02 0.  1.
          2   -1    0    0  501    0  0.00000000000E+00 -0.00000000000E+00 -0.20009636802E+04  0.20009636802E+04  0.25500000000E-02 0. -1.
    8880023    1    1    2    0    0  0.20034734086E+03 -0.19272842586E+03 -0.18650991544E+04  0.19974204277E+04  0.65864270000E+03 0.  0.
    8880022    1    1    2    0    0 -0.20034734086E+03  0.19272842586E+03  0.29137695319E+03  0.43078473161E+03  0.15294330000E+03 0.  0.
<mgrwt>
<rscale>  0 0.58351607E+03</rscale>
<asrwt>0</asrwt>
<pdfrwt beam="1">  1        2 0.30784056E+00 0.71490804E+03</pdfrwt>
<pdfrwt beam="2">  1       -2 0.65729459E-01 0.71490804E+03</pdfrwt>
<totfact> 0.14793075E+01</totfact>
</mgrwt>
</event>
<event>
 4    1  0.8287789E-007  0.8807645E+03  0.7818608E-02  0.9557644E-01
          2   -1    0    0  501    0  0.00000000000E+00  0.00000000000E+00  0.39575932290E+04  0.39575932290E+04  0.25500000000E-02 0. -1.
         -2   -1    0    0    0  501 -0.00000000000E+00 -0.00000000000E+00 -0.19192290183E+03  0.19192290185E+03  0.25500000000E-02 0.  1.
    8880023    1    1    2    0    0  0.55014875859E+03  0.19817218004E+03  0.32094492642E+04  0.33281091711E+04  0.65864270000E+03 0. -1.
    8880022    1    1    2    0    0 -0.55014875859E+03 -0.19817218004E+03  0.55622106302E+03  0.82140695972E+03  0.15294330000E+03 0.  0.
<mgrwt>
<rscale>  0 0.80164141E+03</rscale>
<asrwt>0</asrwt>
<pdfrwt beam="1">  1        2 0.60886043E+00 0.88076448E+03</pdfrwt>
<pdfrwt beam="2">  1       -2 0.29526604E-01 0.88076448E+03</pdfrwt>
<totfact> 0.41988822E+00</totfact>
</mgrwt>
</event>
<event>
 4    1  0.8287789E-007  0.7248598E+03  0.7818608E-02  0.9906473E-01
         -2   -1    0    0    0  501 -0.00000000000E+00  0.00000000000E+00  0.13133066886E+04  0.13133066886E+04  0.25500000000E-02 0.  1.
          2   -1    0    0  501    0  0.00000000000E+00 -0.00000000000E+00 -0.24476695134E+03  0.24476695136E+03  0.25500000000E-02 0. -1.
    8880023    1    1    2    0    0 -0.17215213406E+03  0.24894797861E+03  0.45147293887E+03  0.85396104953E+03  0.65864270000E+03 0. -1.
    8880022    1    1    2    0    0  0.17215213406E+03 -0.24894797861E+03  0.61706679836E+03  0.70411259040E+03  0.15294330000E+03 0.  0.
<mgrwt>
<rscale>  0 0.59948619E+03</rscale>
<asrwt>0</asrwt>
<pdfrwt beam="1">  1        2 0.37656454E-01 0.72485975E+03</pdfrwt>
<pdfrwt beam="2">  1       -2 0.20204718E+00 0.72485975E+03</pdfrwt>
<totfact> 0.18112523E+01</totfact>
</mgrwt>
</event>
<event>
 4    1  0.8287789E-007  0.9020387E+03  0.7818608E-02  0.9522767E-01
          2   -1    0    0  501    0  0.00000000000E+00  0.00000000000E+00  0.17857571923E+04  0.17857571923E+04  0.25500000000E-02 0. -1.
         -2   -1    0    0    0  501 -0.00000000000E+00 -0.00000000000E+00 -0.33771411423E+03  0.33771411424E+03  0.25500000000E-02 0.  1.
    8880023    1    1    2    0    0  0.59620078113E+03 -0.15623134559E+03  0.99739333089E+03  0.13447926485E+04  0.65864270000E+03 0.  0.
    8880022    1    1    2    0    0 -0.59620078113E+03  0.15623134559E+03  0.45064974713E+03  0.77867865797E+03  0.15294330000E+03 0.  0.
<mgrwt>
<rscale>  0 0.82625934E+03</rscale>
<asrwt>0</asrwt>
<pdfrwt beam="1">  1        2 0.27473187E+00 0.90203870E+03</pdfrwt>
<pdfrwt beam="2">  1       -2 0.51956018E-01 0.90203870E+03</pdfrwt>
<totfact> 0.31071853E+01</totfact>
</mgrwt>
</event>
<event>
 4    1  0.8287789E-007  0.6803356E+03  0.7818608E-02  0.1009134E+00
         -2   -1    0    0    0  501 -0.00000000000E+00  0.00000000000E+00  0.15749165704E+03  0.15749165706E+03  0.25500000000E-02 0.  1.
          2   -1    0    0  501    0  0.00000000000E+00 -0.00000000000E+00 -0.16914838493E+04  0.16914838493E+04  0.25500000000E-02 0. -1.
    8880023    1    1    2    0    0  0.15287121019E+03 -0.75344115345E+02 -0.14559279054E+04  0.16070415721E+04  0.65864270000E+03 0. -1.
    8880022    1    1    2    0    0 -0.15287121019E+03  0.75344115345E+02 -0.78064286858E+02  0.24193393420E+03  0.15294330000E+03 0.  0.
<mgrwt>
<rscale>  0 0.51820090E+03</rscale>
<asrwt>0</asrwt>
<pdfrwt beam="1">  1        2 0.26022827E+00 0.68033561E+03</pdfrwt>
<pdfrwt beam="2">  1       -2 0.24229487E-01 0.68033561E+03</pdfrwt>
<totfact> 0.15419247E+02</totfact>
</mgrwt>
</event>
<event>
 4    1  0.8287789E-007  0.7229339E+03  0.7818608E-02  0.9912781E-01
          2   -1    0    0  501    0  0.00000000000E+00  0.00000000000E+00  0.13321119421E+04  0.13321119421E+04  0.25500000000E-02 0. -1.
         -2   -1    0    0    0  501 -0.00000000000E+00 -0.00000000000E+00 -0.60720937501E+03  0.60720937502E+03  0.25500000000E-02 0.  1.
    8880023    1    1    2    0    0  0.24595832124E+03 -0.16830832007E+03  0.11741910483E+04  0.13788973895E+04  0.65864270000E+03 0. -1.
    8880022    1    1    2    0    0 -0.24595832124E+03  0.16830832007E+03 -0.44928848120E+03  0.56042392771E+03  0.15294330000E+03 0.  0.
<mgrwt>
<rscale>  0 0.59645848E+03</rscale>
<asrwt>0</asrwt>
<pdfrwt beam="1">  1        2 0.20494030E+00 0.72293388E+03</pdfrwt>
<pdfrwt beam="2">  1       -2 0.93416828E-01 0.72293388E+03</pdfrwt>
<totfact> 0.15728964E+01</totfact>
</mgrwt>
</event>
<event>
 4    1  0.8287789E-007  0.6708634E+03  0.7818608E-02  0.1015051E+00
          2   -1    0    0  501    0  0.00000000000E+00  0.00000000000E+00  0.12792453910E+04  0.12792453910E+04  0.25500000000E-02 0. -1.
         -2   -1    0    0    0  501 -0.00000000000E+00 -0.00000000000E+00 -0.14792756068E+03  0.14792756070E+03  0.25500000000E-02 0.  1.
    8880023    1    1    2    0    0 -0.99397978566E+02 -0.79797092699E+02  0.87969853798E+03  0.11063124595E+04  0.65864270000E+03 0. -1.
    8880022    1    1    2    0    0  0.99397978566E+02  0.79797092699E+02  0.25161929239E+03  0.32086049221E+03  0.15294330000E+03 0. -1.
<mgrwt>
<rscale>  0 0.49515501E+03</rscale>
<asrwt>0</asrwt>
<pdfrwt beam="1">  1        2 0.19680700E+00 0.67086343E+03</pdfrwt>
<pdfrwt beam="2">  1       -2 0.22758085E-01 0.67086343E+03</pdfrwt>
<totfact> 0.29304515E+02</totfact>
</mgrwt>
</event>
<event>
 4    1  0.8287789E-007  0.6998763E+03  0.7818608E-02  0.9997715E-01
         -2   -1    0    0    0  501 -0.00000000000E+00  0.00000000000E+00  0.12147055317E+04  0.12147055317E+04  0.25500000000E-02 0.  1.
          2   -1    0    0  501    0  0.00000000000E+00 -0.00000000000E+00 -0.62371058336E+03  0.62371058337E+03  0.25500000000E-02 0. -1.
    8880023    1    1    2    0    0 -0.23426432071E+03  0.33717569253E+02 -0.40138237058E+03  0.80680521820E+03  0.65864270000E+03 0. -1.
    8880022    1    1    2    0    0  0.23426432071E+03 -0.33717569253E+02  0.99237731890E+03  0.10316108969E+04  0.15294330000E+03 0.  0.
<mgrwt>
<rscale>  0 0.55750557E+03</rscale>
<asrwt>0</asrwt>
<pdfrwt beam="1">  1        2 0.95955475E-01 0.69987631E+03</pdfrwt>
<pdfrwt beam="2">  1       -2 0.18687777E+00 0.69987631E+03</pdfrwt>
<totfact> 0.78859236E+00</totfact>
</mgrwt>
</event>
<event>
 4    1  0.8287789E-007  0.1462949E+04  0.7818608E-02  0.8936252E-01
         -2   -1    0    0    0  501 -0.00000000000E+00  0.00000000000E+00  0.11265441653E+04  0.11265441653E+04  0.25500000000E-02 0.  1.
          2   -1    0    0  501    0  0.00000000000E+00 -0.00000000000E+00 -0.17156674265E+04  0.17156674265E+04  0.25500000000E-02 0. -1.
    8880023    1    1    2    0    0  0.14787418198E+03 -0.12978993180E+04 -0.36812913596E+03  0.15085551632E+04  0.65864270000E+03 0. -1.
    8880022    1    1    2    0    0 -0.14787418198E+03  0.12978993180E+04 -0.22099412520E+03  0.13336564286E+04  0.15294330000E+03 0.  1.
<mgrwt>
<rscale>  0 0.14245293E+04</rscale>
<asrwt>0</asrwt>
<pdfrwt beam="1">  1        2 0.26394883E+00 0.14629489E+04</pdfrwt>
<pdfrwt beam="2">  1       -2 0.17331449E+00 0.14629489E+04</pdfrwt>
<totfact> 0.18361384E+00</totfact>
</mgrwt>
</event>
<event>
 4    1  0.8287789E-007  0.1090646E+04  0.7818608E-02  0.9271543E-01
         -2   -1    0    0    0  501 -0.00000000000E+00  0.00000000000E+00  0.21593070254E+04  0.21593070254E+04  0.25500000000E-02 0.  1.
          2   -1    0    0  501    0  0.00000000000E+00 -0.00000000000E+00 -0.76884298117E+03  0.76884298117E+03  0.25500000000E-02 0. -1.
    8880023    1    1    2    0    0 -0.10626384250E+03 -0.86279017757E+03 -0.20032580049E+03  0.11088911251E+04  0.65864270000E+03 0.  0.
    8880022    1    1    2    0    0  0.10626384250E+03  0.86279017757E+03  0.15907898447E+04  0.18192588815E+04  0.15294330000E+03 0.  0.
<mgrwt>
<rscale>  0 0.10344545E+04</rscale>
<asrwt>0</asrwt>
<pdfrwt beam="1">  1        2 0.11828354E+00 0.10906462E+04</pdfrwt>
<pdfrwt beam="2">  1       -2 0.33220108E+00 0.10906462E+04</pdfrwt>
<totfact> 0.72830451E-01</totfact>
</mgrwt>
</event>
<event>
 4    1  0.8287789E-007  0.6649900E+03  0.7818608E-02  0.1019542E+00
          2   -1    0    0  501    0  0.00000000000E+00  0.00000000000E+00  0.96295320626E+03  0.96295320627E+03  0.25500000000E-02 0. -1.
         -2   -1    0    0    0  501 -0.00000000000E+00 -0.00000000000E+00 -0.22918814286E+03  0.22918814287E+03  0.25500000000E-02 0.  1.
    8880023    1    1    2    0    0 -0.89127169433E+02  0.21395858266E+02  0.76227481042E+03  0.10115703277E+04  0.65864270000E+03 0. -1.
    8880022    1    1    2    0    0  0.89127169433E+02 -0.21395858266E+02 -0.28509747020E+02  0.18057102141E+03  0.15294330000E+03 0.  0.
<mgrwt>
<rscale>  0 0.47852310E+03</rscale>
<asrwt>0</asrwt>
<pdfrwt beam="1">  1        2 0.14814665E+00 0.66498996E+03</pdfrwt>
<pdfrwt beam="2">  1       -2 0.35259714E-01 0.66498996E+03</pdfrwt>
<totfact> 0.20410538E+02</totfact>
</mgrwt>
</event>
<event>
 4    1  0.8287789E-007  0.8791318E+03  0.7818608E-02  0.9560398E-01
         -2   -1    0    0    0  501 -0.00000000000E+00  0.00000000000E+00  0.13537676250E+04  0.13537676250E+04  0.25500000000E-02 0.  1.
          2   -1    0    0  501    0  0.00000000000E+00 -0.00000000000E+00 -0.62122965630E+03  0.62122965630E+03  0.25500000000E-02 0. -1.
    8880023    1    1    2    0    0  0.57129812036E+03 -0.11260947329E+03 -0.16476530722E+03  0.89443851020E+03  0.65864270000E+03 0. -1.
    8880022    1    1    2    0    0 -0.57129812036E+03  0.11260947329E+03  0.89730327590E+03  0.10805587711E+04  0.15294330000E+03 0.  0.
<mgrwt>
<rscale>  0 0.79973684E+03</rscale>
<asrwt>0</asrwt>
<pdfrwt beam="1">  1        2 0.95573793E-01 0.87913175E+03</pdfrwt>
<pdfrwt beam="2">  1       -2 0.20827194E+00 0.87913175E+03</pdfrwt>
<totfact> 0.56222772E+00</totfact>
</mgrwt>
</event>
<event>
 4    1  0.8287789E-007  0.7021591E+03  0.7818608E-02  0.9988360E-01
          2   -1    0    0  501    0  0.00000000000E+00  0.00000000000E+00  0.36357943309E+04  0.36357943309E+04  0.25500000000E-02 0. -1.
         -2   -1    0    0    0  501 -0.00000000000E+00 -0.00000000000E+00 -0.12643346304E+03  0.12643346307E+03  0.25500000000E-02 0.  1.
    8880023    1    1    2    0    0 -0.22299170793E+03 -0.97426112514E+02  0.33707976815E+04  0.34431532590E+04  0.65864270000E+03 0. -1.
    8880022    1    1    2    0    0  0.22299170793E+03  0.97426112514E+02  0.13856318630E+03  0.31907453489E+03  0.15294330000E+03 0.  0.
<mgrwt>
<rscale>  0 0.56163598E+03</rscale>
<asrwt>0</asrwt>
<pdfrwt beam="1">  1        2 0.55935304E+00 0.70215907E+03</pdfrwt>
<pdfrwt beam="2">  1       -2 0.19451300E-01 0.70215907E+03</pdfrwt>
<totfact> 0.15932077E+01</totfact>
</mgrwt>
</event>
<event>
 4    1  0.8287789E-007  0.6624219E+03  0.7818608E-02  0.1021802E+00
         -2   -1    0    0    0  501 -0.00000000000E+00  0.00000000000E+00  0.44367589089E+03  0.44367589090E+03  0.25500000000E-02 0.  1.
          2   -1    0    0  501    0  0.00000000000E+00 -0.00000000000E+00 -0.62149776188E+03  0.62149776189E+03  0.25500000000E-02 0. -1.
    8880023    1    1    2    0    0  0.20544990043E+02 -0.67605019464E+02 -0.40945334009E+03  0.77875206532E+03  0.65864270000E+03 0. -1.
    8880022    1    1    2    0    0 -0.20544990043E+02  0.67605019464E+02  0.23163146910E+03  0.28642158746E+03  0.15294330000E+03 0.  0.
<mgrwt>
<rscale>  0 0.47041976E+03</rscale>
<asrwt>0</asrwt>
<pdfrwt beam="1">  1        2 0.95615041E-01 0.66242188E+03</pdfrwt>
<pdfrwt beam="2">  1       -2 0.68257829E-01 0.66242188E+03</pdfrwt>
<totfact> 0.94925721E+01</totfact>
</mgrwt>
</event>
<event>
 4    1  0.8287789E-007  0.8424535E+03  0.7818608E-02  0.9625571E-01
          2   -1    0    0  501    0  0.00000000000E+00  0.00000000000E+00  0.54739875445E+03  0.54739875446E+03  0.25500000000E-02 0. -1.
         -2   -1    0    0    0  501 -0.00000000000E+00 -0.00000000000E+00 -0.19676537958E+04  0.19676537958E+04  0.25500000000E-02 0.  1.
    8880023    1    1    2    0    0 -0.50692430837E+03 -0.13764236014E+03  0.14688429549E+03  0.85516248529E+03  0.65864270000E+03 0.  0.
    8880022    1    1    2    0    0  0.50692430837E+03  0.13764236014E+03 -0.15671393368E+04  0.16598900649E+04  0.15294330000E+03 0.  0.
<mgrwt>
<rscale>  0 0.75626583E+03</rscale>
<asrwt>0</asrwt>
<pdfrwt beam="1">  1        2 0.84215194E-01 0.84245349E+03</pdfrwt>
<pdfrwt beam="2">  1       -2 0.30271597E+00 0.84245349E+03</pdfrwt>
<totfact> 0.17408432E+00</totfact>
</mgrwt>
</event>
<event>
 4    1  0.8287789E-007  0.7479201E+03  0.7818608E-02  0.9837449E-01
          2   -1    0    0  501    0  0.00000000000E+00  0.00000000000E+00  0.10946675151E+04  0.10946675151E+04  0.25500000000E-02 0. -1.
         -2   -1    0    0    0  501 -0.00000000000E+00 -0.00000000000E+00 -0.48351112610E+03  0.48351112610E+03  0.25500000000E-02 0.  1.
    8880023    1    1    2    0    0 -0.86431989056E+02 -0.34366219933E+03  0.84377520645E+03  0.11275375831E+04  0.65864270000E+03 0.  0.
    8880022    1    1    2    0    0  0.86431989056E+02  0.34366219933E+03 -0.23261881748E+03  0.45064105809E+03  0.15294330000E+03 0.  0.
<mgrwt>
<rscale>  0 0.63390944E+03</rscale>
<asrwt>0</asrwt>
<pdfrwt beam="1">  1        2 0.16841039E+00 0.74792005E+03</pdfrwt>
<pdfrwt beam="2">  1       -2 0.74386326E-01 0.74792005E+03</pdfrwt>
<totfact> 0.36313633E+01</totfact>
</mgrwt>
</event>
<event>
 4    1  0.8287789E-007  0.6708747E+03  0.7818608E-02  0.1015043E+00
         -2   -1    0    0    0  501 -0.00000000000E+00  0.00000000000E+00  0.10657129927E+04  0.10657129927E+04  0.25500000000E-02 0.  1.
          2   -1    0    0  501    0  0.00000000000E+00 -0.00000000000E+00 -0.39164665358E+03  0.39164665359E+03  0.25500000000E-02 0. -1.
    8880023    1    1    2    0    0  0.10991624167E+03 -0.64661471392E+02 -0.81670387967E+02  0.67582759976E+03  0.65864270000E+03 0. -1.
    8880022    1    1    2    0    0 -0.10991624167E+03  0.64661471392E+02  0.75573672705E+03  0.78153204649E+03  0.15294330000E+03 0.  0.
<mgrwt>
<rscale>  0 0.49518492E+03</rscale>
<asrwt>0</asrwt>
<pdfrwt beam="1">  1        2 0.60253331E-01 0.67087472E+03</pdfrwt>
<pdfrwt beam="2">  1       -2 0.16395585E+00 0.67087472E+03</pdfrwt>
<totfact> 0.19591853E+01</totfact>
</mgrwt>
</event>
<event>
 4    1  0.8287789E-007  0.1713211E+04  0.7818608E-02  0.8772128E-01
         -2   -1    0    0    0  501 -0.00000000000E+00  0.00000000000E+00  0.14410262538E+04  0.14410262538E+04  0.25500000000E-02 0.  1.
          2   -1    0    0  501    0  0.00000000000E+00 -0.00000000000E+00 -0.32708339015E+04  0.32708339015E+04  0.25500000000E-02 0. -1.
    8880023    1    1    2    0    0  0.12553112504E+04  0.96201643327E+03 -0.24639872999E+04  0.30010540771E+04  0.65864270000E+03 0.  0.
    8880022    1    1    2    0    0 -0.12553112504E+04 -0.96201643327E+03  0.63417965223E+03  0.17108060783E+04  0.15294330000E+03 0.  0.
<mgrwt>
<rscale>  0 0.16812558E+04</rscale>
<asrwt>0</asrwt>
<pdfrwt beam="1">  1        2 0.50320521E+00 0.17132111E+04</pdfrwt>
<pdfrwt beam="2">  1       -2 0.22169635E+00 0.17132111E+04</pdfrwt>
<totfact> 0.10320802E-01</totfact>
</mgrwt>
</event>
<event>
 4    1  0.8287789E-007  0.7358944E+03  0.7818608E-02  0.9872072E-01
         -2   -1    0    0    0  501 -0.00000000000E+00  0.00000000000E+00  0.17629891749E+04  0.17629891749E+04  0.25500000000E-02 0.  1.
          2   -1    0    0  501    0  0.00000000000E+00 -0.00000000000E+00 -0.38882708330E+03  0.38882708330E+03  0.25500000000E-02 0. -1.
    8880023    1    1    2    0    0 -0.86492707016E+02 -0.31662181358E+03  0.53459212425E+01  0.73591381719E+03  0.65864270000E+03 0. -1.
    8880022    1    1    2    0    0  0.86492707016E+02  0.31662181358E+03  0.13688161703E+04  0.14159024410E+04  0.15294330000E+03 0.  0.
<mgrwt>
<rscale>  0 0.61634102E+03</rscale>
<asrwt>0</asrwt>
<pdfrwt beam="1">  1        2 0.59819552E-01 0.73589440E+03</pdfrwt>
<pdfrwt beam="2">  1       -2 0.27122910E+00 0.73589440E+03</pdfrwt>
<totfact> 0.40489485E+00</totfact>
</mgrwt>
</event>
<event>
 4    1  0.8287789E-007  0.7086243E+03  0.7818608E-02  0.9963145E-01
         -2   -1    0    0    0  501 -0.00000000000E+00  0.00000000000E+00  0.16104875159E+04  0.16104875159E+04  0.25500000000E-02 0.  1.
          2   -1    0    0  501    0  0.00000000000E+00 -0.00000000000E+00 -0.30727884499E+03  0.30727884500E+03  0.25500000000E-02 0. -1.
    8880023    1    1    2    0    0  0.20144179670E+03 -0.16661141990E+03  0.14852439906E+03  0.72402200662E+03  0.65864270000E+03 0. -1.
    8880022    1    1    2    0    0 -0.20144179670E+03  0.16661141990E+03  0.11546842719E+04  0.11937443543E+04  0.15294330000E+03 0.  0.
<mgrwt>
<rscale>  0 0.57296202E+03</rscale>
<asrwt>0</asrwt>
<pdfrwt beam="1">  1        2 0.47273668E-01 0.70862428E+03</pdfrwt>
<pdfrwt beam="2">  1       -2 0.24776731E+00 0.70862428E+03</pdfrwt>
<totfact> 0.73155289E+00</totfact>
</mgrwt>
</event>
<event>
 4    1  0.8287789E-007  0.1219036E+04  0.7818608E-02  0.9138837E-01
          2   -1    0    0  501    0  0.00000000000E+00  0.00000000000E+00  0.25644009714E+04  0.25644009714E+04  0.25500000000E-02 0. -1.
         -2   -1    0    0    0  501 -0.00000000000E+00 -0.00000000000E+00 -0.90021355483E+03  0.90021355483E+03  0.25500000000E-02 0.  1.
    8880023    1    1    2    0    0  0.18908276265E+03  0.10082088838E+04  0.20274478150E+04  0.23657117942E+04  0.65864270000E+03 0.  0.
    8880022    1    1    2    0    0 -0.18908276265E+03 -0.10082088838E+04 -0.36326039835E+03  0.10989027321E+04  0.15294330000E+03 0.  0.
<mgrwt>
<rscale>  0 0.11707660E+04</rscale>
<asrwt>0</asrwt>
<pdfrwt beam="1">  1        2 0.39452322E+00 0.12190355E+04</pdfrwt>
<pdfrwt beam="2">  1       -2 0.13849440E+00 0.12190355E+04</pdfrwt>
<totfact> 0.11525329E+00</totfact>
</mgrwt>
</event>
<event>
 4    1  0.8287789E-007  0.1043675E+04  0.7818608E-02  0.9326524E-01
          2   -1    0    0  501    0  0.00000000000E+00  0.00000000000E+00  0.15128986834E+04  0.15128986834E+04  0.25500000000E-02 0. -1.
         -2   -1    0    0    0  501 -0.00000000000E+00 -0.00000000000E+00 -0.62551721088E+03  0.62551721088E+03  0.25500000000E-02 0.  1.
    8880023    1    1    2    0    0 -0.78536798113E+03 -0.19658135633E+03  0.78961194754E+03  0.13087185830E+04  0.65864270000E+03 0.  0.
    8880022    1    1    2    0    0  0.78536798113E+03  0.19658135633E+03  0.97769525020E+02  0.82969731136E+03  0.15294330000E+03 0.  0.
<mgrwt>
<rscale>  0 0.98377268E+03</rscale>
<asrwt>0</asrwt>
<pdfrwt beam="1">  1        2 0.23275364E+00 0.10436749E+04</pdfrwt>
<pdfrwt beam="2">  1       -2 0.96233418E-01 0.10436749E+04</pdfrwt>
<totfact> 0.11193248E+01</totfact>
</mgrwt>
</event>
<event>
 4    1  0.8287789E-007  0.7881162E+03  0.7818608E-02  0.9737106E-01
         -2   -1    0    0    0  501 -0.00000000000E+00  0.00000000000E+00  0.33018426015E+03  0.33018426016E+03  0.25500000000E-02 0.  1.
          2   -1    0    0  501    0  0.00000000000E+00 -0.00000000000E+00 -0.12866458551E+04  0.12866458551E+04  0.25500000000E-02 0. -1.
    8880023    1    1    2    0    0  0.37327765415E+03 -0.21904494507E+03 -0.36606630374E+03  0.86898310689E+03  0.65864270000E+03 0.  1.
    8880022    1    1    2    0    0 -0.37327765415E+03  0.21904494507E+03 -0.59039529120E+03  0.74784700838E+03  0.15294330000E+03 0.  0.
<mgrwt>
<rscale>  0 0.68849842E+03</rscale>
<asrwt>0</asrwt>
<pdfrwt beam="1">  1        2 0.19794551E+00 0.78811617E+03</pdfrwt>
<pdfrwt beam="2">  1       -2 0.50797579E-01 0.78811617E+03</pdfrwt>
<totfact> 0.62560608E+01</totfact>
</mgrwt>
</event>
<event>
 4    1  0.8287789E-007  0.8562805E+03  0.7818608E-02  0.9600214E-01
         -2   -1    0    0    0  501 -0.00000000000E+00  0.00000000000E+00  0.30271695772E+03  0.30271695773E+03  0.25500000000E-02 0.  1.
          2   -1    0    0  501    0  0.00000000000E+00 -0.00000000000E+00 -0.16765741635E+04  0.16765741635E+04  0.25500000000E-02 0. -1.
    8880023    1    1    2    0    0 -0.29701491158E+03  0.45955216312E+03 -0.80324844918E+03  0.11740631694E+04  0.65864270000E+03 0.  1.
    8880022    1    1    2    0    0  0.29701491158E+03 -0.45955216312E+03 -0.57060875664E+03  0.80522795188E+03  0.15294330000E+03 0. -1.
<mgrwt>
<rscale>  0 0.77281997E+03</rscale>
<asrwt>0</asrwt>
<pdfrwt beam="1">  1        2 0.25793448E+00 0.85628048E+03</pdfrwt>
<pdfrwt beam="2">  1       -2 0.46571841E-01 0.85628048E+03</pdfrwt>
<totfact> 0.44768891E+01</totfact>
</mgrwt>
</event>
<event>
 4    1  0.8287789E-007  0.7276605E+03  0.7818608E-02  0.9897470E-01
         -2   -1    0    0    0  501 -0.00000000000E+00  0.00000000000E+00  0.27975757832E+03  0.27975757834E+03  0.25500000000E-02 0.  1.
          2   -1    0    0  501    0  0.00000000000E+00 -0.00000000000E+00 -0.13706598596E+04  0.13706598596E+04  0.25500000000E-02 0. -1.
    8880023    1    1    2    0    0 -0.79376252112E+02  0.29896309955E+03 -0.10836282202E+04  0.13052738602E+04  0.65864270000E+03 0.  0.
    8880022    1    1    2    0    0  0.79376252112E+02 -0.29896309955E+03 -0.72740611297E+01  0.34514357777E+03  0.15294330000E+03 0.  0.
<mgrwt>
<rscale>  0 0.60384074E+03</rscale>
<asrwt>0</asrwt>
<pdfrwt beam="1">  1        2 0.21087074E+00 0.72766045E+03</pdfrwt>
<pdfrwt beam="2">  1       -2 0.43039628E-01 0.72766045E+03</pdfrwt>
<totfact> 0.78547835E+01</totfact>
</mgrwt>
</event>
<event>
 4    1  0.8287789E-007  0.7714192E+03  0.7818608E-02  0.9776394E-01
          2   -1    0    0  501    0  0.00000000000E+00  0.00000000000E+00  0.60542407841E+03  0.60542407841E+03  0.25500000000E-02 0. -1.
         -2   -1    0    0    0  501 -0.00000000000E+00 -0.00000000000E+00 -0.10518579958E+04  0.10518579958E+04  0.25500000000E-02 0.  1.
    8880023    1    1    2    0    0  0.49140709298E+02 -0.39857571204E+03  0.27381740973E+03  0.81857411862E+03  0.65864270000E+03 0.  0.
    8880022    1    1    2    0    0 -0.49140709298E+02  0.39857571204E+03 -0.72025132713E+03  0.83870795560E+03  0.15294330000E+03 0.  0.
<mgrwt>
<rscale>  0 0.66644929E+03</rscale>
<asrwt>0</asrwt>
<pdfrwt beam="1">  1        2 0.93142166E-01 0.77141922E+03</pdfrwt>
<pdfrwt beam="2">  1       -2 0.16182431E+00 0.77141922E+03</pdfrwt>
<totfact> 0.12139124E+01</totfact>
</mgrwt>
</event>
<event>
 4    1  0.8287789E-007  0.7079003E+03  0.7818608E-02  0.9965882E-01
          2   -1    0    0  501    0  0.00000000000E+00  0.00000000000E+00  0.12657436708E+04  0.12657436708E+04  0.25500000000E-02 0. -1.
         -2   -1    0    0    0  501 -0.00000000000E+00 -0.00000000000E+00 -0.50329501589E+03  0.50329501590E+03  0.25500000000E-02 0.  1.
    8880023    1    1    2    0    0  0.25778037803E+03  0.29358908518E+02  0.11053841468E+04  0.13126297982E+04  0.65864270000E+03 0. -1.
    8880022    1    1    2    0    0 -0.25778037803E+03 -0.29358908518E+02 -0.34293549196E+03  0.45640888846E+03  0.15294330000E+03 0.  0.
<mgrwt>
<rscale>  0 0.57171894E+03</rscale>
<asrwt>0</asrwt>
<pdfrwt beam="1">  1        2 0.19472979E+00 0.70790033E+03</pdfrwt>
<pdfrwt beam="2">  1       -2 0.77430003E-01 0.70790033E+03</pdfrwt>
<totfact> 0.26384849E+01</totfact>
</mgrwt>
</event>
<event>
 4    1  0.8287789E-007  0.9269193E+03  0.7818608E-02  0.9484130E-01
         -2   -1    0    0    0  501 -0.00000000000E+00  0.00000000000E+00  0.43630885303E+03  0.43630885304E+03  0.25500000000E-02 0.  1.
          2   -1    0    0  501    0  0.00000000000E+00 -0.00000000000E+00 -0.31481549342E+04  0.31481549342E+04  0.25500000000E-02 0. -1.
    8880023    1    1    2    0    0 -0.28182219044E+03 -0.58817129621E+03 -0.27613209076E+04  0.29127431369E+04  0.65864270000E+03 0. -1.
    8880022    1    1    2    0    0  0.28182219044E+03  0.58817129621E+03  0.49474826348E+02  0.67172065039E+03  0.15294330000E+03 0.  0.
<mgrwt>
<rscale>  0 0.85464021E+03</rscale>
<asrwt>0</asrwt>
<pdfrwt beam="1">  1        2 0.48433151E+00 0.92691932E+03</pdfrwt>
<pdfrwt beam="2">  1       -2 0.67124441E-01 0.92691932E+03</pdfrwt>
<totfact> 0.29626329E+00</totfact>
</mgrwt>
</event>
<event>
 4    1  0.8287789E-007  0.8623561E+03  0.7818608E-02  0.9589386E-01
          2   -1    0    0  501    0  0.00000000000E+00  0.00000000000E+00  0.24158891881E+04  0.24158891881E+04  0.25500000000E-02 0. -1.
         -2   -1    0    0    0  501 -0.00000000000E+00 -0.00000000000E+00 -0.34729757500E+03  0.34729757501E+03  0.25500000000E-02 0.  1.
    8880023    1    1    2    0    0  0.33163748991E+03  0.44706202013E+03  0.31675667168E+03  0.91869084564E+03  0.65864270000E+03 0.  0.
    8880022    1    1    2    0    0 -0.33163748991E+03 -0.44706202013E+03  0.17518349414E+04  0.18444959174E+04  0.15294330000E+03 0.  0.
<mgrwt>
<rscale>  0 0.78002685E+03</rscale>
<asrwt>0</asrwt>
<pdfrwt beam="1">  1        2 0.37167526E+00 0.86235612E+03</pdfrwt>
<pdfrwt beam="2">  1       -2 0.53430397E-01 0.86235612E+03</pdfrwt>
<totfact> 0.13214625E+01</totfact>
</mgrwt>
</event>
<event>
 4    1  0.8287789E-007  0.9833751E+03  0.7818608E-02  0.9403639E-01
          2   -1    0    0  501    0  0.00000000000E+00  0.00000000000E+00  0.71742951983E+03  0.71742951983E+03  0.25500000000E-02 0. -1.
         -2   -1    0    0    0  501 -0.00000000000E+00 -0.00000000000E+00 -0.12057037334E+04  0.12057037334E+04  0.25500000000E-02 0.  1.
    8880023    1    1    2    0    0 -0.61342615659E+03 -0.39613730388E+03  0.78058801522E+02  0.98646834509E+03  0.65864270000E+03 0.  0.
    8880022    1    1    2    0    0  0.61342615659E+03  0.39613730388E+03 -0.56633301506E+03  0.93666490810E+03  0.15294330000E+03 0.  0.
<mgrwt>
<rscale>  0 0.91776839E+03</rscale>
<asrwt>0</asrwt>
<pdfrwt beam="1">  1        2 0.11037377E+00 0.98337512E+03</pdfrwt>
<pdfrwt beam="2">  1       -2 0.18549288E+00 0.98337512E+03</pdfrwt>
<totfact> 0.65640225E+00</totfact>
</mgrwt>
</event>
<event>
 4    1  0.8287789E-007  0.1188076E+04  0.7818608E-02  0.9168802E-01
         -2   -1    0    0    0  501 -0.00000000000E+00  0.00000000000E+00  0.51537664282E+04  0.51537664282E+04  0.25500000000E-02 0.  1.
          2   -1    0    0  501    0  0.00000000000E+00 -0.00000000000E+00 -0.53707702383E+03  0.53707702384E+03  0.25500000000E-02 0. -1.
    8880023    1    1    2    0    0 -0.65346264276E+03 -0.74209163775E+03  0.25404470816E+03  0.12149330617E+04  0.65864270000E+03 0.  0.
    8880022    1    1    2    0    0  0.65346264276E+03  0.74209163775E+03  0.43626446962E+04  0.44759103903E+04  0.15294330000E+03 0.  0.
<mgrwt>
<rscale>  0 0.11381330E+04</rscale>
<asrwt>0</asrwt>
<pdfrwt beam="1">  1        2 0.82627234E-01 0.11880756E+04</pdfrwt>
<pdfrwt beam="2">  1       -2 0.79288714E+00 0.11880756E+04</pdfrwt>
<totfact> 0.50567466E-03</totfact>
</mgrwt>
</event>
<event>
 4    1  0.8287789E-007  0.9803549E+03  0.7818608E-02  0.9407723E-01
         -2   -1    0    0    0  501 -0.00000000000E+00  0.00000000000E+00  0.24006411652E+04  0.24006411652E+04  0.25500000000E-02 0.  1.
          2   -1    0    0  501    0  0.00000000000E+00 -0.00000000000E+00 -0.37097613919E+03  0.37097613920E+03  0.25500000000E-02 0. -1.
    8880023    1    1    2    0    0  0.70995475169E+03  0.15247847599E+03  0.56965917472E+03  0.11338462050E+04  0.65864270000E+03 0.  0.
    8880022    1    1    2    0    0 -0.70995475169E+03 -0.15247847599E+03  0.14600058513E+04  0.16377710993E+04  0.15294330000E+03 0.  0.
<mgrwt>
<rscale>  0 0.91442819E+03</rscale>
<asrwt>0</asrwt>
<pdfrwt beam="1">  1        2 0.57073249E-01 0.98035485E+03</pdfrwt>
<pdfrwt beam="2">  1       -2 0.36932943E+00 0.98035485E+03</pdfrwt>
<totfact> 0.10366550E+00</totfact>
</mgrwt>
</event>
<event>
 4    1  0.8287789E-007  0.1151789E+04  0.7818608E-02  0.9205473E-01
         -2   -1    0    0    0  501 -0.00000000000E+00  0.00000000000E+00  0.11034844143E+04  0.11034844143E+04  0.25500000000E-02 0.  1.
          2   -1    0    0  501    0  0.00000000000E+00 -0.00000000000E+00 -0.13568474222E+04  0.13568474222E+04  0.25500000000E-02 0. -1.
    8880023    1    1    2    0    0 -0.62751009203E+03 -0.70642742279E+03 -0.75744445533E+03  0.13785285374E+04  0.65864270000E+03 0. -1.
    8880022    1    1    2    0    0  0.62751009203E+03  0.70642742279E+03  0.50408144748E+03  0.10818032991E+04  0.15294330000E+03 0.  0.
<mgrwt>
<rscale>  0 0.10997111E+04</rscale>
<asrwt>0</asrwt>
<pdfrwt beam="1">  1        2 0.20874576E+00 0.11517894E+04</pdfrwt>
<pdfrwt beam="2">  1       -2 0.16976683E+00 0.11517894E+04</pdfrwt>
<totfact> 0.31984600E+00</totfact>
</mgrwt>
</event>
<event>
 4    1  0.8287789E-007  0.6629639E+03  0.7818608E-02  0.1021306E+00
         -2   -1    0    0    0  501 -0.00000000000E+00  0.00000000000E+00  0.12769425164E+03  0.12769425167E+03  0.25500000000E-02 0.  1.
          2   -1    0    0  501    0  0.00000000000E+00 -0.00000000000E+00 -0.17048150213E+04  0.17048150213E+04  0.25500000000E-02 0. -1.
    8880023    1    1    2    0    0 -0.61895212534E+02 -0.43358313285E+02 -0.15101046708E+04  0.16492232364E+04  0.65864270000E+03 0.  0.
    8880022    1    1    2    0    0  0.61895212534E+02  0.43358313285E+02 -0.67016098908E+02  0.18328603655E+03  0.15294330000E+03 0.  0.
<mgrwt>
<rscale>  0 0.47218145E+03</rscale>
<asrwt>0</asrwt>
<pdfrwt beam="1">  1        2 0.26227922E+00 0.66296393E+03</pdfrwt>
<pdfrwt beam="2">  1       -2 0.19645271E-01 0.66296393E+03</pdfrwt>
<totfact> 0.22002513E+02</totfact>
</mgrwt>
</event>
<event>
 4    1  0.8287789E-007  0.6863871E+03  0.7818608E-02  0.1005919E+00
          2   -1    0    0  501    0  0.00000000000E+00  0.00000000000E+00  0.12469266903E+04  0.12469266903E+04  0.25500000000E-02 0. -1.
         -2   -1    0    0    0  501 -0.00000000000E+00 -0.00000000000E+00 -0.18570942766E+03  0.18570942767E+03  0.25500000000E-02 0.  1.
    8880023    1    1    2    0    0 -0.49924821199E+02  0.18661347196E+03  0.92262510160E+03  0.11499410246E+04  0.65864270000E+03 0.  0.
    8880022    1    1    2    0    0  0.49924821199E+02 -0.18661347196E+03  0.13859216099E+03  0.28269509333E+03  0.15294330000E+03 0.  0.
<mgrwt>
<rscale>  0 0.53129195E+03</rscale>
<asrwt>0</asrwt>
<pdfrwt beam="1">  1        2 0.19183488E+00 0.68638712E+03</pdfrwt>
<pdfrwt beam="2">  1       -2 0.28570681E-01 0.68638712E+03</pdfrwt>
<totfact> 0.20262261E+02</totfact>
</mgrwt>
</event>
<event>
 4    1  0.8287789E-007  0.1100738E+04  0.7818608E-02  0.9260235E-01
         -2   -1    0    0    0  501 -0.00000000000E+00  0.00000000000E+00  0.68094705998E+03  0.68094705999E+03  0.25500000000E-02 0.  1.
          2   -1    0    0  501    0  0.00000000000E+00 -0.00000000000E+00 -0.14752023971E+04  0.14752023971E+04  0.25500000000E-02 0. -1.
    8880023    1    1    2    0    0  0.44123933466E+03 -0.76362428342E+03 -0.53744030381E+03  0.12249352975E+04  0.65864270000E+03 0.  1.
    8880022    1    1    2    0    0 -0.44123933466E+03  0.76362428342E+03 -0.25681503335E+03  0.93121415961E+03  0.15294330000E+03 0. -1.
<mgrwt>
<rscale>  0 0.10452761E+04</rscale>
<asrwt>0</asrwt>
<pdfrwt beam="1">  1        2 0.22695421E+00 0.11007381E+04</pdfrwt>
<pdfrwt beam="2">  1       -2 0.10476109E+00 0.11007381E+04</pdfrwt>
<totfact> 0.95493897E+00</totfact>
</mgrwt>
</event>
<event>
 4    1  0.8287789E-007  0.6899817E+03  0.7818608E-02  0.1004161E+00
         -2   -1    0    0    0  501 -0.00000000000E+00  0.00000000000E+00  0.50763152105E+03  0.50763152105E+03  0.25500000000E-02 0.  1.
          2   -1    0    0  501    0  0.00000000000E+00 -0.00000000000E+00 -0.25858674785E+04  0.25858674785E+04  0.25500000000E-02 0. -1.
    8880023    1    1    2    0    0 -0.20442264537E+03 -0.21816928976E+02 -0.25035899664E+04  0.25969284785E+04  0.65864270000E+03 0. -1.
    8880022    1    1    2    0    0  0.20442264537E+03  0.21816928976E+02  0.42535400901E+03  0.49657052100E+03  0.15294330000E+03 0.  0.
<mgrwt>
<rscale>  0 0.53862649E+03</rscale>
<asrwt>0</asrwt>
<pdfrwt beam="1">  1        2 0.39782576E+00 0.68998174E+03</pdfrwt>
<pdfrwt beam="2">  1       -2 0.78097159E-01 0.68998174E+03</pdfrwt>
<totfact> 0.48187155E+00</totfact>
</mgrwt>
</event>
<event>
 4    1  0.8287789E-007  0.8706686E+03  0.7818608E-02  0.9574861E-01
         -2   -1    0    0    0  501 -0.00000000000E+00  0.00000000000E+00  0.13834761679E+04  0.13834761679E+04  0.25500000000E-02 0.  1.
          2   -1    0    0  501    0  0.00000000000E+00 -0.00000000000E+00 -0.66977498245E+03  0.66977498246E+03  0.25500000000E-02 0. -1.
    8880023    1    1    2    0    0 -0.34888074802E+03 -0.45003977377E+03  0.10582191306E+04  0.13703618168E+04  0.65864270000E+03 0.  0.
    8880022    1    1    2    0    0  0.34888074802E+03  0.45003977377E+03 -0.34451794516E+03  0.68288933354E+03  0.15294330000E+03 0.  0.
<mgrwt>
<rscale>  0 0.78982648E+03</rscale>
<asrwt>0</asrwt>
<pdfrwt beam="1">  1        2 0.10304231E+00 0.87066858E+03</pdfrwt>
<pdfrwt beam="2">  1       -2 0.21284249E+00 0.87066858E+03</pdfrwt>
<totfact> 0.47939003E+00</totfact>
</mgrwt>
</event>
<event>
 4    1  0.8287789E-007  0.6749156E+03  0.7818608E-02  0.1012359E+00
          2   -1    0    0  501    0  0.00000000000E+00  0.00000000000E+00  0.20347451877E+04  0.20347451877E+04  0.25500000000E-02 0. -1.
         -2   -1    0    0    0  501 -0.00000000000E+00 -0.00000000000E+00 -0.21005368545E+03  0.21005368546E+03  0.25500000000E-02 0.  1.
    8880023    1    1    2    0    0 -0.13599591784E+03  0.56621678380E+02  0.19024807569E+04  0.20186490881E+04  0.65864270000E+03 0. -1.
    8880022    1    1    2    0    0  0.13599591784E+03 -0.56621678380E+02 -0.77789254667E+02  0.22614978507E+03  0.15294330000E+03 0.  0.
<mgrwt>
<rscale>  0 0.50547563E+03</rscale>
<asrwt>0</asrwt>
<pdfrwt beam="1">  1        2 0.31303773E+00 0.67491563E+03</pdfrwt>
<pdfrwt beam="2">  1       -2 0.32315951E-01 0.67491563E+03</pdfrwt>
<totfact> 0.59209475E+01</totfact>
</mgrwt>
</event>
<event>
 4    1  0.8287789E-007  0.9228834E+03  0.7818608E-02  0.9490252E-01
         -2   -1    0    0    0  501 -0.00000000000E+00  0.00000000000E+00  0.20681042660E+03  0.20681042662E+03  0.25500000000E-02 0.  1.
          2   -1    0    0  501    0  0.00000000000E+00 -0.00000000000E+00 -0.41014126716E+04  0.41014126717E+04  0.25500000000E-02 0. -1.
    8880023    1    1    2    0    0  0.55930136910E+03 -0.32416901500E+03 -0.32651527540E+04  0.33930718067E+04  0.65864270000E+03 0.  0.
    8880022    1    1    2    0    0 -0.55930136910E+03  0.32416901500E+03 -0.62944949100E+03  0.91515129159E+03  0.15294330000E+03 0.  0.
<mgrwt>
<rscale>  0 0.85006333E+03</rscale>
<asrwt>0</asrwt>
<pdfrwt beam="1">  1        2 0.63098651E+00 0.92288340E+03</pdfrwt>
<pdfrwt beam="2">  1       -2 0.31816992E-01 0.92288340E+03</pdfrwt>
<totfact> 0.27803161E+00</totfact>
</mgrwt>
</event>
<event>
 4    1  0.8287789E-007  0.8305484E+03  0.7818608E-02  0.9648266E-01
          2   -1    0    0  501    0  0.00000000000E+00  0.00000000000E+00  0.37725600844E+03  0.37725600845E+03  0.25500000000E-02 0. -1.
         -2   -1    0    0    0  501 -0.00000000000E+00 -0.00000000000E+00 -0.19681461452E+04  0.19681461452E+04  0.25500000000E-02 0.  1.
    8880023    1    1    2    0    0 -0.49885142281E+03  0.84543628038E+02 -0.19549018353E+03  0.85324497373E+03  0.65864270000E+03 0. -1.
    8880022    1    1    2    0    0  0.49885142281E+03 -0.84543628038E+02 -0.13953999532E+04  0.14921571799E+04  0.15294330000E+03 0.  0.
<mgrwt>
<rscale>  0 0.74182325E+03</rscale>
<asrwt>0</asrwt>
<pdfrwt beam="1">  1        2 0.58039387E-01 0.83054836E+03</pdfrwt>
<pdfrwt beam="2">  1       -2 0.30279171E+00 0.83054836E+03</pdfrwt>
<totfact> 0.26724525E+00</totfact>
</mgrwt>
</event>
<event>
 4    1  0.8287789E-007  0.6748426E+03  0.7818608E-02  0.1012406E+00
         -2   -1    0    0    0  501 -0.00000000000E+00  0.00000000000E+00  0.10099164935E+04  0.10099164935E+04  0.25500000000E-02 0.  1.
          2   -1    0    0  501    0  0.00000000000E+00 -0.00000000000E+00 -0.27242515418E+03  0.27242515419E+03  0.25500000000E-02 0. -1.
    8880023    1    1    2    0    0  0.27273888770E+02  0.14442472818E+03  0.19899019373E+03  0.70356923652E+03  0.65864270000E+03 0.  0.
    8880022    1    1    2    0    0 -0.27273888770E+02 -0.14442472818E+03  0.53850114555E+03  0.57877241113E+03  0.15294330000E+03 0.  0.
<mgrwt>
<rscale>  0 0.50529643E+03</rscale>
<asrwt>0</asrwt>
<pdfrwt beam="1">  1        2 0.41911561E-01 0.67484263E+03</pdfrwt>
<pdfrwt beam="2">  1       -2 0.15537177E+00 0.67484263E+03</pdfrwt>
<totfact> 0.33921077E+01</totfact>
</mgrwt>
</event>
<event>
 4    1  0.8287789E-007  0.8418264E+03  0.7818608E-02  0.9626746E-01
          2   -1    0    0  501    0  0.00000000000E+00  0.00000000000E+00  0.35968913591E+04  0.35968913591E+04  0.25500000000E-02 0. -1.
         -2   -1    0    0    0  501 -0.00000000000E+00 -0.00000000000E+00 -0.17090588086E+03  0.17090588088E+03  0.25500000000E-02 0.  1.
    8880023    1    1    2    0    0  0.42786225106E+03  0.30297742270E+03  0.28598755857E+04  0.29812010997E+04  0.65864270000E+03 0. -1.
    8880022    1    1    2    0    0 -0.42786225106E+03 -0.30297742270E+03  0.56610989256E+03  0.78659614035E+03  0.15294330000E+03 0.  0.
<mgrwt>
<rscale>  0 0.75550964E+03</rscale>
<asrwt>0</asrwt>
<pdfrwt beam="1">  1        2 0.55336790E+00 0.84182637E+03</pdfrwt>
<pdfrwt beam="2">  1       -2 0.26293212E-01 0.84182637E+03</pdfrwt>
<totfact> 0.96704462E+00</totfact>
</mgrwt>
</event>
<event>
 4    1  0.8287789E-007  0.6911407E+03  0.7818608E-02  0.1003615E+00
          2   -1    0    0  501    0  0.00000000000E+00  0.00000000000E+00  0.15653940817E+04  0.15653940817E+04  0.25500000000E-02 0. -1.
         -2   -1    0    0    0  501 -0.00000000000E+00 -0.00000000000E+00 -0.32808604003E+03  0.32808604004E+03  0.25500000000E-02 0.  1.
    8880023    1    1    2    0    0  0.19349644601E+03 -0.80152303035E+02  0.14179551630E+04  0.15774258514E+04  0.65864270000E+03 0. -1.
    8880022    1    1    2    0    0 -0.19349644601E+03  0.80152303035E+02 -0.18064712133E+03  0.31605427028E+03  0.15294330000E+03 0.  0.
<mgrwt>
<rscale>  0 0.54093113E+03</rscale>
<asrwt>0</asrwt>
<pdfrwt beam="1">  1        2 0.24082986E+00 0.69114070E+03</pdfrwt>
<pdfrwt beam="2">  1       -2 0.50474774E-01 0.69114070E+03</pdfrwt>
<totfact> 0.44585246E+01</totfact>
</mgrwt>
</event>
<event>
 4    1  0.8287789E-007  0.8720027E+03  0.7818608E-02  0.9572559E-01
          2   -1    0    0  501    0  0.00000000000E+00  0.00000000000E+00  0.45161605065E+03  0.45161605066E+03  0.25500000000E-02 0. -1.
         -2   -1    0    0    0  501 -0.00000000000E+00 -0.00000000000E+00 -0.18828641345E+04  0.18828641345E+04  0.25500000000E-02 0.  1.
    8880023    1    1    2    0    0  0.57090639429E+03  0.25386533774E+02 -0.10001522436E+03  0.87771968105E+03  0.65864270000E+03 0.  0.
    8880022    1    1    2    0    0 -0.57090639429E+03 -0.25386533774E+02 -0.13312328595E+04  0.14567605041E+04  0.15294330000E+03 0. -1.
<mgrwt>
<rscale>  0 0.79139314E+03</rscale>
<asrwt>0</asrwt>
<pdfrwt beam="1">  1        2 0.69479393E-01 0.87200275E+03</pdfrwt>
<pdfrwt beam="2">  1       -2 0.28967140E+00 0.87200275E+03</pdfrwt>
<totfact> 0.26003033E+00</totfact>
</mgrwt>
</event>
<event>
 4    1  0.8287789E-007  0.8164959E+03  0.7818608E-02  0.9676202E-01
         -2   -1    0    0    0  501 -0.00000000000E+00  0.00000000000E+00  0.27299719742E+03  0.27299719743E+03  0.25500000000E-02 0.  1.
          2   -1    0    0  501    0  0.00000000000E+00 -0.00000000000E+00 -0.24114828811E+04  0.24114828811E+04  0.25500000000E-02 0. -1.
    8880023    1    1    2    0    0  0.48007577807E+03  0.48812066633E+02 -0.19991282474E+04  0.21594395861E+04  0.65864270000E+03 0.  1.
    8880022    1    1    2    0    0 -0.48007577807E+03 -0.48812066633E+02 -0.13935743627E+03  0.52504049234E+03  0.15294330000E+03 0.  0.
<mgrwt>
<rscale>  0 0.72451581E+03</rscale>
<asrwt>0</asrwt>
<pdfrwt beam="1">  1        2 0.37099735E+00 0.81649591E+03</pdfrwt>
<pdfrwt beam="2">  1       -2 0.41999571E-01 0.81649591E+03</pdfrwt>
<totfact> 0.21738344E+01</totfact>
</mgrwt>
</event>
<event>
 4    1  0.8287789E-007  0.7225702E+03  0.7818608E-02  0.9913983E-01
          2   -1    0    0  501    0  0.00000000000E+00  0.00000000000E+00  0.62402267160E+03  0.62402267160E+03  0.25500000000E-02 0. -1.
         -2   -1    0    0    0  501 -0.00000000000E+00 -0.00000000000E+00 -0.13866077637E+04  0.13866077637E+04  0.25500000000E-02 0.  1.
    8880023    1    1    2    0    0  0.23362063018E+03  0.18362702423E+03  0.38264502488E+03  0.81763372252E+03  0.65864270000E+03 0. -1.
    8880022    1    1    2    0    0 -0.23362063018E+03 -0.18362702423E+03 -0.11452301169E+04  0.11929967128E+04  0.15294330000E+03 0.  0.
<mgrwt>
<rscale>  0 0.59588355E+03</rscale>
<asrwt>0</asrwt>
<pdfrwt beam="1">  1        2 0.96003488E-01 0.72257020E+03</pdfrwt>
<pdfrwt beam="2">  1       -2 0.21332427E+00 0.72257020E+03</pdfrwt>
<totfact> 0.52890453E+00</totfact>
</mgrwt>
</event>
<event>
 4    1  0.8287789E-007  0.7150279E+03  0.7818608E-02  0.9939783E-01
          2   -1    0    0  501    0  0.00000000000E+00  0.00000000000E+00  0.34481726861E+03  0.34481726862E+03  0.25500000000E-02 0. -1.
         -2   -1    0    0    0  501 -0.00000000000E+00 -0.00000000000E+00 -0.79928133735E+03  0.79928133735E+03  0.25500000000E-02 0.  1.
    8880023    1    1    2    0    0  0.26033040616E+03  0.98401153626E+02 -0.40774692086E+03  0.82311752814E+03  0.65864270000E+03 0.  1.
    8880022    1    1    2    0    0 -0.26033040616E+03 -0.98401153626E+02 -0.46717147880E+02  0.32098107783E+03  0.15294330000E+03 0. -1.
<mgrwt>
<rscale>  0 0.58371355E+03</rscale>
<asrwt>0</asrwt>
<pdfrwt beam="1">  1        2 0.53048811E-01 0.71502791E+03</pdfrwt>
<pdfrwt beam="2">  1       -2 0.12296636E+00 0.71502791E+03</pdfrwt>
<totfact> 0.47564817E+01</totfact>
</mgrwt>
</event>
<event>
 4    1  0.8287789E-007  0.8546263E+03  0.7818608E-02  0.9603195E-01
          2   -1    0    0  501    0  0.00000000000E+00  0.00000000000E+00  0.21737631675E+04  0.21737631675E+04  0.25500000000E-02 0. -1.
         -2   -1    0    0    0  501 -0.00000000000E+00 -0.00000000000E+00 -0.60246080995E+03  0.60246080995E+03  0.25500000000E-02 0.  1.
    8880023    1    1    2    0    0  0.26239111616E+03 -0.47720733762E+03  0.19270096552E+04  0.21080209578E+04  0.65864270000E+03 0. -1.
    8880022    1    1    2    0    0 -0.26239111616E+03  0.47720733762E+03 -0.35570729764E+03  0.66820301969E+03  0.15294330000E+03 0.  0.
<mgrwt>
<rscale>  0 0.77085101E+03</rscale>
<asrwt>0</asrwt>
<pdfrwt beam="1">  1        2 0.33442510E+00 0.85462632E+03</pdfrwt>
<pdfrwt beam="2">  1       -2 0.92686278E-01 0.85462632E+03</pdfrwt>
<totfact> 0.53974322E+00</totfact>
</mgrwt>
</event>
<event>
 4    1  0.8287789E-007  0.9243454E+03  0.7818608E-02  0.9488028E-01
          2   -1    0    0  501    0  0.00000000000E+00  0.00000000000E+00  0.13576358210E+04  0.13576358210E+04  0.25500000000E-02 0. -1.
         -2   -1    0    0    0  501 -0.00000000000E+00 -0.00000000000E+00 -0.63422714134E+03  0.63422714134E+03  0.25500000000E-02 0.  1.
    8880023    1    1    2    0    0 -0.45112574284E+03  0.46592896940E+03  0.91285784796E+03  0.12991242809E+04  0.65864270000E+03 0.  0.
    8880022    1    1    2    0    0  0.45112574284E+03 -0.46592896940E+03 -0.18944916830E+03  0.69273868144E+03  0.15294330000E+03 0.  0.
<mgrwt>
<rscale>  0 0.85172244E+03</rscale>
<asrwt>0</asrwt>
<pdfrwt beam="1">  1        2 0.20886705E+00 0.92434542E+03</pdfrwt>
<pdfrwt beam="2">  1       -2 0.97573408E-01 0.92434542E+03</pdfrwt>
<totfact> 0.13426764E+01</totfact>
</mgrwt>
</event>
<event>
 4    1  0.8287789E-007  0.7442001E+03  0.7818608E-02  0.9847877E-01
          2   -1    0    0  501    0  0.00000000000E+00  0.00000000000E+00  0.13674457592E+04  0.13674457592E+04  0.25500000000E-02 0. -1.
         -2   -1    0    0    0  501 -0.00000000000E+00 -0.00000000000E+00 -0.68750705378E+03  0.68750705379E+03  0.25500000000E-02 0.  1.
    8880023    1    1    2    0    0  0.33167258387E+03  0.10008420365E+03  0.11997507932E+04  0.14118200037E+04  0.65864270000E+03 0. -1.
    8880022    1    1    2    0    0 -0.33167258387E+03 -0.10008420365E+03 -0.51981208782E+03  0.64313280928E+03  0.15294330000E+03 0.  0.
<mgrwt>
<rscale>  0 0.62855268E+03</rscale>
<asrwt>0</asrwt>
<pdfrwt beam="1">  1        2 0.21037627E+00 0.74420008E+03</pdfrwt>
<pdfrwt beam="2">  1       -2 0.10577032E+00 0.74420008E+03</pdfrwt>
<totfact> 0.11163134E+01</totfact>
</mgrwt>
</event>
<event>
 4    1  0.8287789E-007  0.6605987E+03  0.7818608E-02  0.1023551E+00
          2   -1    0    0  501    0  0.00000000000E+00  0.00000000000E+00  0.10692216524E+04  0.10692216524E+04  0.25500000000E-02 0. -1.
         -2   -1    0    0    0  501 -0.00000000000E+00 -0.00000000000E+00 -0.18008109984E+03  0.18008109986E+03  0.25500000000E-02 0.  1.
    8880023    1    1    2    0    0 -0.50767867097E+02  0.17587671327E+01  0.86177171803E+03  0.10858366221E+04  0.65864270000E+03 0. -1.
    8880022    1    1    2    0    0  0.50767867097E+02 -0.17587671327E+01  0.27368834504E+02  0.16346613016E+03  0.15294330000E+03 0.  0.
<mgrwt>
<rscale>  0 0.46426584E+03</rscale>
<asrwt>0</asrwt>
<pdfrwt beam="1">  1        2 0.16449564E+00 0.66059873E+03</pdfrwt>
<pdfrwt beam="2">  1       -2 0.27704784E-01 0.66059873E+03</pdfrwt>
<totfact> 0.27431295E+02</totfact>
</mgrwt>
</event>
<event>
 4    1  0.8287789E-007  0.7326861E+03  0.7818608E-02  0.9881788E-01
          2   -1    0    0  501    0  0.00000000000E+00  0.00000000000E+00  0.32347955058E+04  0.32347955058E+04  0.25500000000E-02 0. -1.
         -2   -1    0    0    0  501 -0.00000000000E+00 -0.00000000000E+00 -0.24985700681E+03  0.24985700682E+03  0.25500000000E-02 0.  1.
    8880023    1    1    2    0    0 -0.27286040113E+03  0.16901440180E+03  0.30380615221E+04  0.31251634653E+04  0.65864270000E+03 0. -1.
    8880022    1    1    2    0    0  0.27286040113E+03 -0.16901440180E+03 -0.53123023133E+02  0.35948904729E+03  0.15294330000E+03 0.  0.
<mgrwt>
<rscale>  0 0.61152085E+03</rscale>
<asrwt>0</asrwt>
<pdfrwt beam="1">  1        2 0.49766082E+00 0.73268607E+03</pdfrwt>
<pdfrwt beam="2">  1       -2 0.38439542E-01 0.73268607E+03</pdfrwt>
<totfact> 0.84559677E+00</totfact>
</mgrwt>
</event>
<event>
 4    1  0.8287789E-007  0.1086098E+04  0.7818608E-02  0.9276695E-01
         -2   -1    0    0    0  501 -0.00000000000E+00  0.00000000000E+00  0.20155454177E+04  0.20155454177E+04  0.25500000000E-02 0.  1.
          2   -1    0    0  501    0  0.00000000000E+00 -0.00000000000E+00 -0.91242351276E+03  0.91242351277E+03  0.25500000000E-02 0. -1.
    8880023    1    1    2    0    0  0.84287154111E+03  0.18805802510E+03 -0.42480748438E+03  0.11662203311E+04  0.65864270000E+03 0. -1.
    8880022    1    1    2    0    0 -0.84287154111E+03 -0.18805802510E+03  0.15279293893E+04  0.17617485994E+04  0.15294330000E+03 0.  0.
<mgrwt>
<rscale>  0 0.10295701E+04</rscale>
<asrwt>0</asrwt>
<pdfrwt beam="1">  1        2 0.14037285E+00 0.10860978E+04</pdfrwt>
<pdfrwt beam="2">  1       -2 0.31008391E+00 0.10860978E+04</pdfrwt>
<totfact> 0.78788512E-01</totfact>
</mgrwt>
</event>
<event>
 4    1  0.8287789E-007  0.7188258E+03  0.7818608E-02  0.9926579E-01
          2   -1    0    0  501    0  0.00000000000E+00  0.00000000000E+00  0.30509170021E+04  0.30509170021E+04  0.25500000000E-02 0. -1.
         -2   -1    0    0    0  501 -0.00000000000E+00 -0.00000000000E+00 -0.16047056384E+03  0.16047056386E+03  0.25500000000E-02 0.  1.
    8880023    1    1    2    0    0 -0.24926799042E+03  0.14410365719E+03  0.27733180663E+04  0.28649613782E+04  0.65864270000E+03 0.  0.
    8880022    1    1    2    0    0  0.24926799042E+03 -0.14410365719E+03  0.11712837193E+03  0.34642618779E+03  0.15294330000E+03 0.  0.
<mgrwt>
<rscale>  0 0.58990267E+03</rscale>
<asrwt>0</asrwt>
<pdfrwt beam="1">  1        2 0.46937184E+00 0.71882585E+03</pdfrwt>
<pdfrwt beam="2">  1       -2 0.24687779E-01 0.71882585E+03</pdfrwt>
<totfact> 0.25256919E+01</totfact>
</mgrwt>
</event>
<event>
 4    1  0.8287789E-007  0.6893256E+03  0.7818608E-02  0.1004475E+00
          2   -1    0    0  501    0  0.00000000000E+00  0.00000000000E+00  0.27713140738E+04  0.27713140738E+04  0.25500000000E-02 0. -1.
         -2   -1    0    0    0  501 -0.00000000000E+00 -0.00000000000E+00 -0.33064289592E+03  0.33064289593E+03  0.25500000000E-02 0.  1.
    8880023    1    1    2    0    0  0.15622925722E+03 -0.13019984017E+03  0.26711324162E+04  0.27586442631E+04  0.65864270000E+03 0.  0.
    8880022    1    1    2    0    0 -0.15622925722E+03  0.13019984017E+03 -0.23046123828E+03  0.34331270666E+03  0.15294330000E+03 0.  0.
<mgrwt>
<rscale>  0 0.53730924E+03</rscale>
<asrwt>0</asrwt>
<pdfrwt beam="1">  1        2 0.42635600E+00 0.68932560E+03</pdfrwt>
<pdfrwt beam="2">  1       -2 0.50868139E-01 0.68932560E+03</pdfrwt>
<totfact> 0.93936488E+00</totfact>
</mgrwt>
</event>
<event>
 4    1  0.8287789E-007  0.8532903E+03  0.7818608E-02  0.9605612E-01
          2   -1    0    0  501    0  0.00000000000E+00  0.00000000000E+00  0.23042783213E+04  0.23042783213E+04  0.25500000000E-02 0. -1.
         -2   -1    0    0    0  501 -0.00000000000E+00 -0.00000000000E+00 -0.70570011131E+03  0.70570011131E+03  0.25500000000E-02 0.  1.
    8880023    1    1    2    0    0  0.54221434012E+03  0.17257145903E+02  0.20929773781E+04  0.22602342160E+04  0.65864270000E+03 0. -1.
    8880022    1    1    2    0    0 -0.54221434012E+03 -0.17257145903E+02 -0.49439916818E+03  0.74974421654E+03  0.15294330000E+03 0.  0.
<mgrwt>
<rscale>  0 0.76925859E+03</rscale>
<asrwt>0</asrwt>
<pdfrwt beam="1">  1        2 0.35450436E+00 0.85329034E+03</pdfrwt>
<pdfrwt beam="2">  1       -2 0.10856925E+00 0.85329034E+03</pdfrwt>
<totfact> 0.31377153E+00</totfact>
</mgrwt>
</event>
<event>
 4    1  0.8287789E-007  0.7857086E+03  0.7818608E-02  0.9742594E-01
         -2   -1    0    0    0  501 -0.00000000000E+00  0.00000000000E+00  0.85911469855E+03  0.85911469856E+03  0.25500000000E-02 0.  1.
          2   -1    0    0  501    0  0.00000000000E+00 -0.00000000000E+00 -0.48354288266E+03  0.48354288267E+03  0.25500000000E-02 0. -1.
    8880023    1    1    2    0    0 -0.59109099694E+02 -0.42430398447E+03  0.57920212896E+02  0.78784053858E+03  0.65864270000E+03 0. -1.
    8880022    1    1    2    0    0  0.59109099694E+02  0.42430398447E+03  0.31765160299E+03  0.55481704264E+03  0.15294330000E+03 0.  1.
<mgrwt>
<rscale>  0 0.68536398E+03</rscale>
<asrwt>0</asrwt>
<pdfrwt beam="1">  1        2 0.74391214E-01 0.78570857E+03</pdfrwt>
<pdfrwt beam="2">  1       -2 0.13217149E+00 0.78570857E+03</pdfrwt>
<totfact> 0.26918055E+01</totfact>
</mgrwt>
</event>
<event>
 4    1  0.8287789E-007  0.7567729E+03  0.7818608E-02  0.9813535E-01
         -2   -1    0    0    0  501 -0.00000000000E+00  0.00000000000E+00  0.52681967010E+03  0.52681967011E+03  0.25500000000E-02 0.  1.
          2   -1    0    0  501    0  0.00000000000E+00 -0.00000000000E+00 -0.15483010361E+04  0.15483010361E+04  0.25500000000E-02 0. -1.
    8880023    1    1    2    0    0  0.28624668888E+03 -0.23865856982E+03 -0.13550790906E+04  0.15520775200E+04  0.65864270000E+03 0. -1.
    8880022    1    1    2    0    0 -0.28624668888E+03  0.23865856982E+03  0.33359772460E+03  0.52304318628E+03  0.15294330000E+03 0.  0.
<mgrwt>
<rscale>  0 0.64641224E+03</rscale>
<asrwt>0</asrwt>
<pdfrwt beam="1">  1        2 0.23820016E+00 0.75677294E+03</pdfrwt>
<pdfrwt beam="2">  1       -2 0.81049181E-01 0.75677294E+03</pdfrwt>
<totfact> 0.16390622E+01</totfact>
</mgrwt>
</event>
<event>
 4    1  0.8287789E-007  0.1223860E+04  0.7818608E-02  0.9134270E-01
         -2   -1    0    0    0  501 -0.00000000000E+00  0.00000000000E+00  0.40634413468E+03  0.40634413469E+03  0.25500000000E-02 0.  1.
          2   -1    0    0  501    0  0.00000000000E+00 -0.00000000000E+00 -0.53442145019E+04  0.53442145019E+04  0.25500000000E-02 0. -1.
    8880023    1    1    2    0    0  0.99465123077E+03  0.27330044968E+03 -0.44198928927E+04  0.45862062313E+04  0.65864270000E+03 0.  0.
    8880022    1    1    2    0    0 -0.99465123077E+03 -0.27330044968E+03 -0.51797747457E+03  0.11643524054E+04  0.15294330000E+03 0.  0.
<mgrwt>
<rscale>  0 0.11758404E+04</rscale>
<asrwt>0</asrwt>
<pdfrwt beam="1">  1        2 0.82218680E+00 0.12238605E+04</pdfrwt>
<pdfrwt beam="2">  1       -2 0.62514486E-01 0.12238605E+04</pdfrwt>
<totfact> 0.28272328E-02</totfact>
</mgrwt>
</event>
<event>
 4    1  0.8287789E-007  0.7736775E+03  0.7818608E-02  0.9770904E-01
         -2   -1    0    0    0  501 -0.00000000000E+00  0.00000000000E+00  0.60944215217E+03  0.60944215218E+03  0.25500000000E-02 0.  1.
          2   -1    0    0  501    0  0.00000000000E+00 -0.00000000000E+00 -0.91258029501E+03  0.91258029502E+03  0.25500000000E-02 0. -1.
    8880023    1    1    2    0    0 -0.38306734498E+03 -0.13426121457E+03 -0.61454051581E+03  0.98804702133E+03  0.65864270000E+03 0.  0.
    8880022    1    1    2    0    0  0.38306734498E+03  0.13426121457E+03  0.31140237297E+03  0.53397542587E+03  0.15294330000E+03 0.  0.
<mgrwt>
<rscale>  0 0.66947660E+03</rscale>
<asrwt>0</asrwt>
<pdfrwt beam="1">  1        2 0.14039697E+00 0.77367750E+03</pdfrwt>
<pdfrwt beam="2">  1       -2 0.93760331E-01 0.77367750E+03</pdfrwt>
<totfact> 0.27993475E+01</totfact>
</mgrwt>
</event>
<event>
 4    1  0.8287789E-007  0.1153999E+04  0.7818608E-02  0.9203190E-01
         -2   -1    0    0    0  501 -0.00000000000E+00  0.00000000000E+00  0.13857254072E+04  0.13857254072E+04  0.25500000000E-02 0.  1.
          2   -1    0    0  501    0  0.00000000000E+00 -0.00000000000E+00 -0.91705806763E+03  0.91705806763E+03  0.25500000000E-02 0. -1.
    8880023    1    1    2    0    0  0.63257020734E+03  0.70551925016E+03 -0.14570020703E+03  0.11631600217E+04  0.65864270000E+03 0.  0.
    8880022    1    1    2    0    0 -0.63257020734E+03 -0.70551925016E+03  0.61436754663E+03  0.11396234531E+04  0.15294330000E+03 0.  0.
<mgrwt>
<rscale>  0 0.11020562E+04</rscale>
<asrwt>0</asrwt>
<pdfrwt beam="1">  1        2 0.14108586E+00 0.11539986E+04</pdfrwt>
<pdfrwt beam="2">  1       -2 0.21318852E+00 0.11539986E+04</pdfrwt>
<totfact> 0.30497948E+00</totfact>
</mgrwt>
</event>
<event>
 4    1  0.8287789E-007  0.7940041E+03  0.7818608E-02  0.9723913E-01
         -2   -1    0    0    0  501 -0.00000000000E+00  0.00000000000E+00  0.38345687982E+03  0.38345687983E+03  0.25500000000E-02 0.  1.
          2   -1    0    0  501    0  0.00000000000E+00 -0.00000000000E+00 -0.22048544767E+04  0.22048544767E+04  0.25500000000E-02 0. -1.
    8880023    1    1    2    0    0 -0.31719522572E+03 -0.30987016293E+03 -0.19470352510E+04  0.21027098715E+04  0.65864270000E+03 0. -1.
    8880022    1    1    2    0    0  0.31719522572E+03  0.30987016293E+03  0.12563765409E+03  0.48560148500E+03  0.15294330000E+03 0.  0.
<mgrwt>
<rscale>  0 0.69610671E+03</rscale>
<asrwt>0</asrwt>
<pdfrwt beam="1">  1        2 0.33920837E+00 0.79400412E+03</pdfrwt>
<pdfrwt beam="2">  1       -2 0.58993367E-01 0.79400412E+03</pdfrwt>
<totfact> 0.14229715E+01</totfact>
</mgrwt>
</event>
<event>
 4    1  0.8287789E-007  0.9191923E+03  0.7818608E-02  0.9495899E-01
          2   -1    0    0  501    0  0.00000000000E+00  0.00000000000E+00  0.19886462982E+04  0.19886462982E+04  0.25500000000E-02 0. -1.
         -2   -1    0    0    0  501 -0.00000000000E+00 -0.00000000000E+00 -0.37597172153E+03  0.37597172154E+03  0.25500000000E-02 0.  1.
    8880023    1    1    2    0    0 -0.41197361802E+03  0.49130635831E+03  0.43930468278E+03  0.10187752501E+04  0.65864270000E+03 0.  1.
    8880022    1    1    2    0    0  0.41197361802E+03 -0.49130635831E+03  0.11733698939E+04  0.13458427697E+04  0.15294330000E+03 0.  0.
<mgrwt>
<rscale>  0 0.84586873E+03</rscale>
<asrwt>0</asrwt>
<pdfrwt beam="1">  1        2 0.30594558E+00 0.91919226E+03</pdfrwt>
<pdfrwt beam="2">  1       -2 0.57841803E-01 0.91919226E+03</pdfrwt>
<totfact> 0.19201904E+01</totfact>
</mgrwt>
</event>
<event>
 4    1  0.8287789E-007  0.7242964E+03  0.7818608E-02  0.9908308E-01
          2   -1    0    0  501    0  0.00000000000E+00  0.00000000000E+00  0.19737624790E+04  0.19737624790E+04  0.25500000000E-02 0. -1.
         -2   -1    0    0    0  501 -0.00000000000E+00 -0.00000000000E+00 -0.38394255916E+03  0.38394255917E+03  0.25500000000E-02 0.  1.
    8880023    1    1    2    0    0  0.29654104198E+03 -0.53465029596E+02  0.18132806492E+04  0.19525859822E+04  0.65864270000E+03 0. -1.
    8880022    1    1    2    0    0 -0.29654104198E+03  0.53465029596E+02 -0.22346072931E+03  0.40511905599E+03  0.15294330000E+03 0.  0.
<mgrwt>
<rscale>  0 0.59860346E+03</rscale>
<asrwt>0</asrwt>
<pdfrwt beam="1">  1        2 0.30365576E+00 0.72429642E+03</pdfrwt>
<pdfrwt beam="2">  1       -2 0.59068086E-01 0.72429642E+03</pdfrwt>
<totfact> 0.19187365E+01</totfact>
</mgrwt>
</event>
<event>
 4    1  0.8287789E-007  0.1203779E+04  0.7818608E-02  0.9153457E-01
          2   -1    0    0  501    0  0.00000000000E+00  0.00000000000E+00  0.24118515617E+04  0.24118515617E+04  0.25500000000E-02 0. -1.
         -2   -1    0    0    0  501 -0.00000000000E+00 -0.00000000000E+00 -0.71606550971E+03  0.71606550971E+03  0.25500000000E-02 0.  1.
    8880023    1    1    2    0    0 -0.96876868451E+03  0.27705975721E+03  0.65841907403E+02  0.12055787972E+04  0.65864270000E+03 0.  1.
    8880022    1    1    2    0    0  0.96876868451E+03 -0.27705975721E+03  0.16299441446E+04  0.19223382743E+04  0.15294330000E+03 0.  0.
<mgrwt>
<rscale>  0 0.11547015E+04</rscale>
<asrwt>0</asrwt>
<pdfrwt beam="1">  1        2 0.37105409E+00 0.12037795E+04</pdfrwt>
<pdfrwt beam="2">  1       -2 0.11016392E+00 0.12037795E+04</pdfrwt>
<totfact> 0.25123760E+00</totfact>
</mgrwt>
</event>
<event>
 4    1  0.8287789E-007  0.9686379E+03  0.7818608E-02  0.9423790E-01
         -2   -1    0    0    0  501 -0.00000000000E+00  0.00000000000E+00  0.30032585191E+03  0.30032585192E+03  0.25500000000E-02 0.  1.
          2   -1    0    0  501    0  0.00000000000E+00 -0.00000000000E+00 -0.24588800566E+04  0.24588800566E+04  0.25500000000E-02 0. -1.
    8880023    1    1    2    0    0 -0.55816790572E+03 -0.43920136959E+03 -0.10040679156E+04  0.13951386452E+04  0.65864270000E+03 0. -1.
    8880022    1    1    2    0    0  0.55816790572E+03  0.43920136959E+03 -0.11544862891E+04  0.13640672633E+04  0.15294330000E+03 0.  0.
<mgrwt>
<rscale>  0 0.90143411E+03</rscale>
<asrwt>0</asrwt>
<pdfrwt beam="1">  1        2 0.37828923E+00 0.96863794E+03</pdfrwt>
<pdfrwt beam="2">  1       -2 0.46203979E-01 0.96863794E+03</pdfrwt>
<totfact> 0.16578771E+01</totfact>
</mgrwt>
</event>
<event>
 4    1  0.8287789E-007  0.8165689E+03  0.7818608E-02  0.9676053E-01
          2   -1    0    0  501    0  0.00000000000E+00  0.00000000000E+00  0.40701045202E+04  0.40701045202E+04  0.25500000000E-02 0. -1.
         -2   -1    0    0    0  501 -0.00000000000E+00 -0.00000000000E+00 -0.34571378527E+03  0.34571378528E+03  0.25500000000E-02 0.  1.
    8880023    1    1    2    0    0  0.46487957727E+03 -0.12985207616E+03  0.38150322910E+04  0.39014428319E+04  0.65864270000E+03 0. -1.
    8880022    1    1    2    0    0 -0.46487957727E+03  0.12985207616E+03 -0.90641556120E+02  0.51437547352E+03  0.15294330000E+03 0.  0.
<mgrwt>
<rscale>  0 0.72460652E+03</rscale>
<asrwt>0</asrwt>
<pdfrwt beam="1">  1        2 0.62616994E+00 0.81656891E+03</pdfrwt>
<pdfrwt beam="2">  1       -2 0.53186735E-01 0.81656891E+03</pdfrwt>
<totfact> 0.10969184E+00</totfact>
</mgrwt>
</event>
<event>
 4    1  0.8287789E-007  0.8576424E+03  0.7818608E-02  0.9597771E-01
         -2   -1    0    0    0  501 -0.00000000000E+00  0.00000000000E+00  0.95221412327E+03  0.95221412327E+03  0.25500000000E-02 0.  1.
          2   -1    0    0  501    0  0.00000000000E+00 -0.00000000000E+00 -0.86865694237E+03  0.86865694237E+03  0.25500000000E-02 0. -1.
    8880023    1    1    2    0    0 -0.54784782335E+03  0.40037488016E+02 -0.50998340775E+03  0.99781437174E+03  0.65864270000E+03 0. -1.
    8880022    1    1    2    0    0  0.54784782335E+03 -0.40037488016E+02  0.59354058865E+03  0.82305669391E+03  0.15294330000E+03 0.  0.
<mgrwt>
<rscale>  0 0.77443883E+03</rscale>
<asrwt>0</asrwt>
<pdfrwt beam="1">  1        2 0.13363953E+00 0.85764238E+03</pdfrwt>
<pdfrwt beam="2">  1       -2 0.14649448E+00 0.85764238E+03</pdfrwt>
<totfact> 0.98739307E+00</totfact>
</mgrwt>
</event>
<event>
 4    1  0.8287789E-007  0.7079222E+03  0.7818608E-02  0.9965799E-01
          2   -1    0    0  501    0  0.00000000000E+00  0.00000000000E+00  0.18248395675E+04  0.18248395675E+04  0.25500000000E-02 0. -1.
         -2   -1    0    0    0  501 -0.00000000000E+00 -0.00000000000E+00 -0.13951603625E+03  0.13951603628E+03  0.25500000000E-02 0.  1.
    8880023    1    1    2    0    0 -0.19584191488E+03  0.17026313123E+03  0.11805417457E+04  0.13765291893E+04  0.65864270000E+03 0.  0.
    8880022    1    1    2    0    0  0.19584191488E+03 -0.17026313123E+03  0.50478178552E+03  0.58782641442E+03  0.15294330000E+03 0.  1.
<mgrwt>
<rscale>  0 0.57175653E+03</rscale>
<asrwt>0</asrwt>
<pdfrwt beam="1">  1        2 0.28074454E+00 0.70792217E+03</pdfrwt>
<pdfrwt beam="2">  1       -2 0.21464006E-01 0.70792217E+03</pdfrwt>
<totfact> 0.16139921E+02</totfact>
</mgrwt>
</event>
<event>
 4    1  0.8287789E-007  0.1072185E+04  0.7818608E-02  0.9292675E-01
         -2   -1    0    0    0  501 -0.00000000000E+00  0.00000000000E+00  0.45166732455E+03  0.45166732456E+03  0.25500000000E-02 0.  1.
          2   -1    0    0  501    0  0.00000000000E+00 -0.00000000000E+00 -0.26158399635E+04  0.26158399635E+04  0.25500000000E-02 0. -1.
    8880023    1    1    2    0    0 -0.84401469753E+03 -0.58396882514E+02 -0.18759536120E+04  0.21607367184E+04  0.65864270000E+03 0.  0.
    8880022    1    1    2    0    0  0.84401469753E+03  0.58396882514E+02 -0.28821902694E+03  0.90677056968E+03  0.15294330000E+03 0.  0.
<mgrwt>
<rscale>  0 0.10146000E+04</rscale>
<asrwt>0</asrwt>
<pdfrwt beam="1">  1        2 0.40243691E+00 0.10721853E+04</pdfrwt>
<pdfrwt beam="2">  1       -2 0.69487282E-01 0.10721853E+04</pdfrwt>
<totfact> 0.56496485E+00</totfact>
</mgrwt>
</event>
<event>
 4    1  0.8287789E-007  0.6912386E+03  0.7818608E-02  0.1003569E+00
          2   -1    0    0  501    0  0.00000000000E+00  0.00000000000E+00  0.12432649868E+04  0.12432649868E+04  0.25500000000E-02 0. -1.
         -2   -1    0    0    0  501 -0.00000000000E+00 -0.00000000000E+00 -0.26084081983E+03  0.26084081984E+03  0.25500000000E-02 0.  1.
    8880023    1    1    2    0    0  0.17312093969E+03  0.11844742990E+03  0.10297368277E+04  0.12402293312E+04  0.65864270000E+03 0. -1.
    8880022    1    1    2    0    0 -0.17312093969E+03 -0.11844742990E+03 -0.47312660725E+02  0.26387647544E+03  0.15294330000E+03 0.  0.
<mgrwt>
<rscale>  0 0.54112462E+03</rscale>
<asrwt>0</asrwt>
<pdfrwt beam="1">  1        2 0.19127154E+00 0.69123864E+03</pdfrwt>
<pdfrwt beam="2">  1       -2 0.40129356E-01 0.69123864E+03</pdfrwt>
<totfact> 0.10702700E+02</totfact>
</mgrwt>
</event>
<event>
 4    1  0.8287789E-007  0.8511339E+03  0.7818608E-02  0.9609533E-01
          2   -1    0    0  501    0  0.00000000000E+00  0.00000000000E+00  0.22791002739E+03  0.22791002741E+03  0.25500000000E-02 0. -1.
         -2   -1    0    0    0  501 -0.00000000000E+00 -0.00000000000E+00 -0.22963841937E+04  0.22963841937E+04  0.25500000000E-02 0.  1.
    8880023    1    1    2    0    0 -0.49682863341E+03 -0.20923692392E+03 -0.96523149205E+03  0.12868958081E+04  0.65864270000E+03 0.  0.
    8880022    1    1    2    0    0  0.49682863341E+03  0.20923692392E+03 -0.11032426743E+04  0.12373984131E+04  0.15294330000E+03 0.  0.
<mgrwt>
<rscale>  0 0.76668407E+03</rscale>
<asrwt>0</asrwt>
<pdfrwt beam="1">  1        2 0.35063083E-01 0.85113394E+03</pdfrwt>
<pdfrwt beam="2">  1       -2 0.35328986E+00 0.85113394E+03</pdfrwt>
<totfact> 0.22963199E+00</totfact>
</mgrwt>
</event>
<event>
 4    1  0.8287789E-007  0.7591668E+03  0.7818608E-02  0.9807269E-01
          2   -1    0    0  501    0  0.00000000000E+00  0.00000000000E+00  0.17489421305E+04  0.17489421305E+04  0.25500000000E-02 0. -1.
         -2   -1    0    0    0  501 -0.00000000000E+00 -0.00000000000E+00 -0.26679276898E+03  0.26679276899E+03  0.25500000000E-02 0.  1.
    8880023    1    1    2    0    0  0.67763303137E+02  0.37139209894E+03  0.14109641455E+04  0.16022340599E+04  0.65864270000E+03 0.  0.
    8880022    1    1    2    0    0 -0.67763303137E+02 -0.37139209894E+03  0.71185216060E+02  0.41350083967E+03  0.15294330000E+03 0.  0.
<mgrwt>
<rscale>  0 0.64973879E+03</rscale>
<asrwt>0</asrwt>
<pdfrwt beam="1">  1        2 0.26906802E+00 0.75916676E+03</pdfrwt>
<pdfrwt beam="2">  1       -2 0.41045041E-01 0.75916676E+03</pdfrwt>
<totfact> 0.53038441E+01</totfact>
</mgrwt>
</event>
<event>
 4    1  0.8287789E-007  0.8359014E+03  0.7818608E-02  0.9637957E-01
         -2   -1    0    0    0  501 -0.00000000000E+00  0.00000000000E+00  0.73091138508E+03  0.73091138509E+03  0.25500000000E-02 0.  1.
          2   -1    0    0  501    0  0.00000000000E+00 -0.00000000000E+00 -0.17551077347E+04  0.17551077347E+04  0.25500000000E-02 0. -1.
    8880023    1    1    2    0    0 -0.31898510515E+03  0.40394239156E+03 -0.15331319141E+04  0.17462029164E+04  0.65864270000E+03 0. -1.
    8880022    1    1    2    0    0  0.31898510515E+03 -0.40394239156E+03  0.50893556447E+03  0.73981620339E+03  0.15294330000E+03 0.  0.
<mgrwt>
<rscale>  0 0.74834049E+03</rscale>
<asrwt>0</asrwt>
<pdfrwt beam="1">  1        2 0.27001657E+00 0.83590141E+03</pdfrwt>
<pdfrwt beam="2">  1       -2 0.11244791E+00 0.83590141E+03</pdfrwt>
<totfact> 0.57911127E+00</totfact>
</mgrwt>
</event>
<event>
 4    1  0.8287789E-007  0.7245140E+03  0.7818608E-02  0.9907598E-01
          2   -1    0    0  501    0  0.00000000000E+00  0.00000000000E+00  0.33747491034E+04  0.33747491034E+04  0.25500000000E-02 0. -1.
         -2   -1    0    0    0  501 -0.00000000000E+00 -0.00000000000E+00 -0.26619164364E+03  0.26619164365E+03  0.25500000000E-02 0.  1.
    8880023    1    1    2    0    0 -0.29786617792E+03  0.48846896513E+02  0.32075649343E+04  0.32883724384E+04  0.65864270000E+03 0. -1.
    8880022    1    1    2    0    0  0.29786617792E+03 -0.48846896513E+02 -0.99007474579E+02  0.35256830868E+03  0.15294330000E+03 0.  0.
<mgrwt>
<rscale>  0 0.59894463E+03</rscale>
<asrwt>0</asrwt>
<pdfrwt beam="1">  1        2 0.51919219E+00 0.72451397E+03</pdfrwt>
<pdfrwt beam="2">  1       -2 0.40952559E-01 0.72451397E+03</pdfrwt>
<totfact> 0.60706953E+00</totfact>
</mgrwt>
</event>
<event>
 4    1  0.8287789E-007  0.7652729E+03  0.7818608E-02  0.9791643E-01
          2   -1    0    0  501    0  0.00000000000E+00  0.00000000000E+00  0.10091935362E+04  0.10091935362E+04  0.25500000000E-02 0. -1.
         -2   -1    0    0    0  501 -0.00000000000E+00 -0.00000000000E+00 -0.45329839169E+03  0.45329839170E+03  0.25500000000E-02 0.  1.
    8880023    1    1    2    0    0  0.37738839525E+03 -0.97007252086E+02  0.68225435984E+03  0.10252383262E+04  0.65864270000E+03 0.  0.
    8880022    1    1    2    0    0 -0.37738839525E+03  0.97007252086E+02 -0.12635921535E+03  0.43725360164E+03  0.15294330000E+03 0.  0.
<mgrwt>
<rscale>  0 0.65812967E+03</rscale>
<asrwt>0</asrwt>
<pdfrwt beam="1">  1        2 0.15526054E+00 0.76527290E+03</pdfrwt>
<pdfrwt beam="2">  1       -2 0.69738215E-01 0.76527290E+03</pdfrwt>
<totfact> 0.47237272E+01</totfact>
</mgrwt>
</event>
<event>
 4    1  0.8287789E-007  0.7081436E+03  0.7818608E-02  0.9964960E-01
         -2   -1    0    0    0  501 -0.00000000000E+00  0.00000000000E+00  0.54911507209E+03  0.54911507209E+03  0.25500000000E-02 0.  1.
          2   -1    0    0  501    0  0.00000000000E+00 -0.00000000000E+00 -0.79814127213E+03  0.79814127213E+03  0.25500000000E-02 0. -1.
    8880023    1    1    2    0    0 -0.12460435579E+03  0.22832201093E+03 -0.56828054678E+03  0.90797035870E+03  0.65864270000E+03 0. -1.
    8880022    1    1    2    0    0  0.12460435579E+03 -0.22832201093E+03  0.31925434674E+03  0.43928598553E+03  0.15294330000E+03 0.  0.
<mgrwt>
<rscale>  0 0.57213737E+03</rscale>
<asrwt>0</asrwt>
<pdfrwt beam="1">  1        2 0.12279097E+00 0.70814362E+03</pdfrwt>
<pdfrwt beam="2">  1       -2 0.84479241E-01 0.70814362E+03</pdfrwt>
<totfact> 0.42954730E+01</totfact>
</mgrwt>
</event>
<event>
 4    1  0.8287789E-007  0.9661633E+03  0.7818608E-02  0.9427230E-01
         -2   -1    0    0    0  501 -0.00000000000E+00  0.00000000000E+00  0.32700322135E+03  0.32700322136E+03  0.25500000000E-02 0.  1.
          2   -1    0    0  501    0  0.00000000000E+00 -0.00000000000E+00 -0.31672705192E+04  0.31672705192E+04  0.25500000000E-02 0. -1.
    8880023    1    1    2    0    0 -0.68588452395E+03 -0.17094937351E+03 -0.25283325172E+04  0.27066467801E+04  0.65864270000E+03 0. -1.
    8880022    1    1    2    0    0  0.68588452395E+03  0.17094937351E+03 -0.31193478072E+03  0.78762696052E+03  0.15294330000E+03 0.  0.
<mgrwt>
<rscale>  0 0.89868211E+03</rscale>
<asrwt>0</asrwt>
<pdfrwt beam="1">  1        2 0.48727237E+00 0.96616328E+03</pdfrwt>
<pdfrwt beam="2">  1       -2 0.50308190E-01 0.96616328E+03</pdfrwt>
<totfact> 0.52556798E+00</totfact>
</mgrwt>
</event>
<event>
 4    1  0.8287789E-007  0.6687851E+03  0.7818608E-02  0.1016549E+00
         -2   -1    0    0    0  501 -0.00000000000E+00  0.00000000000E+00  0.21922578412E+03  0.21922578413E+03  0.25500000000E-02 0.  1.
          2   -1    0    0  501    0  0.00000000000E+00 -0.00000000000E+00 -0.10249075617E+04  0.10249075617E+04  0.25500000000E-02 0. -1.
    8880023    1    1    2    0    0 -0.72813101439E+02  0.90341577995E+02 -0.81211666089E+03  0.10520489654E+04  0.65864270000E+03 0.  0.
    8880022    1    1    2    0    0  0.72813101439E+02 -0.90341577995E+02  0.64348833311E+01  0.19208438040E+03  0.15294330000E+03 0.  0.
<mgrwt>
<rscale>  0 0.48952741E+03</rscale>
<asrwt>0</asrwt>
<pdfrwt beam="1">  1        2 0.15767808E+00 0.66878513E+03</pdfrwt>
<pdfrwt beam="2">  1       -2 0.33727044E-01 0.66878513E+03</pdfrwt>
<totfact> 0.20269353E+02</totfact>
</mgrwt>
</event>
<event>
 4    1  0.8287789E-007  0.1077059E+04  0.7818608E-02  0.9287038E-01
         -2   -1    0    0    0  501 -0.00000000000E+00  0.00000000000E+00  0.37737579828E+03  0.37737579828E+03  0.25500000000E-02 0.  1.
          2   -1    0    0  501    0  0.00000000000E+00 -0.00000000000E+00 -0.26610386047E+04  0.26610386047E+04  0.25500000000E-02 0. -1.
    8880023    1    1    2    0    0  0.71976797027E+03  0.45626766609E+03 -0.88762057712E+03  0.13956814140E+04  0.65864270000E+03 0.  0.
    8880022    1    1    2    0    0 -0.71976797027E+03 -0.45626766609E+03 -0.13960422293E+04  0.16427329890E+04  0.15294330000E+03 0.  0.
<mgrwt>
<rscale>  0 0.10198495E+04</rscale>
<asrwt>0</asrwt>
<pdfrwt beam="1">  1        2 0.40939054E+00 0.10770591E+04</pdfrwt>
<pdfrwt beam="2">  1       -2 0.58057817E-01 0.10770591E+04</pdfrwt>
<totfact> 0.78181286E+00</totfact>
</mgrwt>
</event>
<event>
 4    1  0.8287789E-007  0.7515835E+03  0.7818608E-02  0.9827405E-01
         -2   -1    0    0    0  501 -0.00000000000E+00  0.00000000000E+00  0.19369553269E+03  0.19369553271E+03  0.25500000000E-02 0.  1.
          2   -1    0    0  501    0  0.00000000000E+00 -0.00000000000E+00 -0.17109320567E+04  0.17109320568E+04  0.25500000000E-02 0. -1.
    8880023    1    1    2    0    0  0.29590766223E+03  0.20858142437E+03 -0.10913445669E+04  0.13251078164E+04  0.65864270000E+03 0.  1.
    8880022    1    1    2    0    0 -0.29590766223E+03 -0.20858142437E+03 -0.42589195716E+03  0.57951977304E+03  0.15294330000E+03 0. -1.
<mgrwt>
<rscale>  0 0.63912331E+03</rscale>
<asrwt>0</asrwt>
<pdfrwt beam="1">  1        2 0.26322031E+00 0.75158350E+03</pdfrwt>
<pdfrwt beam="2">  1       -2 0.29799314E-01 0.75158350E+03</pdfrwt>
<totfact> 0.10248200E+02</totfact>
</mgrwt>
</event>
<event>
 4    1  0.8287789E-007  0.1014642E+04  0.7818608E-02  0.9362647E-01
         -2   -1    0    0    0  501 -0.00000000000E+00  0.00000000000E+00  0.11268468192E+04  0.11268468192E+04  0.25500000000E-02 0.  1.
          2   -1    0    0  501    0  0.00000000000E+00 -0.00000000000E+00 -0.14607974676E+04  0.14607974676E+04  0.25500000000E-02 0. -1.
    8880023    1    1    2    0    0 -0.42809516174E+03 -0.64220184473E+03  0.74034688348E+03  0.12560304101E+04  0.65864270000E+03 0.  1.
    8880022    1    1    2    0    0  0.42809516174E+03  0.64220184473E+03 -0.10742975319E+04  0.13316138768E+04  0.15294330000E+03 0.  0.
<mgrwt>
<rscale>  0 0.95214498E+03</rscale>
<asrwt>0</asrwt>
<pdfrwt beam="1">  1        2 0.22473807E+00 0.10146422E+04</pdfrwt>
<pdfrwt beam="2">  1       -2 0.17336105E+00 0.10146422E+04</pdfrwt>
<totfact> 0.26703514E+00</totfact>
</mgrwt>
</event>
<event>
 4    1  0.8287789E-007  0.9044744E+03  0.7818608E-02  0.9518887E-01
         -2   -1    0    0    0  501 -0.00000000000E+00  0.00000000000E+00  0.18527679018E+04  0.18527679018E+04  0.25500000000E-02 0.  1.
          2   -1    0    0  501    0  0.00000000000E+00 -0.00000000000E+00 -0.12075501108E+04  0.12075501108E+04  0.25500000000E-02 0. -1.
    8880023    1    1    2    0    0  0.24497385663E+03  0.56943083848E+03  0.16431362574E+04  0.18756253989E+04  0.65864270000E+03 0.  1.
    8880022    1    1    2    0    0 -0.24497385663E+03 -0.56943083848E+03 -0.99791846648E+03  0.11846926137E+04  0.15294330000E+03 0.  0.
<mgrwt>
<rscale>  0 0.82905594E+03</rscale>
<asrwt>0</asrwt>
<pdfrwt beam="1">  1        2 0.18577694E+00 0.90447436E+03</pdfrwt>
<pdfrwt beam="2">  1       -2 0.28504121E+00 0.90447436E+03</pdfrwt>
<totfact> 0.74772947E-01</totfact>
</mgrwt>
</event>
<event>
 4    1  0.8287789E-007  0.9213059E+03  0.7818608E-02  0.9492660E-01
          2   -1    0    0  501    0  0.00000000000E+00  0.00000000000E+00  0.23908798513E+04  0.23908798513E+04  0.25500000000E-02 0. -1.
         -2   -1    0    0    0  501 -0.00000000000E+00 -0.00000000000E+00 -0.65990264526E+03  0.65990264526E+03  0.25500000000E-02 0.  1.
    8880023    1    1    2    0    0  0.43539103207E+03  0.47479355784E+03  0.20996964712E+04  0.22929303851E+04  0.65864270000E+03 0.  0.
    8880022    1    1    2    0    0 -0.43539103207E+03 -0.47479355784E+03 -0.36871926515E+03  0.75785211149E+03  0.15294330000E+03 0.  0.
<mgrwt>
<rscale>  0 0.84827164E+03</rscale>
<asrwt>0</asrwt>
<pdfrwt beam="1">  1        2 0.36782767E+00 0.92130586E+03</pdfrwt>
<pdfrwt beam="2">  1       -2 0.10152348E+00 0.92130586E+03</pdfrwt>
<totfact> 0.32630855E+00</totfact>
</mgrwt>
</event>
<event>
 4    1  0.8287789E-007  0.8128605E+03  0.7818608E-02  0.9683649E-01
         -2   -1    0    0    0  501 -0.00000000000E+00  0.00000000000E+00  0.48407555936E+03  0.48407555937E+03  0.25500000000E-02 0.  1.
          2   -1    0    0  501    0  0.00000000000E+00 -0.00000000000E+00 -0.11158051727E+04  0.11158051727E+04  0.25500000000E-02 0. -1.
    8880023    1    1    2    0    0 -0.29872623163E+03 -0.37107217053E+03 -0.72703557525E+03  0.10905607966E+04  0.65864270000E+03 0. -1.
    8880022    1    1    2    0    0  0.29872623163E+03  0.37107217053E+03  0.95305961952E+02  0.50931993540E+03  0.15294330000E+03 0.  0.
<mgrwt>
<rscale>  0 0.71998710E+03</rscale>
<asrwt>0</asrwt>
<pdfrwt beam="1">  1        2 0.17166233E+00 0.81286046E+03</pdfrwt>
<pdfrwt beam="2">  1       -2 0.74473163E-01 0.81286046E+03</pdfrwt>
<totfact> 0.34945186E+01</totfact>
</mgrwt>
</event>
<event>
 4    1  0.8287789E-007  0.7024664E+03  0.7818608E-02  0.9987119E-01
         -2   -1    0    0    0  501 -0.00000000000E+00  0.00000000000E+00  0.62948040133E+03  0.62948040133E+03  0.25500000000E-02 0.  1.
          2   -1    0    0  501    0  0.00000000000E+00 -0.00000000000E+00 -0.83112801252E+03  0.83112801252E+03  0.25500000000E-02 0. -1.
    8880023    1    1    2    0    0 -0.18559944689E+03 -0.15875054776E+03 -0.63050620393E+03  0.94392646460E+03  0.65864270000E+03 0. -1.
    8880022    1    1    2    0    0  0.18559944689E+03  0.15875054776E+03  0.42885859275E+03  0.51668194926E+03  0.15294330000E+03 0.  0.
<mgrwt>
<rscale>  0 0.56218656E+03</rscale>
<asrwt>0</asrwt>
<pdfrwt beam="1">  1        2 0.12786585E+00 0.70246644E+03</pdfrwt>
<pdfrwt beam="2">  1       -2 0.96843139E-01 0.70246644E+03</pdfrwt>
<totfact> 0.29708115E+01</totfact>
</mgrwt>
</event>
<event>
 4    1  0.8287789E-007  0.6687221E+03  0.7818608E-02  0.1016596E+00
         -2   -1    0    0    0  501 -0.00000000000E+00  0.00000000000E+00  0.54783672200E+03  0.54783672200E+03  0.25500000000E-02 0.  1.
          2   -1    0    0  501    0  0.00000000000E+00 -0.00000000000E+00 -0.69394251025E+03  0.69394251026E+03  0.25500000000E-02 0. -1.
    8880023    1    1    2    0    0 -0.40522208097E+02 -0.10833761942E+03 -0.50290117808E+03  0.83671912271E+03  0.65864270000E+03 0. -1.
    8880022    1    1    2    0    0  0.40522208097E+02  0.10833761942E+03  0.35679538982E+03  0.40506010955E+03  0.15294330000E+03 0.  0.
<mgrwt>
<rscale>  0 0.48935280E+03</rscale>
<asrwt>0</asrwt>
<pdfrwt beam="1">  1        2 0.10676039E+00 0.66872214E+03</pdfrwt>
<pdfrwt beam="2">  1       -2 0.84282572E-01 0.66872214E+03</pdfrwt>
<totfact> 0.51871981E+01</totfact>
</mgrwt>
</event>
<event>
 4    1  0.8287789E-007  0.6747763E+03  0.7818608E-02  0.1012448E+00
          2   -1    0    0  501    0  0.00000000000E+00  0.00000000000E+00  0.43145218359E+03  0.43145218360E+03  0.25500000000E-02 0. -1.
         -2   -1    0    0    0  501 -0.00000000000E+00 -0.00000000000E+00 -0.81254078168E+03  0.81254078168E+03  0.25500000000E-02 0.  1.
    8880023    1    1    2    0    0  0.18993112201E+02  0.14543765891E+03  0.13316480021E+03  0.68779060856E+03  0.65864270000E+03 0. -1.
    8880022    1    1    2    0    0 -0.18993112201E+02 -0.14543765891E+03 -0.51425339830E+03  0.55620235672E+03  0.15294330000E+03 0.  0.
<mgrwt>
<rscale>  0 0.50513342E+03</rscale>
<asrwt>0</asrwt>
<pdfrwt beam="1">  1        2 0.66377259E-01 0.67477630E+03</pdfrwt>
<pdfrwt beam="2">  1       -2 0.12500627E+00 0.67477630E+03</pdfrwt>
<totfact> 0.35599043E+01</totfact>
</mgrwt>
</event>
<event>
 4    1  0.8287789E-007  0.7874395E+03  0.7818608E-02  0.9738643E-01
          2   -1    0    0  501    0  0.00000000000E+00  0.00000000000E+00  0.15264795431E+04  0.15264795431E+04  0.25500000000E-02 0. -1.
         -2   -1    0    0    0  501 -0.00000000000E+00 -0.00000000000E+00 -0.32015030647E+03  0.32015030648E+03  0.25500000000E-02 0.  1.
    8880023    1    1    2    0    0  0.40853276600E+03 -0.13911039924E+03  0.11377316841E+04  0.13836525269E+04  0.65864270000E+03 0.  0.
    8880022    1    1    2    0    0 -0.40853276600E+03  0.13911039924E+03  0.68597552568E+02  0.46297732267E+03  0.15294330000E+03 0.  0.
<mgrwt>
<rscale>  0 0.68761885E+03</rscale>
<asrwt>0</asrwt>
<pdfrwt beam="1">  1        2 0.23484300E+00 0.78743948E+03</pdfrwt>
<pdfrwt beam="2">  1       -2 0.49253894E-01 0.78743948E+03</pdfrwt>
<totfact> 0.48730781E+01</totfact>
</mgrwt>
</event>
<event>
 4    1  0.8287789E-007  0.1942352E+04  0.7818608E-02  0.8647628E-01
          2   -1    0    0  501    0  0.00000000000E+00  0.00000000000E+00  0.40028193361E+04  0.40028193361E+04  0.25500000000E-02 0. -1.
         -2   -1    0    0    0  501 -0.00000000000E+00 -0.00000000000E+00 -0.16282931883E+04  0.16282931883E+04  0.25500000000E-02 0.  1.
    8880023    1    1    2    0    0  0.17401109904E+04 -0.55761383899E+03 -0.68884356877E+03  0.20608821220E+04  0.65864270000E+03 0.  0.
    8880022    1    1    2    0    0 -0.17401109904E+04  0.55761383899E+03  0.30633697165E+04  0.35702304023E+04  0.15294330000E+03 0.  0.
<mgrwt>
<rscale>  0 0.19145893E+04</rscale>
<asrwt>0</asrwt>
<pdfrwt beam="1">  1        2 0.61581836E+00 0.19423516E+04</pdfrwt>
<pdfrwt beam="2">  1       -2 0.25050664E+00 0.19423516E+04</pdfrwt>
<totfact> 0.19470351E-02</totfact>
</mgrwt>
</event>
<event>
 4    1  0.8287789E-007  0.9552087E+03  0.7818608E-02  0.9442659E-01
          2   -1    0    0  501    0  0.00000000000E+00  0.00000000000E+00  0.30487114415E+04  0.30487114415E+04  0.25500000000E-02 0. -1.
         -2   -1    0    0    0  501 -0.00000000000E+00 -0.00000000000E+00 -0.28351646748E+03  0.28351646749E+03  0.25500000000E-02 0.  1.
    8880023    1    1    2    0    0 -0.42714469273E+03 -0.54420665468E+03  0.22841457350E+04  0.24758322674E+04  0.65864270000E+03 0.  0.
    8880022    1    1    2    0    0  0.42714469273E+03  0.54420665468E+03  0.48104923908E+03  0.85639564161E+03  0.15294330000E+03 0.  0.
<mgrwt>
<rscale>  0 0.88646629E+03</rscale>
<asrwt>0</asrwt>
<pdfrwt beam="1">  1        2 0.46903250E+00 0.95520871E+03</pdfrwt>
<pdfrwt beam="2">  1       -2 0.43617921E-01 0.95520871E+03</pdfrwt>
<totfact> 0.83350415E+00</totfact>
</mgrwt>
</event>
<event>
 4    1  0.8287789E-007  0.7656345E+03  0.7818608E-02  0.9790733E-01
         -2   -1    0    0    0  501 -0.00000000000E+00  0.00000000000E+00  0.37541419515E+03  0.37541419516E+03  0.25500000000E-02 0.  1.
          2   -1    0    0  501    0  0.00000000000E+00 -0.00000000000E+00 -0.12725253344E+04  0.12725253344E+04  0.25500000000E-02 0. -1.
    8880023    1    1    2    0    0 -0.21469335120E+03  0.32602571534E+03 -0.95574619128E+03  0.12246007474E+04  0.65864270000E+03 0.  0.
    8880022    1    1    2    0    0  0.21469335120E+03 -0.32602571534E+03  0.58635052072E+02  0.42333878213E+03  0.15294330000E+03 0.  0.
<mgrwt>
<rscale>  0 0.65862253E+03</rscale>
<asrwt>0</asrwt>
<pdfrwt beam="1">  1        2 0.19577313E+00 0.76563451E+03</pdfrwt>
<pdfrwt beam="2">  1       -2 0.57756031E-01 0.76563451E+03</pdfrwt>
<totfact> 0.48976103E+01</totfact>
</mgrwt>
</event>
<event>
 4    1  0.8287789E-007  0.8496918E+03  0.7818608E-02  0.9612169E-01
          2   -1    0    0  501    0  0.00000000000E+00  0.00000000000E+00  0.70665807157E+03  0.70665807158E+03  0.25500000000E-02 0. -1.
         -2   -1    0    0    0  501 -0.00000000000E+00 -0.00000000000E+00 -0.72705009818E+03  0.72705009818E+03  0.25500000000E-02 0.  1.
    8880023    1    1    2    0    0  0.26869764734E+03 -0.46472312569E+03  0.12006776747E+03  0.85813313902E+03  0.65864270000E+03 0. -1.
    8880022    1    1    2    0    0 -0.26869764734E+03  0.46472312569E+03 -0.14045979408E+03  0.57557503074E+03  0.15294330000E+03 0.  0.
<mgrwt>
<rscale>  0 0.76495940E+03</rscale>
<asrwt>0</asrwt>
<pdfrwt beam="1">  1        2 0.10871663E+00 0.84969184E+03</pdfrwt>
<pdfrwt beam="2">  1       -2 0.11185386E+00 0.84969184E+03</pdfrwt>
<totfact> 0.25674669E+01</totfact>
</mgrwt>
</event>
<event>
 4    1  0.8287789E-007  0.6794600E+03  0.7818608E-02  0.1009631E+00
          2   -1    0    0  501    0  0.00000000000E+00  0.00000000000E+00  0.17942519624E+03  0.17942519625E+03  0.25500000000E-02 0. -1.
         -2   -1    0    0    0  501 -0.00000000000E+00 -0.00000000000E+00 -0.13329388022E+04  0.13329388022E+04  0.25500000000E-02 0.  1.
    8880023    1    1    2    0    0 -0.73152895167E+02 -0.15001449599E+03 -0.57141620502E+03  0.88779636218E+03  0.65864270000E+03 0.  0.
    8880022    1    1    2    0    0  0.73152895167E+02  0.15001449599E+03 -0.58209740094E+03  0.62456763627E+03  0.15294330000E+03 0.  0.
<mgrwt>
<rscale>  0 0.51621646E+03</rscale>
<asrwt>0</asrwt>
<pdfrwt beam="1">  1        2 0.27603877E-01 0.67946001E+03</pdfrwt>
<pdfrwt beam="2">  1       -2 0.20506750E+00 0.67946001E+03</pdfrwt>
<totfact> 0.24660528E+01</totfact>
</mgrwt>
</event>
<event>
 4    1  0.8287789E-007  0.7202715E+03  0.7818608E-02  0.9921668E-01
         -2   -1    0    0    0  501 -0.00000000000E+00  0.00000000000E+00  0.13719675401E+03  0.13719675403E+03  0.25500000000E-02 0.  1.
          2   -1    0    0  501    0  0.00000000000E+00 -0.00000000000E+00 -0.27071603813E+04  0.27071603813E+04  0.25500000000E-02 0. -1.
    8880023    1    1    2    0    0 -0.28154089204E+03 -0.75601519590E+02 -0.23250107342E+04  0.24340225931E+04  0.65864270000E+03 0.  0.
    8880022    1    1    2    0    0  0.28154089204E+03  0.75601519590E+02 -0.24495289313E+03  0.41033454220E+03  0.15294330000E+03 0.  0.
<mgrwt>
<rscale>  0 0.59222547E+03</rscale>
<asrwt>0</asrwt>
<pdfrwt beam="1">  1        2 0.41648617E+00 0.72027153E+03</pdfrwt>
<pdfrwt beam="2">  1       -2 0.21107195E-01 0.72027153E+03</pdfrwt>
<totfact> 0.53603382E+01</totfact>
</mgrwt>
</event>
<event>
 4    1  0.8287789E-007  0.8992530E+03  0.7818608E-02  0.9527232E-01
         -2   -1    0    0    0  501 -0.00000000000E+00  0.00000000000E+00  0.85437144601E+03  0.85437144601E+03  0.25500000000E-02 0.  1.
          2   -1    0    0  501    0  0.00000000000E+00 -0.00000000000E+00 -0.73255930431E+03  0.73255930431E+03  0.25500000000E-02 0. -1.
    8880023    1    1    2    0    0  0.40794330066E+03 -0.45653915029E+03 -0.12781610343E+03  0.90829119497E+03  0.65864270000E+03 0. -1.
    8880022    1    1    2    0    0 -0.40794330066E+03  0.45653915029E+03  0.24962824513E+03  0.67863955535E+03  0.15294330000E+03 0.  1.
<mgrwt>
<rscale>  0 0.82305559E+03</rscale>
<asrwt>0</asrwt>
<pdfrwt beam="1">  1        2 0.11270143E+00 0.89925299E+03</pdfrwt>
<pdfrwt beam="2">  1       -2 0.13144176E+00 0.89925299E+03</pdfrwt>
<totfact> 0.16340962E+01</totfact>
</mgrwt>
</event>
<event>
 4    1  0.8287789E-007  0.7405209E+03  0.7818608E-02  0.9858432E-01
          2   -1    0    0  501    0  0.00000000000E+00  0.00000000000E+00  0.62798098781E+03  0.62798098781E+03  0.25500000000E-02 0. -1.
         -2   -1    0    0    0  501 -0.00000000000E+00 -0.00000000000E+00 -0.87137593700E+03  0.87137593700E+03  0.25500000000E-02 0.  1.
    8880023    1    1    2    0    0 -0.27481213453E+03 -0.19758349454E+03  0.33436541727E+03  0.81250931387E+03  0.65864270000E+03 0. -1.
    8880022    1    1    2    0    0  0.27481213453E+03  0.19758349454E+03 -0.57776036646E+03  0.68684761095E+03  0.15294330000E+03 0.  0.
<mgrwt>
<rscale>  0 0.62318819E+03</rscale>
<asrwt>0</asrwt>
<pdfrwt beam="1">  1        2 0.96612460E-01 0.74052087E+03</pdfrwt>
<pdfrwt beam="2">  1       -2 0.13405784E+00 0.74052087E+03</pdfrwt>
<totfact> 0.19117590E+01</totfact>
</mgrwt>
</event>
<event>
 4    1  0.8287789E-007  0.6610491E+03  0.7818608E-02  0.1023106E+00
          2   -1    0    0  501    0  0.00000000000E+00  0.00000000000E+00  0.12997764544E+04  0.12997764544E+04  0.25500000000E-02 0. -1.
         -2   -1    0    0    0  501 -0.00000000000E+00 -0.00000000000E+00 -0.31693191020E+03  0.31693191021E+03  0.25500000000E-02 0.  1.
    8880023    1    1    2    0    0 -0.29401791559E+02  0.48075961980E+02  0.11850696360E+04  0.13569731066E+04  0.65864270000E+03 0. -1.
    8880022    1    1    2    0    0  0.29401791559E+02 -0.48075961980E+02 -0.20222509185E+03  0.25973525801E+03  0.15294330000E+03 0.  0.
<mgrwt>
<rscale>  0 0.46582091E+03</rscale>
<asrwt>0</asrwt>
<pdfrwt beam="1">  1        2 0.19996561E+00 0.66104914E+03</pdfrwt>
<pdfrwt beam="2">  1       -2 0.48758754E-01 0.66104914E+03</pdfrwt>
<totfact> 0.67635847E+01</totfact>
</mgrwt>
</event>
<event>
 4    1  0.8287789E-007  0.6841834E+03  0.7818608E-02  0.1007050E+00
         -2   -1    0    0    0  501 -0.00000000000E+00  0.00000000000E+00  0.13103758493E+03  0.13103758495E+03  0.25500000000E-02 0.  1.
          2   -1    0    0  501    0  0.00000000000E+00 -0.00000000000E+00 -0.28519769978E+04  0.28519769978E+04  0.25500000000E-02 0. -1.
    8880023    1    1    2    0    0  0.18334620886E+03  0.26092606794E+02 -0.26435774201E+04  0.27306791168E+04  0.65864270000E+03 0. -1.
    8880022    1    1    2    0    0 -0.18334620886E+03 -0.26092606794E+02 -0.77361992705E+02  0.25233546592E+03  0.15294330000E+03 0.  0.
<mgrwt>
<rscale>  0 0.52664183E+03</rscale>
<asrwt>0</asrwt>
<pdfrwt beam="1">  1        2 0.43876565E+00 0.68418335E+03</pdfrwt>
<pdfrwt beam="2">  1       -2 0.20159631E-01 0.68418335E+03</pdfrwt>
<totfact> 0.48018685E+01</totfact>
</mgrwt>
</event>
<event>
 4    1  0.1265497E-006  0.7616023E+03  0.7818608E-02  0.9800977E-01
          2   -1    0    0  501    0  0.00000000000E+00  0.00000000000E+00  0.28089359230E+04  0.28089359230E+04  0.25500000000E-02 0. -1.
         -2   -1    0    0    0  501 -0.00000000000E+00 -0.00000000000E+00 -0.73343444375E+03  0.73343444376E+03  0.25500000000E-02 0.  1.
    8880023    1    1    2    0    0  0.35190287023E+03  0.14964038861E+03  0.26938390064E+04  0.27994297053E+04  0.65864270000E+03 0. -1.
    8880022    1    1    2    0    0 -0.35190287023E+03 -0.14964038861E+03 -0.61833752717E+03  0.74294066149E+03  0.15294330000E+03 0.  0.
<mgrwt>
<rscale>  0 0.65310149E+03</rscale>
<asrwt>0</asrwt>
<pdfrwt beam="1">  1        2 0.43214398E+00 0.76160231E+03</pdfrwt>
<pdfrwt beam="2">  1       -2 0.11283607E+00 0.76160231E+03</pdfrwt>
<totfact> 0.14929993E+00</totfact>
</mgrwt>
</event>
<event>
 4    1  0.8287789E-007  0.1094865E+04  0.7818608E-02  0.9266795E-01
          2   -1    0    0  501    0  0.00000000000E+00  0.00000000000E+00  0.18261191977E+04  0.18261191977E+04  0.25500000000E-02 0. -1.
         -2   -1    0    0    0  501 -0.00000000000E+00 -0.00000000000E+00 -0.56046621661E+03  0.56046621661E+03  0.25500000000E-02 0.  1.
    8880023    1    1    2    0    0 -0.74194286984E+03 -0.46307632669E+03  0.93289310518E+03  0.14384083768E+04  0.65864270000E+03 0.  0.
    8880022    1    1    2    0    0  0.74194286984E+03  0.46307632669E+03  0.33275987589E+03  0.94817703751E+03  0.15294330000E+03 0.  0.
<mgrwt>
<rscale>  0 0.10389809E+04</rscale>
<asrwt>0</asrwt>
<pdfrwt beam="1">  1        2 0.28094141E+00 0.10948649E+04</pdfrwt>
<pdfrwt beam="2">  1       -2 0.86225573E-01 0.10948649E+04</pdfrwt>
<totfact> 0.96326987E+00</totfact>
</mgrwt>
</event>
<event>
 4    1  0.8287789E-007  0.7372451E+03  0.7818608E-02  0.9868046E-01
          2   -1    0    0  501    0  0.00000000000E+00  0.00000000000E+00  0.53673648286E+03  0.53673648286E+03  0.25500000000E-02 0. -1.
         -2   -1    0    0    0  501 -0.00000000000E+00 -0.00000000000E+00 -0.84313226284E+03  0.84313226284E+03  0.25500000000E-02 0.  1.
    8880023    1    1    2    0    0 -0.81736510185E+02 -0.32099731197E+03  0.19234696150E+03  0.76192367810E+03  0.65864270000E+03 0. -1.
    8880022    1    1    2    0    0  0.81736510185E+02  0.32099731197E+03 -0.49874274148E+03  0.61794506761E+03  0.15294330000E+03 0.  0.
<mgrwt>
<rscale>  0 0.61835231E+03</rscale>
<asrwt>0</asrwt>
<pdfrwt beam="1">  1        2 0.82574844E-01 0.73724510E+03</pdfrwt>
<pdfrwt beam="2">  1       -2 0.12971266E+00 0.73724510E+03</pdfrwt>
<totfact> 0.25092108E+01</totfact>
</mgrwt>
</event>
<event>
 4    1  0.8287789E-007  0.6832387E+03  0.7818608E-02  0.1007548E+00
          2   -1    0    0  501    0  0.00000000000E+00  0.00000000000E+00  0.25611801725E+04  0.25611801725E+04  0.25500000000E-02 0. -1.
         -2   -1    0    0    0  501 -0.00000000000E+00 -0.00000000000E+00 -0.33652702361E+03  0.33652702362E+03  0.25500000000E-02 0.  1.
    8880023    1    1    2    0    0 -0.72351343783E+02 -0.16664409351E+03  0.24661277865E+04  0.25590235318E+04  0.65864270000E+03 0. -1.
    8880022    1    1    2    0    0  0.72351343783E+02  0.16664409351E+03 -0.24147463760E+03  0.33868366431E+03  0.15294330000E+03 0.  0.
<mgrwt>
<rscale>  0 0.52460932E+03</rscale>
<asrwt>0</asrwt>
<pdfrwt beam="1">  1        2 0.39402771E+00 0.68323874E+03</pdfrwt>
<pdfrwt beam="2">  1       -2 0.51773389E-01 0.68323874E+03</pdfrwt>
<totfact> 0.11998285E+01</totfact>
</mgrwt>
</event>
<event>
 4    1  0.8287789E-007  0.7284244E+03  0.7818608E-02  0.9895048E-01
          2   -1    0    0  501    0  0.00000000000E+00  0.00000000000E+00  0.10759468916E+04  0.10759468916E+04  0.25500000000E-02 0. -1.
         -2   -1    0    0    0  501 -0.00000000000E+00 -0.00000000000E+00 -0.53194538187E+03  0.53194538188E+03  0.25500000000E-02 0.  1.
    8880023    1    1    2    0    0  0.83091218373E+02 -0.29981296768E+03  0.86816194314E+03  0.11332728409E+04  0.65864270000E+03 0. -1.
    8880022    1    1    2    0    0 -0.83091218373E+02  0.29981296768E+03 -0.32416043342E+03  0.47461943256E+03  0.15294330000E+03 0.  0.
<mgrwt>
<rscale>  0 0.60501904E+03</rscale>
<asrwt>0</asrwt>
<pdfrwt beam="1">  1        2 0.16553029E+00 0.72842445E+03</pdfrwt>
<pdfrwt beam="2">  1       -2 0.81837751E-01 0.72842445E+03</pdfrwt>
<totfact> 0.30180758E+01</totfact>
</mgrwt>
</event>
<event>
 4    1  0.8287789E-007  0.9727383E+03  0.7818608E-02  0.9418127E-01
          2   -1    0    0  501    0  0.00000000000E+00  0.00000000000E+00  0.15853763128E+04  0.15853763128E+04  0.25500000000E-02 0. -1.
         -2   -1    0    0    0  501 -0.00000000000E+00 -0.00000000000E+00 -0.12592160438E+04  0.12592160438E+04  0.25500000000E-02 0.  1.
    8880023    1    1    2    0    0 -0.32377719115E+03 -0.63841834426E+03  0.13016777525E+04  0.16249876398E+04  0.65864270000E+03 0.  0.
    8880022    1    1    2    0    0  0.32377719115E+03  0.63841834426E+03 -0.97551748346E+03  0.12196047168E+04  0.15294330000E+03 0.  0.
<mgrwt>
<rscale>  0 0.90598810E+03</rscale>
<asrwt>0</asrwt>
<pdfrwt beam="1">  1        2 0.24390405E+00 0.97273833E+03</pdfrwt>
<pdfrwt beam="2">  1       -2 0.19372555E+00 0.97273833E+03</pdfrwt>
<totfact> 0.16591713E+00</totfact>
</mgrwt>
</event>
<event>
 4    1  0.8287789E-007  0.7292384E+03  0.7818608E-02  0.9892482E-01
          2   -1    0    0  501    0  0.00000000000E+00  0.00000000000E+00  0.19285443264E+04  0.19285443264E+04  0.25500000000E-02 0. -1.
         -2   -1    0    0    0  501 -0.00000000000E+00 -0.00000000000E+00 -0.37464815666E+03  0.37464815667E+03  0.25500000000E-02 0.  1.
    8880023    1    1    2    0    0  0.23035688927E+03 -0.21192959966E+03  0.17553199964E+04  0.19007727238E+04  0.65864270000E+03 0. -1.
    8880022    1    1    2    0    0 -0.23035688927E+03  0.21192959966E+03 -0.20142382668E+03  0.40241975922E+03  0.15294330000E+03 0.  0.
<mgrwt>
<rscale>  0 0.60627005E+03</rscale>
<asrwt>0</asrwt>
<pdfrwt beam="1">  1        2 0.29669913E+00 0.72923841E+03</pdfrwt>
<pdfrwt beam="2">  1       -2 0.57638177E-01 0.72923841E+03</pdfrwt>
<totfact> 0.21363891E+01</totfact>
</mgrwt>
</event>
<event>
 4    1  0.1057638E-006  0.6665730E+03  0.7818608E-02  0.1018249E+00
         -2   -1    0    0    0  501 -0.00000000000E+00  0.00000000000E+00  0.53966529203E+03  0.53966529203E+03  0.25500000000E-02 0.  1.
          2   -1    0    0  501    0  0.00000000000E+00 -0.00000000000E+00 -0.15615811457E+04  0.15615811457E+04  0.25500000000E-02 0. -1.
    8880023    1    1    2    0    0 -0.68734088106E+02  0.76058925431E+02 -0.14714918136E+04  0.16154280234E+04  0.65864270000E+03 0. -1.
    8880022    1    1    2    0    0  0.68734088106E+02 -0.76058925431E+02  0.44957595990E+03  0.48581841437E+03  0.15294330000E+03 0.  0.
<mgrwt>
<rscale>  0 0.48323939E+03</rscale>
<asrwt>0</asrwt>
<pdfrwt beam="1">  1        2 0.24024325E+00 0.66657298E+03</pdfrwt>
<pdfrwt beam="2">  1       -2 0.83025430E-01 0.66657298E+03</pdfrwt>
<totfact> 0.15450741E+01</totfact>
</mgrwt>
</event>
<event>
 4    1  0.8287789E-007  0.1029676E+04  0.7818608E-02  0.9343722E-01
          2   -1    0    0  501    0  0.00000000000E+00  0.00000000000E+00  0.22753934337E+04  0.22753934337E+04  0.25500000000E-02 0. -1.
         -2   -1    0    0    0  501 -0.00000000000E+00 -0.00000000000E+00 -0.55579054398E+03  0.55579054398E+03  0.25500000000E-02 0.  1.
    8880023    1    1    2    0    0  0.36269506397E+03  0.70347364047E+03  0.17433508541E+04  0.20247235068E+04  0.65864270000E+03 0.  0.
    8880022    1    1    2    0    0 -0.36269506397E+03 -0.70347364047E+03 -0.23747964369E+02  0.80646047088E+03  0.15294330000E+03 0.  0.
<mgrwt>
<rscale>  0 0.96855477E+03</rscale>
<asrwt>0</asrwt>
<pdfrwt beam="1">  1        2 0.35006053E+00 0.10296762E+04</pdfrwt>
<pdfrwt beam="2">  1       -2 0.85506237E-01 0.10296762E+04</pdfrwt>
<totfact> 0.55766137E+00</totfact>
</mgrwt>
</event>
<event>
 4    1  0.8287789E-007  0.8437220E+03  0.7818608E-02  0.9623202E-01
         -2   -1    0    0    0  501 -0.00000000000E+00  0.00000000000E+00  0.69575297105E+03  0.69575297105E+03  0.25500000000E-02 0.  1.
          2   -1    0    0  501    0  0.00000000000E+00 -0.00000000000E+00 -0.96530507172E+03  0.96530507173E+03  0.25500000000E-02 0. -1.
    8880023    1    1    2    0    0 -0.27096589679E+03 -0.45236498635E+03  0.27535059640E+03  0.88751605918E+03  0.65864270000E+03 0.  0.
    8880022    1    1    2    0    0  0.27096589679E+03  0.45236498635E+03 -0.54490269707E+03  0.77354198360E+03  0.15294330000E+03 0.  0.
<mgrwt>
<rscale>  0 0.75779393E+03</rscale>
<asrwt>0</asrwt>
<pdfrwt beam="1">  1        2 0.14850847E+00 0.84372199E+03</pdfrwt>
<pdfrwt beam="2">  1       -2 0.10703892E+00 0.84372199E+03</pdfrwt>
<totfact> 0.18746407E+01</totfact>
</mgrwt>
</event>
<event>
 4    1  0.8287789E-007  0.6824110E+03  0.7818608E-02  0.1007991E+00
          2   -1    0    0  501    0  0.00000000000E+00  0.00000000000E+00  0.70173742519E+03  0.70173742519E+03  0.25500000000E-02 0. -1.
         -2   -1    0    0    0  501 -0.00000000000E+00 -0.00000000000E+00 -0.17449732056E+04  0.17449732056E+04  0.25500000000E-02 0.  1.
    8880023    1    1    2    0    0  0.60223864749E+01 -0.17843271353E+03  0.52497423825E+03  0.86097773461E+03  0.65864270000E+03 0. -1.
    8880022    1    1    2    0    0 -0.60223864749E+01  0.17843271353E+03 -0.15682100187E+04  0.15857328962E+04  0.15294330000E+03 0.  0.
<mgrwt>
<rscale>  0 0.52280761E+03</rscale>
<asrwt>0</asrwt>
<pdfrwt beam="1">  1        2 0.10795960E+00 0.68241095E+03</pdfrwt>
<pdfrwt beam="2">  1       -2 0.26845742E+00 0.68241095E+03</pdfrwt>
<totfact> 0.21179395E+00</totfact>
</mgrwt>
</event>
<event>
 4    1  0.8287789E-007  0.9315696E+03  0.7818608E-02  0.9477143E-01
         -2   -1    0    0    0  501 -0.00000000000E+00  0.00000000000E+00  0.30311297033E+03  0.30311297034E+03  0.25500000000E-02 0.  1.
          2   -1    0    0  501    0  0.00000000000E+00 -0.00000000000E+00 -0.23480873992E+04  0.23480873992E+04  0.25500000000E-02 0. -1.
    8880023    1    1    2    0    0  0.22920835882E+03 -0.61763680624E+03 -0.77264954806E+03  0.12102930333E+04  0.65864270000E+03 0. -1.
    8880022    1    1    2    0    0 -0.22920835882E+03  0.61763680624E+03 -0.12723248808E+04  0.14409073362E+04  0.15294330000E+03 0.  0.
<mgrwt>
<rscale>  0 0.85990187E+03</rscale>
<asrwt>0</asrwt>
<pdfrwt beam="1">  1        2 0.36124420E+00 0.93156959E+03</pdfrwt>
<pdfrwt beam="2">  1       -2 0.46632766E-01 0.93156959E+03</pdfrwt>
<totfact> 0.18879541E+01</totfact>
</mgrwt>
</event>
<event>
 4    1  0.8287789E-007  0.1248598E+04  0.7818608E-02  0.9111270E-01
          2   -1    0    0  501    0  0.00000000000E+00  0.00000000000E+00  0.64840464859E+03  0.64840464859E+03  0.25500000000E-02 0. -1.
         -2   -1    0    0    0  501 -0.00000000000E+00 -0.00000000000E+00 -0.22798759745E+04  0.22798759745E+04  0.25500000000E-02 0.  1.
    8880023    1    1    2    0    0 -0.47100004737E+02  0.10597024751E+04 -0.43547958676E+03  0.13223616839E+04  0.65864270000E+03 0.  1.
    8880022    1    1    2    0    0  0.47100004737E+02 -0.10597024751E+04 -0.11959917392E+04  0.16059189393E+04  0.15294330000E+03 0.  0.
<mgrwt>
<rscale>  0 0.12018139E+04</rscale>
<asrwt>0</asrwt>
<pdfrwt beam="1">  1        2 0.99754562E-01 0.12485984E+04</pdfrwt>
<pdfrwt beam="2">  1       -2 0.35075015E+00 0.12485984E+04</pdfrwt>
<totfact> 0.68177971E-01</totfact>
</mgrwt>
</event>
<event>
 4    1  0.8287789E-007  0.6848119E+03  0.7818608E-02  0.1006723E+00
         -2   -1    0    0    0  501 -0.00000000000E+00  0.00000000000E+00  0.32713120756E+03  0.32713120757E+03  0.25500000000E-02 0.  1.
          2   -1    0    0  501    0  0.00000000000E+00 -0.00000000000E+00 -0.72589071363E+03  0.72589071363E+03  0.25500000000E-02 0. -1.
    8880023    1    1    2    0    0  0.16748344779E+03 -0.84299879449E+02 -0.43064139523E+03  0.80896192278E+03  0.65864270000E+03 0.  0.
    8880022    1    1    2    0    0 -0.16748344779E+03  0.84299879449E+02  0.31881889171E+02  0.24405999842E+03  0.15294330000E+03 0. -1.
<mgrwt>
<rscale>  0 0.52798096E+03</rscale>
<asrwt>0</asrwt>
<pdfrwt beam="1">  1        2 0.11167549E+00 0.68481193E+03</pdfrwt>
<pdfrwt beam="2">  1       -2 0.50327878E-01 0.68481193E+03</pdfrwt>
<totfact> 0.14819025E+02</totfact>
</mgrwt>
</event>
<event>
 4    1  0.8287789E-007  0.6856652E+03  0.7818608E-02  0.1006285E+00
         -2   -1    0    0    0  501 -0.00000000000E+00  0.00000000000E+00  0.33091025921E+03  0.33091025922E+03  0.25500000000E-02 0.  1.
          2   -1    0    0  501    0  0.00000000000E+00 -0.00000000000E+00 -0.87893814768E+03  0.87893814768E+03  0.25500000000E-02 0. -1.
    8880023    1    1    2    0    0  0.12152049484E+03  0.14683116675E+03 -0.65024074111E+03  0.94496023718E+03  0.65864270000E+03 0. -1.
    8880022    1    1    2    0    0 -0.12152049484E+03 -0.14683116675E+03  0.10221285264E+03  0.26488816972E+03  0.15294330000E+03 0.  0.
<mgrwt>
<rscale>  0 0.52978238E+03</rscale>
<asrwt>0</asrwt>
<pdfrwt beam="1">  1        2 0.13522125E+00 0.68566525E+03</pdfrwt>
<pdfrwt beam="2">  1       -2 0.50909271E-01 0.68566525E+03</pdfrwt>
<totfact> 0.11240642E+02</totfact>
</mgrwt>
</event>
<event>
 4    1  0.8287789E-007  0.6626337E+03  0.7818608E-02  0.1021607E+00
          2   -1    0    0  501    0  0.00000000000E+00  0.00000000000E+00  0.94911558392E+03  0.94911558392E+03  0.25500000000E-02 0. -1.
         -2   -1    0    0    0  501 -0.00000000000E+00 -0.00000000000E+00 -0.15590865299E+04  0.15590865299E+04  0.25500000000E-02 0.  1.
    8880023    1    1    2    0    0 -0.58673334940E+02 -0.42786813119E+02  0.82788439045E+03  0.10604131468E+04  0.65864270000E+03 0. -1.
    8880022    1    1    2    0    0  0.58673334940E+02  0.42786813119E+02 -0.14378553365E+04  0.14477889671E+04  0.15294330000E+03 0.  0.
<mgrwt>
<rscale>  0 0.47111183E+03</rscale>
<asrwt>0</asrwt>
<pdfrwt beam="1">  1        2 0.14601778E+00 0.66263374E+03</pdfrwt>
<pdfrwt beam="2">  1       -2 0.23985947E+00 0.66263374E+03</pdfrwt>
<totfact> 0.21125609E+00</totfact>
</mgrwt>
</event>
<event>
 4    1  0.8287789E-007  0.7368125E+03  0.7818608E-02  0.9869331E-01
         -2   -1    0    0    0  501 -0.00000000000E+00  0.00000000000E+00  0.62808274416E+03  0.62808274417E+03  0.25500000000E-02 0.  1.
          2   -1    0    0  501    0  0.00000000000E+00 -0.00000000000E+00 -0.10273147543E+04  0.10273147543E+04  0.25500000000E-02 0. -1.
    8880023    1    1    2    0    0 -0.22741036675E+03 -0.23951405884E+03 -0.81776445446E+03  0.11007412814E+04  0.65864270000E+03 0.  0.
    8880022    1    1    2    0    0  0.22741036675E+03  0.23951405884E+03  0.41853244427E+03  0.55465621714E+03  0.15294330000E+03 0.  0.
<mgrwt>
<rscale>  0 0.61770927E+03</rscale>
<asrwt>0</asrwt>
<pdfrwt beam="1">  1        2 0.15804842E+00 0.73681250E+03</pdfrwt>
<pdfrwt beam="2">  1       -2 0.96628114E-01 0.73681250E+03</pdfrwt>
<totfact> 0.22062750E+01</totfact>
</mgrwt>
</event>
<event>
 4    1  0.8287789E-007  0.7693973E+03  0.7818608E-02  0.9781359E-01
         -2   -1    0    0    0  501 -0.00000000000E+00  0.00000000000E+00  0.34338512548E+03  0.34338512549E+03  0.25500000000E-02 0.  1.
          2   -1    0    0  501    0  0.00000000000E+00 -0.00000000000E+00 -0.13463348412E+04  0.13463348413E+04  0.25500000000E-02 0. -1.
    8880023    1    1    2    0    0  0.35694705026E+03  0.17535912467E+03 -0.10023894541E+04  0.12636284435E+04  0.65864270000E+03 0. -1.
    8880022    1    1    2    0    0 -0.35694705026E+03 -0.17535912467E+03 -0.56026172250E+00  0.42609152327E+03  0.15294330000E+03 0.  0.
<mgrwt>
<rscale>  0 0.66372569E+03</rscale>
<asrwt>0</asrwt>
<pdfrwt beam="1">  1        2 0.20712844E+00 0.76939731E+03</pdfrwt>
<pdfrwt beam="2">  1       -2 0.52828481E-01 0.76939731E+03</pdfrwt>
<totfact> 0.53429466E+01</totfact>
</mgrwt>
</event>
<event>
 4    1  0.8287789E-007  0.6942882E+03  0.7818608E-02  0.1002178E+00
          2   -1    0    0  501    0  0.00000000000E+00  0.00000000000E+00  0.19293463175E+04  0.19293463175E+04  0.25500000000E-02 0. -1.
         -2   -1    0    0    0  501 -0.00000000000E+00 -0.00000000000E+00 -0.34742045177E+03  0.34742045178E+03  0.25500000000E-02 0.  1.
    8880023    1    1    2    0    0  0.20749084051E+03 -0.71926340107E+02  0.18014643701E+04  0.19306242333E+04  0.65864270000E+03 0. -1.
    8880022    1    1    2    0    0 -0.20749084051E+03  0.71926340107E+02 -0.21953850436E+03  0.34614253597E+03  0.15294330000E+03 0.  0.
<mgrwt>
<rscale>  0 0.54705654E+03</rscale>
<asrwt>0</asrwt>
<pdfrwt beam="1">  1        2 0.29682251E+00 0.69428816E+03</pdfrwt>
<pdfrwt beam="2">  1       -2 0.53449300E-01 0.69428816E+03</pdfrwt>
<totfact> 0.25087968E+01</totfact>
</mgrwt>
</event>
<event>
 4    1  0.8287789E-007  0.8271176E+03  0.7818608E-02  0.9654967E-01
         -2   -1    0    0    0  501 -0.00000000000E+00  0.00000000000E+00  0.12267361250E+04  0.12267361250E+04  0.25500000000E-02 0.  1.
          2   -1    0    0  501    0  0.00000000000E+00 -0.00000000000E+00 -0.85261521749E+03  0.85261521749E+03  0.25500000000E-02 0. -1.
    8880023    1    1    2    0    0 -0.10850834820E+03  0.48840484289E+03 -0.56685292770E+03  0.10027192030E+04  0.65864270000E+03 0. -1.
    8880022    1    1    2    0    0  0.10850834820E+03 -0.48840484289E+03  0.94097383516E+03  0.10766321394E+04  0.15294330000E+03 0.  0.
<mgrwt>
<rscale>  0 0.73762529E+03</rscale>
<asrwt>0</asrwt>
<pdfrwt beam="1">  1        2 0.13117157E+00 0.82711762E+03</pdfrwt>
<pdfrwt beam="2">  1       -2 0.18872863E+00 0.82711762E+03</pdfrwt>
<totfact> 0.50507087E+00</totfact>
</mgrwt>
</event>
<event>
 4    1  0.8287789E-007  0.1181541E+04  0.7818608E-02  0.9175278E-01
         -2   -1    0    0    0  501 -0.00000000000E+00  0.00000000000E+00  0.30880503988E+04  0.30880503988E+04  0.25500000000E-02 0.  1.
          2   -1    0    0  501    0  0.00000000000E+00 -0.00000000000E+00 -0.38421192514E+03  0.38421192515E+03  0.25500000000E-02 0. -1.
    8880023    1    1    2    0    0  0.95366725363E+03  0.22967015230E+03  0.13618116424E+04  0.18029339325E+04  0.65864270000E+03 0. -1.
    8880022    1    1    2    0    0 -0.95366725363E+03 -0.22967015230E+03  0.13420268313E+04  0.16693283914E+04  0.15294330000E+03 0.  1.
<mgrwt>
<rscale>  0 0.11312288E+04</rscale>
<asrwt>0</asrwt>
<pdfrwt beam="1">  1        2 0.59109527E-01 0.11815413E+04</pdfrwt>
<pdfrwt beam="2">  1       -2 0.47508468E+00 0.11815413E+04</pdfrwt>
<totfact> 0.19681475E-01</totfact>
</mgrwt>
</event>
<event>
 4    1  0.1304584E-006  0.9074546E+03  0.7818608E-02  0.9514169E-01
         -2   -1    0    0    0  501 -0.00000000000E+00  0.00000000000E+00  0.90412052703E+03  0.90412052704E+03  0.25500000000E-02 0.  1.
          2   -1    0    0  501    0  0.00000000000E+00 -0.00000000000E+00 -0.23587767057E+04  0.23587767057E+04  0.25500000000E-02 0. -1.
    8880023    1    1    2    0    0  0.43084669388E+03  0.45170202484E+03 -0.21393317374E+04  0.23238360703E+04  0.65864270000E+03 0. -1.
    8880022    1    1    2    0    0 -0.43084669388E+03 -0.45170202484E+03  0.68467555877E+03  0.93906116237E+03  0.15294330000E+03 0.  0.
<mgrwt>
<rscale>  0 0.83247210E+03</rscale>
<asrwt>0</asrwt>
<pdfrwt beam="1">  1        2 0.36288872E+00 0.90745457E+03</pdfrwt>
<pdfrwt beam="2">  1       -2 0.13909547E+00 0.90745457E+03</pdfrwt>
<totfact> 0.15607824E+00</totfact>
</mgrwt>
</event>
<event>
 4    1  0.8287789E-007  0.6644715E+03  0.7818608E-02  0.1019981E+00
          2   -1    0    0  501    0  0.00000000000E+00  0.00000000000E+00  0.92053880191E+03  0.92053880191E+03  0.25500000000E-02 0. -1.
         -2   -1    0    0    0  501 -0.00000000000E+00 -0.00000000000E+00 -0.19648591756E+03  0.19648591758E+03  0.25500000000E-02 0.  1.
    8880023    1    1    2    0    0  0.31344688182E+02 -0.82034848700E+02  0.63644713794E+03  0.92010182672E+03  0.65864270000E+03 0. -1.
    8880022    1    1    2    0    0 -0.31344688182E+02  0.82034848700E+02  0.87605746413E+02  0.19692289277E+03  0.15294330000E+03 0. -1.
<mgrwt>
<rscale>  0 0.47693486E+03</rscale>
<asrwt>0</asrwt>
<pdfrwt beam="1">  1        2 0.14162135E+00 0.66447153E+03</pdfrwt>
<pdfrwt beam="2">  1       -2 0.30228603E-01 0.66447153E+03</pdfrwt>
<totfact> 0.29056025E+02</totfact>
</mgrwt>
</event>
<event>
 4    1  0.1007681E-006  0.7322848E+03  0.7818608E-02  0.9883019E-01
         -2   -1    0    0    0  501 -0.00000000000E+00  0.00000000000E+00  0.54811471501E+03  0.54811471502E+03  0.25500000000E-02 0.  1.
          2   -1    0    0  501    0  0.00000000000E+00 -0.00000000000E+00 -0.29245661810E+04  0.29245661810E+04  0.25500000000E-02 0. -1.
    8880023    1    1    2    0    0 -0.31983949826E+03  0.11557683193E+02 -0.28149698243E+04  0.29086588323E+04  0.65864270000E+03 0. -1.
    8880022    1    1    2    0    0  0.31983949826E+03 -0.11557683193E+02  0.43851835836E+03  0.56402206368E+03  0.15294330000E+03 0.  0.
<mgrwt>
<rscale>  0 0.61091366E+03</rscale>
<asrwt>0</asrwt>
<pdfrwt beam="1">  1        2 0.44993325E+00 0.73228484E+03</pdfrwt>
<pdfrwt beam="2">  1       -2 0.84325342E-01 0.73228484E+03</pdfrwt>
<totfact> 0.25433848E+00</totfact>
</mgrwt>
</event>
<event>
 4    1  0.8287789E-007  0.8232359E+03  0.7818608E-02  0.9662639E-01
         -2   -1    0    0    0  501 -0.00000000000E+00  0.00000000000E+00  0.74184739995E+03  0.74184739995E+03  0.25500000000E-02 0.  1.
          2   -1    0    0  501    0  0.00000000000E+00 -0.00000000000E+00 -0.10801593302E+04  0.10801593302E+04  0.25500000000E-02 0. -1.
    8880023    1    1    2    0    0  0.30476049177E+03 -0.38862342962E+03 -0.78592378685E+03  0.11381535627E+04  0.65864270000E+03 0. -1.
    8880022    1    1    2    0    0 -0.30476049177E+03  0.38862342962E+03  0.44761185659E+03  0.68385316741E+03  0.15294330000E+03 0.  0.
<mgrwt>
<rscale>  0 0.73285464E+03</rscale>
<asrwt>0</asrwt>
<pdfrwt beam="1">  1        2 0.16617836E+00 0.82323589E+03</pdfrwt>
<pdfrwt beam="2">  1       -2 0.11413037E+00 0.82323589E+03</pdfrwt>
<totfact> 0.13593459E+01</totfact>
</mgrwt>
</event>
<event>
 4    1  0.8287789E-007  0.6934930E+03  0.7818608E-02  0.1002535E+00
          2   -1    0    0  501    0  0.00000000000E+00  0.00000000000E+00  0.28042067323E+04  0.28042067323E+04  0.25500000000E-02 0. -1.
         -2   -1    0    0    0  501 -0.00000000000E+00 -0.00000000000E+00 -0.36333915801E+03  0.36333915802E+03  0.25500000000E-02 0.  1.
    8880023    1    1    2    0    0  0.21088198562E+03  0.51488878450E+02  0.27053129871E+04  0.27927855057E+04  0.65864270000E+03 0. -1.
    8880022    1    1    2    0    0 -0.21088198562E+03 -0.51488878450E+02 -0.26444541285E+03  0.37476038458E+03  0.15294330000E+03 0.  0.
<mgrwt>
<rscale>  0 0.54552662E+03</rscale>
<asrwt>0</asrwt>
<pdfrwt beam="1">  1        2 0.43141639E+00 0.69349299E+03</pdfrwt>
<pdfrwt beam="2">  1       -2 0.55898335E-01 0.69349299E+03</pdfrwt>
<totfact> 0.73921404E+00</totfact>
</mgrwt>
</event>
<event>
 4    1  0.8287789E-007  0.7740768E+03  0.7818608E-02  0.9769939E-01
          2   -1    0    0  501    0  0.00000000000E+00  0.00000000000E+00  0.32621863768E+04  0.32621863768E+04  0.25500000000E-02 0. -1.
         -2   -1    0    0    0  501 -0.00000000000E+00 -0.00000000000E+00 -0.60024206961E+03  0.60024206962E+03  0.25500000000E-02 0.  1.
    8880023    1    1    2    0    0 -0.16313146728E+02 -0.40634781143E+03 -0.32827473663E+03  0.84080864147E+03  0.65864270000E+03 0.  1.
    8880022    1    1    2    0    0  0.16313146728E+02  0.40634781143E+03  0.29902190438E+04  0.30216198049E+04  0.15294330000E+03 0.  0.
<mgrwt>
<rscale>  0 0.67001029E+03</rscale>
<asrwt>0</asrwt>
<pdfrwt beam="1">  1        2 0.50187481E+00 0.77407678E+03</pdfrwt>
<pdfrwt beam="2">  1       -2 0.92344938E-01 0.77407678E+03</pdfrwt>
<totfact> 0.12602089E+00</totfact>
</mgrwt>
</event>
<event>
 4    1  0.8287789E-007  0.6643615E+03  0.7818608E-02  0.1020075E+00
          2   -1    0    0  501    0  0.00000000000E+00  0.00000000000E+00  0.38855213417E+04  0.38855213417E+04  0.25500000000E-02 0. -1.
         -2   -1    0    0    0  501 -0.00000000000E+00 -0.00000000000E+00 -0.30129031624E+03  0.30129031625E+03  0.25500000000E-02 0.  1.
    8880023    1    1    2    0    0  0.67057999789E+02 -0.55400428047E+02  0.38285311112E+04  0.38857466024E+04  0.65864270000E+03 0.  0.
    8880022    1    1    2    0    0 -0.67057999789E+02  0.55400428047E+02 -0.24430008571E+03  0.30106505552E+03  0.15294330000E+03 0.  0.
<mgrwt>
<rscale>  0 0.47659481E+03</rscale>
<asrwt>0</asrwt>
<pdfrwt beam="1">  1        2 0.59777248E+00 0.66436149E+03</pdfrwt>
<pdfrwt beam="2">  1       -2 0.46352359E-01 0.66436149E+03</pdfrwt>
<totfact> 0.21006060E+00</totfact>
</mgrwt>
</event>
<event>
 4    1  0.8287789E-007  0.7306926E+03  0.7818608E-02  0.9887938E-01
         -2   -1    0    0    0  501 -0.00000000000E+00  0.00000000000E+00  0.40667993894E+03  0.40667993895E+03  0.25500000000E-02 0.  1.
          2   -1    0    0  501    0  0.00000000000E+00 -0.00000000000E+00 -0.10259765753E+04  0.10259765753E+04  0.25500000000E-02 0. -1.
    8880023    1    1    2    0    0  0.30969695295E+03 -0.64724753896E+02 -0.75985035316E+03  0.10541746828E+04  0.65864270000E+03 0. -1.
    8880022    1    1    2    0    0 -0.30969695295E+03  0.64724753896E+02  0.14055371677E+03  0.37848183146E+03  0.15294330000E+03 0.  0.
<mgrwt>
<rscale>  0 0.60849414E+03</rscale>
<asrwt>0</asrwt>
<pdfrwt beam="1">  1        2 0.15784255E+00 0.73069262E+03</pdfrwt>
<pdfrwt beam="2">  1       -2 0.62566145E-01 0.73069262E+03</pdfrwt>
<totfact> 0.58419966E+01</totfact>
</mgrwt>
</event>
<event>
 4    1  0.8287789E-007  0.1258893E+04  0.7818608E-02  0.9101897E-01
          2   -1    0    0  501    0  0.00000000000E+00  0.00000000000E+00  0.17633169491E+04  0.17633169492E+04  0.25500000000E-02 0. -1.
         -2   -1    0    0    0  501 -0.00000000000E+00 -0.00000000000E+00 -0.87088920735E+03  0.87088920736E+03  0.25500000000E-02 0.  1.
    8880023    1    1    2    0    0 -0.10496967471E+04  0.22167137552E+03  0.90501329069E+03  0.15504388805E+04  0.65864270000E+03 0. -1.
    8880022    1    1    2    0    0  0.10496967471E+04 -0.22167137552E+03 -0.12585548895E+02  0.10837672760E+04  0.15294330000E+03 0.  1.
<mgrwt>
<rscale>  0 0.12126021E+04</rscale>
<asrwt>0</asrwt>
<pdfrwt beam="1">  1        2 0.27127953E+00 0.12588930E+04</pdfrwt>
<pdfrwt beam="2">  1       -2 0.13398295E+00 0.12588930E+04</pdfrwt>
<totfact> 0.35212163E+00</totfact>
</mgrwt>
</event>
<event>
 4    1  0.8287789E-007  0.7812922E+03  0.7818608E-02  0.9752810E-01
         -2   -1    0    0    0  501 -0.00000000000E+00  0.00000000000E+00  0.32030818917E+03  0.32030818918E+03  0.25500000000E-02 0.  1.
          2   -1    0    0  501    0  0.00000000000E+00 -0.00000000000E+00 -0.31324285262E+04  0.31324285262E+04  0.25500000000E-02 0. -1.
    8880023    1    1    2    0    0  0.41806095289E+03 -0.42806548097E+02 -0.28944209505E+04  0.29980143772E+04  0.65864270000E+03 0.  0.
    8880022    1    1    2    0    0 -0.41806095289E+03  0.42806548097E+02  0.82300613435E+02  0.45472233822E+03  0.15294330000E+03 0.  0.
<mgrwt>
<rscale>  0 0.67957691E+03</rscale>
<asrwt>0</asrwt>
<pdfrwt beam="1">  1        2 0.48191206E+00 0.78129224E+03</pdfrwt>
<pdfrwt beam="2">  1       -2 0.49278185E-01 0.78129224E+03</pdfrwt>
<totfact> 0.59474972E+00</totfact>
</mgrwt>
</event>
<event>
 4    1  0.8287789E-007  0.7616595E+03  0.7818608E-02  0.9800830E-01
          2   -1    0    0  501    0  0.00000000000E+00  0.00000000000E+00  0.77224715082E+03  0.77224715082E+03  0.25500000000E-02 0. -1.
         -2   -1    0    0    0  501 -0.00000000000E+00 -0.00000000000E+00 -0.59730379291E+03  0.59730379291E+03  0.25500000000E-02 0.  1.
    8880023    1    1    2    0    0 -0.31271367481E+03  0.22028410479E+03  0.44007270289E+03  0.87965284023E+03  0.65864270000E+03 0.  1.
    8880022    1    1    2    0    0  0.31271367481E+03 -0.22028410479E+03 -0.26512934498E+03  0.48989810350E+03  0.15294330000E+03 0.  0.
<mgrwt>
<rscale>  0 0.65318013E+03</rscale>
<asrwt>0</asrwt>
<pdfrwt beam="1">  1        2 0.11880725E+00 0.76165946E+03</pdfrwt>
<pdfrwt beam="2">  1       -2 0.91892892E-01 0.76165946E+03</pdfrwt>
<totfact> 0.36814415E+01</totfact>
</mgrwt>
</event>
<event>
 4    1  0.8287789E-007  0.8043398E+03  0.7818608E-02  0.9701490E-01
         -2   -1    0    0    0  501 -0.00000000000E+00  0.00000000000E+00  0.61699410967E+03  0.61699410968E+03  0.25500000000E-02 0.  1.
          2   -1    0    0  501    0  0.00000000000E+00 -0.00000000000E+00 -0.11745861209E+04  0.11745861209E+04  0.25500000000E-02 0. -1.
    8880023    1    1    2    0    0  0.38782358006E+03  0.25049000815E+03 -0.89219493222E+03  0.12012386843E+04  0.65864270000E+03 0.  0.
    8880022    1    1    2    0    0 -0.38782358006E+03 -0.25049000815E+03  0.33460292100E+03  0.59034154622E+03  0.15294330000E+03 0.  1.
<mgrwt>
<rscale>  0 0.70928158E+03</rscale>
<asrwt>0</asrwt>
<pdfrwt beam="1">  1        2 0.18070556E+00 0.80433984E+03</pdfrwt>
<pdfrwt beam="2">  1       -2 0.94922171E-01 0.80433984E+03</pdfrwt>
<totfact> 0.18554908E+01</totfact>
</mgrwt>
</event>
<event>
 4    1  0.8287789E-007  0.8240409E+03  0.7818608E-02  0.9661040E-01
          2   -1    0    0  501    0  0.00000000000E+00  0.00000000000E+00  0.14178752997E+04  0.14178752997E+04  0.25500000000E-02 0. -1.
         -2   -1    0    0    0  501 -0.00000000000E+00 -0.00000000000E+00 -0.18322283085E+04  0.18322283085E+04  0.25500000000E-02 0.  1.
    8880023    1    1    2    0    0  0.47735499611E+03  0.13177775714E+03  0.12554400114E+04  0.15017233427E+04  0.65864270000E+03 0.  0.
    8880022    1    1    2    0    0 -0.47735499611E+03 -0.13177775714E+03 -0.16697930202E+04  0.17483802655E+04  0.15294330000E+03 0.  0.
<mgrwt>
<rscale>  0 0.73384584E+03</rscale>
<asrwt>0</asrwt>
<pdfrwt beam="1">  1        2 0.21813466E+00 0.82404088E+03</pdfrwt>
<pdfrwt beam="2">  1       -2 0.28188128E+00 0.82404088E+03</pdfrwt>
<totfact> 0.59881579E-01</totfact>
</mgrwt>
</event>
<event>
 4    1  0.8287789E-007  0.9139741E+03  0.7818608E-02  0.9503961E-01
         -2   -1    0    0    0  501 -0.00000000000E+00  0.00000000000E+00  0.34572807893E+03  0.34572807894E+03  0.25500000000E-02 0.  1.
          2   -1    0    0  501    0  0.00000000000E+00 -0.00000000000E+00 -0.20423638010E+04  0.20423638010E+04  0.25500000000E-02 0. -1.
    8880023    1    1    2    0    0  0.31307820919E+03 -0.55092689603E+03 -0.13999432151E+04  0.16718820597E+04  0.65864270000E+03 0. -1.
    8880022    1    1    2    0    0 -0.31307820919E+03  0.55092689603E+03 -0.29669250692E+03  0.71620982017E+03  0.15294330000E+03 0.  0.
<mgrwt>
<rscale>  0 0.83992419E+03</rscale>
<asrwt>0</asrwt>
<pdfrwt beam="1">  1        2 0.31420981E+00 0.91397408E+03</pdfrwt>
<pdfrwt beam="2">  1       -2 0.53188936E-01 0.91397408E+03</pdfrwt>
<totfact> 0.21379693E+01</totfact>
</mgrwt>
</event>
<event>
 4    1  0.8287789E-007  0.9319919E+03  0.7818608E-02  0.9476511E-01
         -2   -1    0    0    0  501 -0.00000000000E+00  0.00000000000E+00  0.15257043159E+04  0.15257043159E+04  0.25500000000E-02 0.  1.
          2   -1    0    0  501    0  0.00000000000E+00 -0.00000000000E+00 -0.97565381822E+03  0.97565381822E+03  0.25500000000E-02 0. -1.
    8880023    1    1    2    0    0 -0.52080911731E+03  0.40442119585E+03 -0.64117570114E+03  0.11312449453E+04  0.65864270000E+03 0. -1.
    8880022    1    1    2    0    0  0.52080911731E+03 -0.40442119585E+03  0.11912261988E+04  0.13701131888E+04  0.15294330000E+03 0.  0.
<mgrwt>
<rscale>  0 0.86037905E+03</rscale>
<asrwt>0</asrwt>
<pdfrwt beam="1">  1        2 0.15010059E+00 0.93199187E+03</pdfrwt>
<pdfrwt beam="2">  1       -2 0.23472374E+00 0.93199187E+03</pdfrwt>
<totfact> 0.20939890E+00</totfact>
</mgrwt>
</event>
<event>
 4    1  0.8287789E-007  0.6973340E+03  0.7818608E-02  0.1000845E+00
          2   -1    0    0  501    0  0.00000000000E+00  0.00000000000E+00  0.37710343143E+04  0.37710343143E+04  0.25500000000E-02 0. -1.
         -2   -1    0    0    0  501 -0.00000000000E+00 -0.00000000000E+00 -0.16086957579E+03  0.16086957581E+03  0.25500000000E-02 0.  1.
    8880023    1    1    2    0    0  0.17167180513E+03  0.15163526450E+03  0.35885071800E+04  0.36556337958E+04  0.65864270000E+03 0. -1.
    8880022    1    1    2    0    0 -0.17167180513E+03 -0.15163526450E+03  0.21657558483E+02  0.27627009424E+03  0.15294330000E+03 0.  0.
<mgrwt>
<rscale>  0 0.55281452E+03</rscale>
<asrwt>0</asrwt>
<pdfrwt beam="1">  1        2 0.58015911E+00 0.69733397E+03</pdfrwt>
<pdfrwt beam="2">  1       -2 0.24749166E-01 0.69733397E+03</pdfrwt>
<totfact> 0.83235948E+00</totfact>
</mgrwt>
</event>
<event>
 4    1  0.8287789E-007  0.7405354E+03  0.7818608E-02  0.9858390E-01
          2   -1    0    0  501    0  0.00000000000E+00  0.00000000000E+00  0.12504324545E+04  0.12504324545E+04  0.25500000000E-02 0. -1.
         -2   -1    0    0    0  501 -0.00000000000E+00 -0.00000000000E+00 -0.11292489476E+04  0.11292489476E+04  0.25500000000E-02 0.  1.
    8880023    1    1    2    0    0  0.15497501207E+03 -0.30094045590E+03  0.11038017115E+04  0.13291993217E+04  0.65864270000E+03 0. -1.
    8880022    1    1    2    0    0 -0.15497501207E+03  0.30094045590E+03 -0.98261820456E+03  0.10504820804E+04  0.15294330000E+03 0.  0.
<mgrwt>
<rscale>  0 0.62320945E+03</rscale>
<asrwt>0</asrwt>
<pdfrwt beam="1">  1        2 0.19237422E+00 0.74053536E+03</pdfrwt>
<pdfrwt beam="2">  1       -2 0.17373061E+00 0.74053536E+03</pdfrwt>
<totfact> 0.36368103E+00</totfact>
</mgrwt>
</event>
<event>
 4    1  0.9826285E-007  0.9046771E+03  0.7818608E-02  0.9518565E-01
          2   -1    0    0  501    0  0.00000000000E+00  0.00000000000E+00  0.19260468229E+04  0.19260468229E+04  0.25500000000E-02 0. -1.
         -2   -1    0    0    0  501 -0.00000000000E+00 -0.00000000000E+00 -0.93957841253E+03  0.93957841253E+03  0.25500000000E-02 0.  1.
    8880023    1    1    2    0    0 -0.60638396790E+03  0.13011140397E+03  0.16890529089E+04  0.19160742234E+04  0.65864270000E+03 0. -1.
    8880022    1    1    2    0    0  0.60638396790E+03 -0.13011140397E+03 -0.70258449854E+03  0.94955101210E+03  0.15294330000E+03 0.  0.
<mgrwt>
<rscale>  0 0.82928856E+03</rscale>
<asrwt>0</asrwt>
<pdfrwt beam="1">  1        2 0.29631489E+00 0.90467712E+03</pdfrwt>
<pdfrwt beam="2">  1       -2 0.14455053E+00 0.90467712E+03</pdfrwt>
<totfact> 0.24511465E+00</totfact>
</mgrwt>
</event>
<event>
 4    1  0.8287789E-007  0.1167064E+04  0.7818608E-02  0.9189823E-01
         -2   -1    0    0    0  501 -0.00000000000E+00  0.00000000000E+00  0.14869846147E+04  0.14869846148E+04  0.25500000000E-02 0.  1.
          2   -1    0    0  501    0  0.00000000000E+00 -0.00000000000E+00 -0.86744542189E+03  0.86744542189E+03  0.25500000000E-02 0. -1.
    8880023    1    1    2    0    0  0.96071528015E+03  0.72484275394E+02 -0.55096945302E+02  0.11683636845E+04  0.65864270000E+03 0.  0.
    8880022    1    1    2    0    0 -0.96071528015E+03 -0.72484275394E+02  0.67463613816E+03  0.11860663521E+04  0.15294330000E+03 0.  0.
<mgrwt>
<rscale>  0 0.11159092E+04</rscale>
<asrwt>0</asrwt>
<pdfrwt beam="1">  1        2 0.13345314E+00 0.11670638E+04</pdfrwt>
<pdfrwt beam="2">  1       -2 0.22876686E+00 0.11670638E+04</pdfrwt>
<totfact> 0.26264380E+00</totfact>
</mgrwt>
</event>
<event>
 4    1  0.8287789E-007  0.6608782E+03  0.7818608E-02  0.1023274E+00
          2   -1    0    0  501    0  0.00000000000E+00  0.00000000000E+00  0.36019499767E+03  0.36019499768E+03  0.25500000000E-02 0. -1.
         -2   -1    0    0    0  501 -0.00000000000E+00 -0.00000000000E+00 -0.10485424681E+04  0.10485424681E+04  0.25500000000E-02 0.  1.
    8880023    1    1    2    0    0  0.54263779017E+02  0.22844529787E+01  0.40422896632E+02  0.66211327828E+03  0.65864270000E+03 0. -1.
    8880022    1    1    2    0    0 -0.54263779017E+02 -0.22844529787E+01 -0.72877036704E+03  0.74662418748E+03  0.15294330000E+03 0.  0.
<mgrwt>
<rscale>  0 0.46523350E+03</rscale>
<asrwt>0</asrwt>
<pdfrwt beam="1">  1        2 0.55414616E-01 0.66087819E+03</pdfrwt>
<pdfrwt beam="2">  1       -2 0.16131422E+00 0.66087819E+03</pdfrwt>
<totfact> 0.22506709E+01</totfact>
</mgrwt>
</event>
<event>
 4    1  0.8287789E-007  0.1049738E+04  0.7818608E-02  0.9319196E-01
         -2   -1    0    0    0  501 -0.00000000000E+00  0.00000000000E+00  0.76610272321E+03  0.76610272321E+03  0.25500000000E-02 0.  1.
          2   -1    0    0  501    0  0.00000000000E+00 -0.00000000000E+00 -0.20387280403E+04  0.20387280403E+04  0.25500000000E-02 0. -1.
    8880023    1    1    2    0    0  0.78628371954E+03 -0.22337921322E+03 -0.15979227975E+04  0.19118859363E+04  0.65864270000E+03 0. -1.
    8880022    1    1    2    0    0 -0.78628371954E+03  0.22337921322E+03  0.32529748045E+03  0.89294482714E+03  0.15294330000E+03 0.  1.
<mgrwt>
<rscale>  0 0.99034686E+03</rscale>
<asrwt>0</asrwt>
<pdfrwt beam="1">  1        2 0.31365047E+00 0.10497383E+04</pdfrwt>
<pdfrwt beam="2">  1       -2 0.11786196E+00 0.10497383E+04</pdfrwt>
<totfact> 0.35065374E+00</totfact>
</mgrwt>
</event>
<event>
 4    1  0.8287789E-007  0.7370135E+03  0.7818608E-02  0.9868734E-01
         -2   -1    0    0    0  501 -0.00000000000E+00  0.00000000000E+00  0.51491361656E+03  0.51491361657E+03  0.25500000000E-02 0.  1.
          2   -1    0    0  501    0  0.00000000000E+00 -0.00000000000E+00 -0.14157769369E+04  0.14157769369E+04  0.25500000000E-02 0. -1.
    8880023    1    1    2    0    0 -0.13868294699E+03  0.30024266979E+03 -0.12337653777E+04  0.14371380706E+04  0.65864270000E+03 0. -1.
    8880022    1    1    2    0    0  0.13868294699E+03 -0.30024266979E+03  0.33290205735E+03  0.49355248287E+03  0.15294330000E+03 0.  0.
<mgrwt>
<rscale>  0 0.61800810E+03</rscale>
<asrwt>0</asrwt>
<pdfrwt beam="1">  1        2 0.21781183E+00 0.73701345E+03</pdfrwt>
<pdfrwt beam="2">  1       -2 0.79217480E-01 0.73701345E+03</pdfrwt>
<totfact> 0.20510796E+01</totfact>
</mgrwt>
</event>
<event>
 4    1  0.8287789E-007  0.9465767E+03  0.7818608E-02  0.9455057E-01
          2   -1    0    0  501    0  0.00000000000E+00  0.00000000000E+00  0.13066937029E+04  0.13066937029E+04  0.25500000000E-02 0. -1.
         -2   -1    0    0    0  501 -0.00000000000E+00 -0.00000000000E+00 -0.10004593945E+04  0.10004593945E+04  0.25500000000E-02 0.  1.
    8880023    1    1    2    0    0 -0.22727743826E+03  0.64073569340E+03 -0.63220422674E+03  0.11382836436E+04  0.65864270000E+03 0.  1.
    8880022    1    1    2    0    0  0.22727743826E+03 -0.64073569340E+03  0.93843853514E+03  0.11688694538E+04  0.15294330000E+03 0.  0.
<mgrwt>
<rscale>  0 0.87679983E+03</rscale>
<asrwt>0</asrwt>
<pdfrwt beam="1">  1        2 0.20102980E+00 0.94657671E+03</pdfrwt>
<pdfrwt beam="2">  1       -2 0.15391683E+00 0.94657671E+03</pdfrwt>
<totfact> 0.45718402E+00</totfact>
</mgrwt>
</event>
<event>
 4    1  0.8287789E-007  0.9920926E+03  0.7818608E-02  0.9391977E-01
          2   -1    0    0  501    0  0.00000000000E+00  0.00000000000E+00  0.70787497933E+03  0.70787497933E+03  0.25500000000E-02 0. -1.
         -2   -1    0    0    0  501 -0.00000000000E+00 -0.00000000000E+00 -0.15720209021E+04  0.15720209021E+04  0.25500000000E-02 0.  1.
    8880023    1    1    2    0    0  0.14022386849E+03  0.72854294833E+03  0.16117232642E+03  0.10050991423E+04  0.65864270000E+03 0.  0.
    8880022    1    1    2    0    0 -0.14022386849E+03 -0.72854294833E+03 -0.10253182492E+04  0.12747967391E+04  0.15294330000E+03 0.  0.
<mgrwt>
<rscale>  0 0.92738912E+03</rscale>
<asrwt>0</asrwt>
<pdfrwt beam="1">  1        2 0.10890384E+00 0.99209262E+03</pdfrwt>
<pdfrwt beam="2">  1       -2 0.24184937E+00 0.99209262E+03</pdfrwt>
<totfact> 0.29085605E+00</totfact>
</mgrwt>
</event>
<event>
 4    1  0.8287789E-007  0.7227229E+03  0.7818608E-02  0.9913478E-01
          2   -1    0    0  501    0  0.00000000000E+00  0.00000000000E+00  0.11082069055E+04  0.11082069055E+04  0.25500000000E-02 0. -1.
         -2   -1    0    0    0  501 -0.00000000000E+00 -0.00000000000E+00 -0.12093551811E+04  0.12093551811E+04  0.25500000000E-02 0.  1.
    8880023    1    1    2    0    0  0.13134827709E+03  0.26695647441E+03  0.96188044942E+03  0.12031385350E+04  0.65864270000E+03 0. -1.
    8880022    1    1    2    0    0 -0.13134827709E+03 -0.26695647441E+03 -0.10630287250E+04  0.11144235516E+04  0.15294330000E+03 0.  0.
<mgrwt>
<rscale>  0 0.59612502E+03</rscale>
<asrwt>0</asrwt>
<pdfrwt beam="1">  1        2 0.17049337E+00 0.72272286E+03</pdfrwt>
<pdfrwt beam="2">  1       -2 0.18605464E+00 0.72272286E+03</pdfrwt>
<totfact> 0.36477123E+00</totfact>
</mgrwt>
</event>
<event>
 4    1  0.8287789E-007  0.7561917E+03  0.7818608E-02  0.9815069E-01
          2   -1    0    0  501    0  0.00000000000E+00  0.00000000000E+00  0.14081787300E+04  0.14081787300E+04  0.25500000000E-02 0. -1.
         -2   -1    0    0    0  501 -0.00000000000E+00 -0.00000000000E+00 -0.10035526410E+04  0.10035526410E+04  0.25500000000E-02 0.  1.
    8880023    1    1    2    0    0  0.17069036169E+03  0.32997031807E+03  0.12584157536E+04  0.14681403290E+04  0.65864270000E+03 0. -1.
    8880022    1    1    2    0    0 -0.17069036169E+03 -0.32997031807E+03 -0.85378966455E+03  0.94359104208E+03  0.15294330000E+03 0.  0.
<mgrwt>
<rscale>  0 0.64560115E+03</rscale>
<asrwt>0</asrwt>
<pdfrwt beam="1">  1        2 0.21664288E+00 0.75619165E+03</pdfrwt>
<pdfrwt beam="2">  1       -2 0.15439271E+00 0.75619165E+03</pdfrwt>
<totfact> 0.40676823E+00</totfact>
</mgrwt>
</event>
<event>
 4    1  0.8287789E-007  0.7543244E+03  0.7818608E-02  0.9820029E-01
         -2   -1    0    0    0  501 -0.00000000000E+00  0.00000000000E+00  0.88189559448E+03  0.88189559449E+03  0.25500000000E-02 0.  1.
          2   -1    0    0  501    0  0.00000000000E+00 -0.00000000000E+00 -0.98922119333E+03  0.98922119334E+03  0.25500000000E-02 0. -1.
    8880023    1    1    2    0    0 -0.35202694958E+03 -0.10617051257E+03 -0.78273290853E+03  0.10870492920E+04  0.65864270000E+03 0. -1.
    8880022    1    1    2    0    0  0.35202694958E+03  0.10617051257E+03  0.67540730967E+03  0.78406749578E+03  0.15294330000E+03 0.  0.
<mgrwt>
<rscale>  0 0.64298674E+03</rscale>
<asrwt>0</asrwt>
<pdfrwt beam="1">  1        2 0.15218788E+00 0.75432444E+03</pdfrwt>
<pdfrwt beam="2">  1       -2 0.13567625E+00 0.75432444E+03</pdfrwt>
<totfact> 0.10137865E+01</totfact>
</mgrwt>
</event>
<event>
 4    1  0.8287789E-007  0.6991421E+03  0.7818608E-02  0.1000078E+00
         -2   -1    0    0    0  501 -0.00000000000E+00  0.00000000000E+00  0.11989036401E+03  0.11989036404E+03  0.25500000000E-02 0.  1.
          2   -1    0    0  501    0  0.00000000000E+00 -0.00000000000E+00 -0.20224220588E+04  0.20224220588E+04  0.25500000000E-02 0. -1.
    8880023    1    1    2    0    0 -0.17099456542E+03 -0.16046915575E+03 -0.14580733045E+04  0.16170273526E+04  0.65864270000E+03 0.  0.
    8880022    1    1    2    0    0  0.17099456542E+03  0.16046915575E+03 -0.44445839027E+03  0.52528507027E+03  0.15294330000E+03 0.  0.
<mgrwt>
<rscale>  0 0.55616102E+03</rscale>
<asrwt>0</asrwt>
<pdfrwt beam="1">  1        2 0.31114183E+00 0.69914212E+03</pdfrwt>
<pdfrwt beam="2">  1       -2 0.18444673E-01 0.69914212E+03</pdfrwt>
<totfact> 0.16436814E+02</totfact>
</mgrwt>
</event>
<event>
 4    1  0.8287789E-007  0.1005752E+04  0.7818608E-02  0.9374071E-01
         -2   -1    0    0    0  501 -0.00000000000E+00  0.00000000000E+00  0.64237853763E+03  0.64237853764E+03  0.25500000000E-02 0.  1.
          2   -1    0    0  501    0  0.00000000000E+00 -0.00000000000E+00 -0.26545416500E+04  0.26545416500E+04  0.25500000000E-02 0. -1.
    8880023    1    1    2    0    0  0.43762447907E+03 -0.62145922825E+03  0.13434136650E+03  0.10146844663E+04  0.65864270000E+03 0.  0.
    8880022    1    1    2    0    0 -0.43762447907E+03  0.62145922825E+03 -0.21465044789E+04  0.22822357214E+04  0.15294330000E+03 0.  0.
<mgrwt>
<rscale>  0 0.94240626E+03</rscale>
<asrwt>0</asrwt>
<pdfrwt beam="1">  1        2 0.40839102E+00 0.10057519E+04</pdfrwt>
<pdfrwt beam="2">  1       -2 0.98827468E-01 0.10057519E+04</pdfrwt>
<totfact> 0.24265303E+00</totfact>
</mgrwt>
</event>
<event>
 4    1  0.8287789E-007  0.6962748E+03  0.7818608E-02  0.1001302E+00
          2   -1    0    0  501    0  0.00000000000E+00  0.00000000000E+00  0.23194742065E+04  0.23194742065E+04  0.25500000000E-02 0. -1.
         -2   -1    0    0    0  501 -0.00000000000E+00 -0.00000000000E+00 -0.19388822706E+03  0.19388822708E+03  0.25500000000E-02 0.  1.
    8880023    1    1    2    0    0  0.19480182004E+03  0.11419554261E+03  0.21296739700E+04  0.22406047835E+04  0.65864270000E+03 0. -1.
    8880022    1    1    2    0    0 -0.19480182004E+03 -0.11419554261E+03 -0.40879904855E+01  0.27275765017E+03  0.15294330000E+03 0.  0.
<mgrwt>
<rscale>  0 0.55082994E+03</rscale>
<asrwt>0</asrwt>
<pdfrwt beam="1">  1        2 0.35684217E+00 0.69627479E+03</pdfrwt>
<pdfrwt beam="2">  1       -2 0.29828959E-01 0.69627479E+03</pdfrwt>
<totfact> 0.47817989E+01</totfact>
</mgrwt>
</event>
<event>
 4    1  0.8287789E-007  0.1247673E+04  0.7818608E-02  0.9112118E-01
         -2   -1    0    0    0  501 -0.00000000000E+00  0.00000000000E+00  0.11882497927E+04  0.11882497927E+04  0.25500000000E-02 0.  1.
          2   -1    0    0  501    0  0.00000000000E+00 -0.00000000000E+00 -0.26487928035E+04  0.26487928035E+04  0.25500000000E-02 0. -1.
    8880023    1    1    2    0    0 -0.10214865787E+04  0.28185753683E+03 -0.22046513582E+04  0.25332146216E+04  0.65864270000E+03 0.  0.
    8880022    1    1    2    0    0  0.10214865787E+04 -0.28185753683E+03  0.74410834739E+03  0.13038279746E+04  0.15294330000E+03 0.  0.
<mgrwt>
<rscale>  0 0.12008439E+04</rscale>
<asrwt>0</asrwt>
<pdfrwt beam="1">  1        2 0.40750659E+00 0.12476733E+04</pdfrwt>
<pdfrwt beam="2">  1       -2 0.18280766E+00 0.12476733E+04</pdfrwt>
<totfact> 0.47982179E-01</totfact>
</mgrwt>
</event>
<event>
 4    1  0.8287789E-007  0.8182202E+03  0.7818608E-02  0.9672702E-01
         -2   -1    0    0    0  501 -0.00000000000E+00  0.00000000000E+00  0.45702448781E+03  0.45702448782E+03  0.25500000000E-02 0.  1.
          2   -1    0    0  501    0  0.00000000000E+00 -0.00000000000E+00 -0.13045256482E+04  0.13045256482E+04  0.25500000000E-02 0. -1.
    8880023    1    1    2    0    0 -0.69848079786E+02 -0.48041162017E+03 -0.55502618860E+02  0.82010049751E+03  0.65864270000E+03 0.  1.
    8880022    1    1    2    0    0  0.69848079786E+02  0.48041162017E+03 -0.79199854152E+03  0.94144963850E+03  0.15294330000E+03 0.  0.
<mgrwt>
<rscale>  0 0.72665605E+03</rscale>
<asrwt>0</asrwt>
<pdfrwt beam="1">  1        2 0.20069625E+00 0.81822019E+03</pdfrwt>
<pdfrwt beam="2">  1       -2 0.70311460E-01 0.81822019E+03</pdfrwt>
<totfact> 0.30642939E+01</totfact>
</mgrwt>
</event>
<event>
 4    1  0.8287789E-007  0.6615460E+03  0.7818608E-02  0.1022626E+00
         -2   -1    0    0    0  501 -0.00000000000E+00  0.00000000000E+00  0.94396496188E+03  0.94396496188E+03  0.25500000000E-02 0.  1.
          2   -1    0    0  501    0  0.00000000000E+00 -0.00000000000E+00 -0.13289771590E+04  0.13289771590E+04  0.25500000000E-02 0. -1.
    8880023    1    1    2    0    0  0.36527864429E+02 -0.49985842614E+02 -0.12382539925E+04  0.14038931674E+04  0.65864270000E+03 0. -1.
    8880022    1    1    2    0    0 -0.36527864429E+02  0.49985842614E+02  0.85324179531E+03  0.86904895352E+03  0.15294330000E+03 0.  0.
<mgrwt>
<rscale>  0 0.46750909E+03</rscale>
<asrwt>0</asrwt>
<pdfrwt beam="1">  1        2 0.20445802E+00 0.66154597E+03</pdfrwt>
<pdfrwt beam="2">  1       -2 0.14522538E+00 0.66154597E+03</pdfrwt>
<totfact> 0.53822170E+00</totfact>
</mgrwt>
</event>
<event>
 4    1  0.8287789E-007  0.1052660E+04  0.7818608E-02  0.9315691E-01
         -2   -1    0    0    0  501 -0.00000000000E+00  0.00000000000E+00  0.25362533620E+03  0.25362533621E+03  0.25500000000E-02 0.  1.
          2   -1    0    0  501    0  0.00000000000E+00 -0.00000000000E+00 -0.35930413578E+04  0.35930413578E+04  0.25500000000E-02 0. -1.
    8880023    1    1    2    0    0  0.44085623492E+03  0.69276871351E+03 -0.15730920044E+04  0.18928051593E+04  0.65864270000E+03 0. -1.
    8880022    1    1    2    0    0 -0.44085623492E+03 -0.69276871351E+03 -0.17663240171E+04  0.19538615347E+04  0.15294330000E+03 0.  1.
<mgrwt>
<rscale>  0 0.99351096E+03</rscale>
<asrwt>0</asrwt>
<pdfrwt beam="1">  1        2 0.55277555E+00 0.10526599E+04</pdfrwt>
<pdfrwt beam="2">  1       -2 0.39019285E-01 0.10526599E+04</pdfrwt>
<totfact> 0.44734164E+00</totfact>
</mgrwt>
</event>
<event>
 4    1  0.8287789E-007  0.6606229E+03  0.7818608E-02  0.1023527E+00
         -2   -1    0    0    0  501 -0.00000000000E+00  0.00000000000E+00  0.78516174558E+03  0.78516174559E+03  0.25500000000E-02 0.  1.
          2   -1    0    0  501    0  0.00000000000E+00 -0.00000000000E+00 -0.42956096863E+03  0.42956096863E+03  0.25500000000E-02 0. -1.
    8880023    1    1    2    0    0  0.50340852052E+02 -0.88411096166E+01 -0.15559203919E+03  0.67869835386E+03  0.65864270000E+03 0. -1.
    8880022    1    1    2    0    0 -0.50340852052E+02  0.88411096166E+01  0.51119281615E+03  0.53602436037E+03  0.15294330000E+03 0.  0.
<mgrwt>
<rscale>  0 0.46434980E+03</rscale>
<asrwt>0</asrwt>
<pdfrwt beam="1">  1        2 0.66086303E-01 0.66062287E+03</pdfrwt>
<pdfrwt beam="2">  1       -2 0.12079411E+00 0.66062287E+03</pdfrwt>
<totfact> 0.39011231E+01</totfact>
</mgrwt>
</event>
<event>
 4    1  0.8287789E-007  0.7155828E+03  0.7818608E-02  0.9937826E-01
          2   -1    0    0  501    0  0.00000000000E+00  0.00000000000E+00  0.12516072508E+04  0.12516072508E+04  0.25500000000E-02 0. -1.
         -2   -1    0    0    0  501 -0.00000000000E+00 -0.00000000000E+00 -0.60728078478E+03  0.60728078478E+03  0.25500000000E-02 0.  1.
    8880023    1    1    2    0    0  0.44200097181E+02 -0.27621541206E+03  0.10942530510E+04  0.13074588132E+04  0.65864270000E+03 0. -1.
    8880022    1    1    2    0    0 -0.44200097181E+02  0.27621541206E+03 -0.44992658494E+03  0.55142922238E+03  0.15294330000E+03 0.  0.
<mgrwt>
<rscale>  0 0.58462604E+03</rscale>
<asrwt>0</asrwt>
<pdfrwt beam="1">  1        2 0.19255496E+00 0.71558285E+03</pdfrwt>
<pdfrwt beam="2">  1       -2 0.93427814E-01 0.71558285E+03</pdfrwt>
<totfact> 0.17515983E+01</totfact>
</mgrwt>
</event>
<event>
 4    1  0.8287789E-007  0.1183416E+04  0.7818608E-02  0.9173414E-01
         -2   -1    0    0    0  501 -0.00000000000E+00  0.00000000000E+00  0.15679237707E+04  0.15679237707E+04  0.25500000000E-02 0.  1.
          2   -1    0    0  501    0  0.00000000000E+00 -0.00000000000E+00 -0.15882687149E+04  0.15882687149E+04  0.25500000000E-02 0. -1.
    8880023    1    1    2    0    0  0.10094003343E+03 -0.97799507408E+03 -0.11504607087E+04  0.16504645721E+04  0.65864270000E+03 0. -1.
    8880022    1    1    2    0    0 -0.10094003343E+03  0.97799507408E+03  0.11301157645E+04  0.15057279135E+04  0.15294330000E+03 0.  0.
<mgrwt>
<rscale>  0 0.11332102E+04</rscale>
<asrwt>0</asrwt>
<pdfrwt beam="1">  1        2 0.24434903E+00 0.11834160E+04</pdfrwt>
<pdfrwt beam="2">  1       -2 0.24121904E+00 0.11834160E+04</pdfrwt>
<totfact> 0.80212435E-01</totfact>
</mgrwt>
</event>
<event>
 4    1  0.8287789E-007  0.7072170E+03  0.7818608E-02  0.9968484E-01
          2   -1    0    0  501    0  0.00000000000E+00  0.00000000000E+00  0.34610225053E+03  0.34610225054E+03  0.25500000000E-02 0. -1.
         -2   -1    0    0    0  501 -0.00000000000E+00 -0.00000000000E+00 -0.10570257081E+04  0.10570257081E+04  0.25500000000E-02 0.  1.
    8880023    1    1    2    0    0 -0.21344710581E+03  0.14417348783E+03 -0.88968884066E+02  0.71279122481E+03  0.65864270000E+03 0.  0.
    8880022    1    1    2    0    0  0.21344710581E+03 -0.14417348783E+03 -0.62195457351E+03  0.69033673384E+03  0.15294330000E+03 0.  0.
<mgrwt>
<rscale>  0 0.57054006E+03</rscale>
<asrwt>0</asrwt>
<pdfrwt beam="1">  1        2 0.53246501E-01 0.70721699E+03</pdfrwt>
<pdfrwt beam="2">  1       -2 0.16261934E+00 0.70721699E+03</pdfrwt>
<totfact> 0.22928807E+01</totfact>
</mgrwt>
</event>
<event>
 4    1  0.8287789E-007  0.7940155E+03  0.7818608E-02  0.9723888E-01
         -2   -1    0    0    0  501 -0.00000000000E+00  0.00000000000E+00  0.33034082522E+03  0.33034082523E+03  0.25500000000E-02 0.  1.
          2   -1    0    0  501    0  0.00000000000E+00 -0.00000000000E+00 -0.17310958237E+04  0.17310958238E+04  0.25500000000E-02 0. -1.
    8880023    1    1    2    0    0 -0.40557269779E+03 -0.17933562075E+03 -0.13797161991E+04  0.15918785992E+04  0.65864270000E+03 0. -1.
    8880022    1    1    2    0    0  0.40557269779E+03  0.17933562075E+03 -0.21038799412E+02  0.46955804983E+03  0.15294330000E+03 0.  0.
<mgrwt>
<rscale>  0 0.69612140E+03</rscale>
<asrwt>0</asrwt>
<pdfrwt beam="1">  1        2 0.26632243E+00 0.79401554E+03</pdfrwt>
<pdfrwt beam="2">  1       -2 0.50821666E-01 0.79401554E+03</pdfrwt>
<totfact> 0.35236710E+01</totfact>
</mgrwt>
</event>
<event>
 4    1  0.8287789E-007  0.1476789E+04  0.7818608E-02  0.8926202E-01
         -2   -1    0    0    0  501 -0.00000000000E+00  0.00000000000E+00  0.78459688751E+03  0.78459688751E+03  0.25500000000E-02 0.  1.
          2   -1    0    0  501    0  0.00000000000E+00 -0.00000000000E+00 -0.33112374772E+04  0.33112374772E+04  0.25500000000E-02 0. -1.
    8880023    1    1    2    0    0 -0.12554065331E+04  0.41358291508E+03 -0.23187542031E+04  0.27490957880E+04  0.65864270000E+03 0. -1.
    8880022    1    1    2    0    0  0.12554065331E+04 -0.41358291508E+03 -0.20788638656E+03  0.13467385766E+04  0.15294330000E+03 0.  0.
<mgrwt>
<rscale>  0 0.14388003E+04</rscale>
<asrwt>0</asrwt>
<pdfrwt beam="1">  1        2 0.50942114E+00 0.14767893E+04</pdfrwt>
<pdfrwt beam="2">  1       -2 0.12070722E+00 0.14767893E+04</pdfrwt>
<totfact> 0.54891796E-01</totfact>
</mgrwt>
</event>
<event>
 4    1  0.8287789E-007  0.6919534E+03  0.7818608E-02  0.1003238E+00
         -2   -1    0    0    0  501 -0.00000000000E+00  0.00000000000E+00  0.48469834131E+03  0.48469834132E+03  0.25500000000E-02 0.  1.
          2   -1    0    0  501    0  0.00000000000E+00 -0.00000000000E+00 -0.60678740063E+03  0.60678740064E+03  0.25500000000E-02 0. -1.
    8880023    1    1    2    0    0  0.18783290395E+03  0.98529762374E+02 -0.32114501922E+03  0.76284575342E+03  0.65864270000E+03 0. -1.
    8880022    1    1    2    0    0 -0.18783290395E+03 -0.98529762374E+02  0.19905595990E+03  0.32863998854E+03  0.15294330000E+03 0.  0.
<mgrwt>
<rscale>  0 0.54253098E+03</rscale>
<asrwt>0</asrwt>
<pdfrwt beam="1">  1        2 0.93351908E-01 0.69195341E+03</pdfrwt>
<pdfrwt beam="2">  1       -2 0.74568976E-01 0.69195341E+03</pdfrwt>
<totfact> 0.80362314E+01</totfact>
</mgrwt>
</event>
<event>
 4    1  0.8287789E-007  0.6780651E+03  0.7818608E-02  0.1010440E+00
         -2   -1    0    0    0  501 -0.00000000000E+00  0.00000000000E+00  0.12946334235E+03  0.12946334238E+03  0.25500000000E-02 0.  1.
          2   -1    0    0  501    0  0.00000000000E+00 -0.00000000000E+00 -0.15683540205E+04  0.15683540205E+04  0.25500000000E-02 0. -1.
    8880023    1    1    2    0    0  0.10620841509E+03  0.12116859662E+03 -0.10487444643E+04  0.12488543605E+04  0.65864270000E+03 0.  0.
    8880022    1    1    2    0    0 -0.10620841509E+03 -0.12116859662E+03 -0.39014621384E+03  0.44896300230E+03  0.15294330000E+03 0. -1.
<mgrwt>
<rscale>  0 0.51300136E+03</rscale>
<asrwt>0</asrwt>
<pdfrwt beam="1">  1        2 0.24128522E+00 0.67806509E+03</pdfrwt>
<pdfrwt beam="2">  1       -2 0.19917438E-01 0.67806509E+03</pdfrwt>
<totfact> 0.25481042E+02</totfact>
</mgrwt>
</event>
<event>
 4    1  0.8287789E-007  0.7391469E+03  0.7818608E-02  0.9862439E-01
         -2   -1    0    0    0  501 -0.00000000000E+00  0.00000000000E+00  0.17835711657E+03  0.17835711659E+03  0.25500000000E-02 0.  1.
          2   -1    0    0  501    0  0.00000000000E+00 -0.00000000000E+00 -0.21081171977E+04  0.21081171977E+04  0.25500000000E-02 0. -1.
    8880023    1    1    2    0    0  0.31134667769E+03 -0.12486485322E+03 -0.16956585270E+04  0.18497556681E+04  0.65864270000E+03 0.  0.
    8880022    1    1    2    0    0 -0.31134667769E+03  0.12486485322E+03 -0.23410155417E+03  0.43671864622E+03  0.15294330000E+03 0.  0.
<mgrwt>
<rscale>  0 0.62116698E+03</rscale>
<asrwt>0</asrwt>
<pdfrwt beam="1">  1        2 0.32432570E+00 0.73914694E+03</pdfrwt>
<pdfrwt beam="2">  1       -2 0.27439558E-01 0.73914694E+03</pdfrwt>
<totfact> 0.72519957E+01</totfact>
</mgrwt>
</event>
<event>
 4    1  0.8287789E-007  0.7234459E+03  0.7818608E-02  0.9911094E-01
         -2   -1    0    0    0  501 -0.00000000000E+00  0.00000000000E+00  0.24759784279E+03  0.24759784280E+03  0.25500000000E-02 0.  1.
          2   -1    0    0  501    0  0.00000000000E+00 -0.00000000000E+00 -0.15587894622E+04  0.15587894622E+04  0.25500000000E-02 0. -1.
    8880023    1    1    2    0    0 -0.30078008940E+02 -0.29775671122E+03 -0.12781392244E+04  0.14686775783E+04  0.65864270000E+03 0.  0.
    8880022    1    1    2    0    0  0.30078008940E+02  0.29775671122E+03 -0.33052395017E+02  0.33770972674E+03  0.15294330000E+03 0.  0.
<mgrwt>
<rscale>  0 0.59726617E+03</rscale>
<asrwt>0</asrwt>
<pdfrwt beam="1">  1        2 0.23981376E+00 0.72344589E+03</pdfrwt>
<pdfrwt beam="2">  1       -2 0.38091977E-01 0.72344589E+03</pdfrwt>
<totfact> 0.78288467E+01</totfact>
</mgrwt>
</event>
<event>
 4    1  0.8287789E-007  0.1408696E+04  0.7818608E-02  0.8976955E-01
         -2   -1    0    0    0  501 -0.00000000000E+00  0.00000000000E+00  0.89279109636E+03  0.89279109636E+03  0.25500000000E-02 0.  1.
          2   -1    0    0  501    0  0.00000000000E+00 -0.00000000000E+00 -0.32074874405E+04  0.32074874405E+04  0.25500000000E-02 0. -1.
    8880023    1    1    2    0    0 -0.25313712835E+03  0.12192361906E+04  0.64917462815E+02  0.14101913975E+04  0.65864270000E+03 0.  0.
    8880022    1    1    2    0    0  0.25313712835E+03 -0.12192361906E+04 -0.23796138069E+04  0.26900871394E+04  0.15294330000E+03 0.  0.
<mgrwt>
<rscale>  0 0.13684813E+04</rscale>
<asrwt>0</asrwt>
<pdfrwt beam="1">  1        2 0.49345960E+00 0.14086964E+04</pdfrwt>
<pdfrwt beam="2">  1       -2 0.13735248E+00 0.14086964E+04</pdfrwt>
<totfact> 0.46560926E-01</totfact>
</mgrwt>
</event>
<event>
 4    1  0.8287789E-007  0.1660372E+04  0.7818608E-02  0.8803979E-01
          2   -1    0    0  501    0  0.00000000000E+00  0.00000000000E+00  0.35525687453E+04  0.35525687453E+04  0.25500000000E-02 0. -1.
         -2   -1    0    0    0  501 -0.00000000000E+00 -0.00000000000E+00 -0.14331649808E+04  0.14331649808E+04  0.25500000000E-02 0.  1.
    8880023    1    1    2    0    0 -0.42365039980E+03 -0.14640850706E+04  0.28424473388E+04  0.32918599355E+04  0.65864270000E+03 0.  0.
    8880022    1    1    2    0    0  0.42365039980E+03  0.14640850706E+04 -0.72304357431E+03  0.16938737906E+04  0.15294330000E+03 0.  0.
<mgrwt>
<rscale>  0 0.16272515E+04</rscale>
<asrwt>0</asrwt>
<pdfrwt beam="1">  1        2 0.54654904E+00 0.16603719E+04</pdfrwt>
<pdfrwt beam="2">  1       -2 0.22048692E+00 0.16603719E+04</pdfrwt>
<totfact> 0.67922935E-02</totfact>
</mgrwt>
</event>
<event>
 4    1  0.8287789E-007  0.1056255E+04  0.7818608E-02  0.9311399E-01
         -2   -1    0    0    0  501 -0.00000000000E+00  0.00000000000E+00  0.71294115695E+03  0.71294115695E+03  0.25500000000E-02 0.  1.
          2   -1    0    0  501    0  0.00000000000E+00 -0.00000000000E+00 -0.18963736638E+04  0.18963736639E+04  0.25500000000E-02 0. -1.
    8880023    1    1    2    0    0 -0.77472999962E+03  0.28575904452E+03 -0.13887425927E+04  0.17447868061E+04  0.65864270000E+03 0. -1.
    8880022    1    1    2    0    0  0.77472999962E+03 -0.28575904452E+03  0.20531008578E+03  0.86452801468E+03  0.15294330000E+03 0.  0.
<mgrwt>
<rscale>  0 0.99740151E+03</rscale>
<asrwt>0</asrwt>
<pdfrwt beam="1">  1        2 0.29174979E+00 0.10562552E+04</pdfrwt>
<pdfrwt beam="2">  1       -2 0.10968326E+00 0.10562552E+04</pdfrwt>
<totfact> 0.50067084E+00</totfact>
</mgrwt>
</event>
<event>
 4    1  0.8287789E-007  0.7655810E+03  0.7818608E-02  0.9790867E-01
         -2   -1    0    0    0  501 -0.00000000000E+00  0.00000000000E+00  0.28464327074E+03  0.28464327075E+03  0.25500000000E-02 0.  1.
          2   -1    0    0  501    0  0.00000000000E+00 -0.00000000000E+00 -0.15196641999E+04  0.15196641999E+04  0.25500000000E-02 0. -1.
    8880023    1    1    2    0    0 -0.20318780659E+03 -0.33319475162E+03 -0.11421225259E+04  0.13749756717E+04  0.65864270000E+03 0. -1.
    8880022    1    1    2    0    0  0.20318780659E+03  0.33319475162E+03 -0.92898403232E+02  0.42933179896E+03  0.15294330000E+03 0.  0.
<mgrwt>
<rscale>  0 0.65854959E+03</rscale>
<asrwt>0</asrwt>
<pdfrwt beam="1">  1        2 0.23379449E+00 0.76558098E+03</pdfrwt>
<pdfrwt beam="2">  1       -2 0.43791273E-01 0.76558098E+03</pdfrwt>
<totfact> 0.62376006E+01</totfact>
</mgrwt>
</event>
<event>
 4    1  0.8287789E-007  0.6707152E+03  0.7818608E-02  0.1015155E+00
         -2   -1    0    0    0  501 -0.00000000000E+00  0.00000000000E+00  0.16914063434E+03  0.16914063436E+03  0.25500000000E-02 0.  1.
          2   -1    0    0  501    0  0.00000000000E+00 -0.00000000000E+00 -0.15826981211E+04  0.15826981211E+04  0.25500000000E-02 0. -1.
    8880023    1    1    2    0    0  0.10051285618E+03 -0.77108933223E+02 -0.14004895533E+04  0.15528135165E+04  0.65864270000E+03 0. -1.
    8880022    1    1    2    0    0 -0.10051285618E+03  0.77108933223E+02 -0.13067933443E+02  0.19902523895E+03  0.15294330000E+03 0.  0.
<mgrwt>
<rscale>  0 0.49476171E+03</rscale>
<asrwt>0</asrwt>
<pdfrwt beam="1">  1        2 0.24349201E+00 0.67071516E+03</pdfrwt>
<pdfrwt beam="2">  1       -2 0.26021637E-01 0.67071516E+03</pdfrwt>
<totfact> 0.15566100E+02</totfact>
</mgrwt>
</event>
<event>
 4    1  0.8287789E-007  0.7148986E+03  0.7818608E-02  0.9940241E-01
         -2   -1    0    0    0  501 -0.00000000000E+00  0.00000000000E+00  0.29736416847E+03  0.29736416848E+03  0.25500000000E-02 0.  1.
          2   -1    0    0  501    0  0.00000000000E+00 -0.00000000000E+00 -0.11726759908E+04  0.11726759908E+04  0.25500000000E-02 0. -1.
    8880023    1    1    2    0    0 -0.17195216503E+03  0.21840847237E+03 -0.90280397289E+03  0.11515793623E+04  0.65864270000E+03 0. -1.
    8880022    1    1    2    0    0  0.17195216503E+03 -0.21840847237E+03  0.27492150594E+02  0.31846079699E+03  0.15294330000E+03 0.  0.
<mgrwt>
<rscale>  0 0.58350051E+03</rscale>
<asrwt>0</asrwt>
<pdfrwt beam="1">  1        2 0.18041169E+00 0.71489860E+03</pdfrwt>
<pdfrwt beam="2">  1       -2 0.45748334E-01 0.71489860E+03</pdfrwt>
<totfact> 0.90756219E+01</totfact>
</mgrwt>
</event>
<event>
 4    1  0.8287789E-007  0.7545523E+03  0.7818608E-02  0.9819421E-01
          2   -1    0    0  501    0  0.00000000000E+00  0.00000000000E+00  0.15307707871E+04  0.15307707871E+04  0.25500000000E-02 0. -1.
         -2   -1    0    0    0  501 -0.00000000000E+00 -0.00000000000E+00 -0.36258169679E+03  0.36258169680E+03  0.25500000000E-02 0.  1.
    8880023    1    1    2    0    0 -0.32230850827E+03 -0.17792180384E+03  0.12741830324E+04  0.14808415004E+04  0.65864270000E+03 0.  0.
    8880022    1    1    2    0    0  0.32230850827E+03  0.17792180384E+03 -0.10599394210E+03  0.41251098357E+03  0.15294330000E+03 0.  0.
<mgrwt>
<rscale>  0 0.64330650E+03</rscale>
<asrwt>0</asrwt>
<pdfrwt beam="1">  1        2 0.23550319E+00 0.75455228E+03</pdfrwt>
<pdfrwt beam="2">  1       -2 0.55781800E-01 0.75455228E+03</pdfrwt>
<totfact> 0.37652730E+01</totfact>
</mgrwt>
</event>
<event>
 4    1  0.8287789E-007  0.8541804E+03  0.7818608E-02  0.9604000E-01
          2   -1    0    0  501    0  0.00000000000E+00  0.00000000000E+00  0.17072719829E+04  0.17072719829E+04  0.25500000000E-02 0. -1.
         -2   -1    0    0    0  501 -0.00000000000E+00 -0.00000000000E+00 -0.66116288935E+03  0.66116288936E+03  0.25500000000E-02 0.  1.
    8880023    1    1    2    0    0 -0.16066945585E+03  0.51961457646E+03 -0.30257851231E+03  0.90618869144E+03  0.65864270000E+03 0.  1.
    8880022    1    1    2    0    0  0.16066945585E+03 -0.51961457646E+03  0.13486876059E+04  0.14622461809E+04  0.15294330000E+03 0.  0.
<mgrwt>
<rscale>  0 0.77031974E+03</rscale>
<asrwt>0</asrwt>
<pdfrwt beam="1">  1        2 0.26265722E+00 0.85418042E+03</pdfrwt>
<pdfrwt beam="2">  1       -2 0.10171737E+00 0.85418042E+03</pdfrwt>
<totfact> 0.78169898E+00</totfact>
</mgrwt>
</event>
<event>
 4    1  0.8287789E-007  0.9308204E+03  0.7818608E-02  0.9478264E-01
         -2   -1    0    0    0  501 -0.00000000000E+00  0.00000000000E+00  0.61878855459E+03  0.61878855459E+03  0.25500000000E-02 0.  1.
          2   -1    0    0  501    0  0.00000000000E+00 -0.00000000000E+00 -0.19949851718E+04  0.19949851718E+04  0.25500000000E-02 0. -1.
    8880023    1    1    2    0    0 -0.65737261611E+03  0.21854068295E+02 -0.16424674952E+04  0.18878893070E+04  0.65864270000E+03 0. -1.
    8880022    1    1    2    0    0  0.65737261611E+03 -0.21854068295E+02  0.26627087800E+03  0.72588441931E+03  0.15294330000E+03 0.  0.
<mgrwt>
<rscale>  0 0.85905500E+03</rscale>
<asrwt>0</asrwt>
<pdfrwt beam="1">  1        2 0.30692079E+00 0.93082037E+03</pdfrwt>
<pdfrwt beam="2">  1       -2 0.95198240E-01 0.93082037E+03</pdfrwt>
<totfact> 0.62950947E+00</totfact>
</mgrwt>
</event>
<event>
 4    1  0.8287789E-007  0.8426652E+03  0.7818608E-02  0.9625175E-01
         -2   -1    0    0    0  501 -0.00000000000E+00  0.00000000000E+00  0.38690924558E+03  0.38690924558E+03  0.25500000000E-02 0.  1.
          2   -1    0    0  501    0  0.00000000000E+00 -0.00000000000E+00 -0.30615783010E+04  0.30615783010E+04  0.25500000000E-02 0. -1.
    8880023    1    1    2    0    0 -0.30888145981E+03  0.42528417654E+03 -0.27677738790E+04  0.28932087444E+04  0.65864270000E+03 0.  0.
    8880022    1    1    2    0    0  0.30888145981E+03 -0.42528417654E+03  0.93104823546E+02  0.55527880223E+03  0.15294330000E+03 0.  0.
<mgrwt>
<rscale>  0 0.75652098E+03</rscale>
<asrwt>0</asrwt>
<pdfrwt beam="1">  1        2 0.47101203E+00 0.84266517E+03</pdfrwt>
<pdfrwt beam="2">  1       -2 0.59524501E-01 0.84266517E+03</pdfrwt>
<totfact> 0.44041790E+00</totfact>
</mgrwt>
</event>
<event>
 4    1  0.8287789E-007  0.7194968E+03  0.7818608E-02  0.9924292E-01
          2   -1    0    0  501    0  0.00000000000E+00  0.00000000000E+00  0.45511828711E+03  0.45511828711E+03  0.25500000000E-02 0. -1.
         -2   -1    0    0    0  501 -0.00000000000E+00 -0.00000000000E+00 -0.11976513139E+04  0.11976513139E+04  0.25500000000E-02 0.  1.
    8880023    1    1    2    0    0  0.16638617898E+02  0.28911704331E+03  0.12065311832E+03  0.72954293195E+03  0.65864270000E+03 0. -1.
    8880022    1    1    2    0    0 -0.16638617898E+02 -0.28911704331E+03 -0.86318614509E+03  0.92322666904E+03  0.15294330000E+03 0.  0.
<mgrwt>
<rscale>  0 0.59098296E+03</rscale>
<asrwt>0</asrwt>
<pdfrwt beam="1">  1        2 0.70018198E-01 0.71949685E+03</pdfrwt>
<pdfrwt beam="2">  1       -2 0.18425405E+00 0.71949685E+03</pdfrwt>
<totfact> 0.11870110E+01</totfact>
</mgrwt>
</event>
<event>
 4    1  0.8287789E-007  0.7679002E+03  0.7818608E-02  0.9785068E-01
         -2   -1    0    0    0  501 -0.00000000000E+00  0.00000000000E+00  0.18232768966E+04  0.18232768966E+04  0.25500000000E-02 0.  1.
          2   -1    0    0  501    0  0.00000000000E+00 -0.00000000000E+00 -0.20131811384E+03  0.20131811385E+03  0.25500000000E-02 0. -1.
    8880023    1    1    2    0    0  0.25032215022E+03 -0.30528554691E+03  0.12151205802E+04  0.14374243196E+04  0.65864270000E+03 0.  1.
    8880022    1    1    2    0    0 -0.25032215022E+03  0.30528554691E+03  0.40683820253E+03  0.58717069077E+03  0.15294330000E+03 0. -1.
<mgrwt>
<rscale>  0 0.66170071E+03</rscale>
<asrwt>0</asrwt>
<pdfrwt beam="1">  1        2 0.30972017E-01 0.76790016E+03</pdfrwt>
<pdfrwt beam="2">  1       -2 0.28050414E+00 0.76790016E+03</pdfrwt>
<totfact> 0.74044243E+00</totfact>
</mgrwt>
</event>
<event>
 4    1  0.8287789E-007  0.8661978E+03  0.7818608E-02  0.9582632E-01
         -2   -1    0    0    0  501 -0.00000000000E+00  0.00000000000E+00  0.31699207284E+03  0.31699207285E+03  0.25500000000E-02 0.  1.
          2   -1    0    0  501    0  0.00000000000E+00 -0.00000000000E+00 -0.26916742861E+04  0.26916742861E+04  0.25500000000E-02 0. -1.
    8880023    1    1    2    0    0 -0.93660964862E+02 -0.55472156908E+03 -0.22520884332E+04  0.24129237271E+04  0.65864270000E+03 0. -1.
    8880022    1    1    2    0    0  0.93660964862E+02  0.55472156908E+03 -0.12259378012E+03  0.59574263191E+03  0.15294330000E+03 0.  0.
<mgrwt>
<rscale>  0 0.78456424E+03</rscale>
<asrwt>0</asrwt>
<pdfrwt beam="1">  1        2 0.41410372E+00 0.86619778E+03</pdfrwt>
<pdfrwt beam="2">  1       -2 0.48768013E-01 0.86619778E+03</pdfrwt>
<totfact> 0.11063489E+01</totfact>
</mgrwt>
</event>
<event>
 4    1  0.8287789E-007  0.9031823E+03  0.7818608E-02  0.9520942E-01
         -2   -1    0    0    0  501 -0.00000000000E+00  0.00000000000E+00  0.64473468160E+03  0.64473468160E+03  0.25500000000E-02 0.  1.
          2   -1    0    0  501    0  0.00000000000E+00 -0.00000000000E+00 -0.10733200508E+04  0.10733200508E+04  0.25500000000E-02 0. -1.
    8880023    1    1    2    0    0 -0.68989696524E+02  0.61414038009E+03  0.75037370345E+02  0.90629399088E+03  0.65864270000E+03 0.  0.
    8880022    1    1    2    0    0  0.68989696524E+02 -0.61414038009E+03 -0.50362273956E+03  0.81176074154E+03  0.15294330000E+03 0.  0.
<mgrwt>
<rscale>  0 0.82757289E+03</rscale>
<asrwt>0</asrwt>
<pdfrwt beam="1">  1        2 0.16512616E+00 0.90318226E+03</pdfrwt>
<pdfrwt beam="2">  1       -2 0.99189951E-01 0.90318226E+03</pdfrwt>
<totfact> 0.19101863E+01</totfact>
</mgrwt>
</event>
<event>
 4    1  0.8287789E-007  0.8116451E+03  0.7818608E-02  0.9686160E-01
         -2   -1    0    0    0  501 -0.00000000000E+00  0.00000000000E+00  0.76139439316E+03  0.76139439317E+03  0.25500000000E-02 0.  1.
          2   -1    0    0  501    0  0.00000000000E+00 -0.00000000000E+00 -0.88876001490E+03  0.88876001491E+03  0.25500000000E-02 0. -1.
    8880023    1    1    2    0    0 -0.68223695756E+02  0.46936459146E+03 -0.56336569354E+03  0.98800238021E+03  0.65864270000E+03 0.  0.
    8880022    1    1    2    0    0  0.68223695756E+02 -0.46936459146E+03  0.43600007180E+03  0.66215202786E+03  0.15294330000E+03 0.  0.
<mgrwt>
<rscale>  0 0.71846810E+03</rscale>
<asrwt>0</asrwt>
<pdfrwt beam="1">  1        2 0.13673231E+00 0.81164512E+03</pdfrwt>
<pdfrwt beam="2">  1       -2 0.11713760E+00 0.81164512E+03</pdfrwt>
<totfact> 0.16976981E+01</totfact>
</mgrwt>
</event>
<event>
 4    1  0.8287789E-007  0.6612057E+03  0.7818608E-02  0.1022954E+00
         -2   -1    0    0    0  501 -0.00000000000E+00  0.00000000000E+00  0.23556585000E+03  0.23556585002E+03  0.25500000000E-02 0.  1.
          2   -1    0    0  501    0  0.00000000000E+00 -0.00000000000E+00 -0.10515007849E+04  0.10515007849E+04  0.25500000000E-02 0. -1.
    8880023    1    1    2    0    0  0.31587475043E+02 -0.48836862413E+02 -0.88894497031E+03  0.11078881596E+04  0.65864270000E+03 0. -1.
    8880022    1    1    2    0    0 -0.31587475043E+02  0.48836862413E+02  0.73010035446E+02  0.17917847527E+03  0.15294330000E+03 0.  0.
<mgrwt>
<rscale>  0 0.46635598E+03</rscale>
<asrwt>0</asrwt>
<pdfrwt beam="1">  1        2 0.16176935E+00 0.66120573E+03</pdfrwt>
<pdfrwt beam="2">  1       -2 0.36240900E-01 0.66120573E+03</pdfrwt>
<totfact> 0.17026436E+02</totfact>
</mgrwt>
</event>
<event>
 4    1  0.8287789E-007  0.7256207E+03  0.7818608E-02  0.9904007E-01
          2   -1    0    0  501    0  0.00000000000E+00  0.00000000000E+00  0.17127236317E+04  0.17127236317E+04  0.25500000000E-02 0. -1.
         -2   -1    0    0    0  501 -0.00000000000E+00 -0.00000000000E+00 -0.19039588758E+03  0.19039588760E+03  0.25500000000E-02 0.  1.
    8880023    1    1    2    0    0 -0.10380856949E+03  0.28624994251E+03  0.13214628037E+04  0.15075773268E+04  0.65864270000E+03 0.  0.
    8880022    1    1    2    0    0  0.10380856949E+03 -0.28624994251E+03  0.20086494043E+03  0.39554219244E+03  0.15294330000E+03 0.  0.
<mgrwt>
<rscale>  0 0.60067495E+03</rscale>
<asrwt>0</asrwt>
<pdfrwt beam="1">  1        2 0.26349595E+00 0.72562074E+03</pdfrwt>
<pdfrwt beam="2">  1       -2 0.29291674E-01 0.72562074E+03</pdfrwt>
<totfact> 0.10582135E+02</totfact>
</mgrwt>
</event>
<event>
 4    1  0.8287789E-007  0.7373038E+03  0.7818608E-02  0.9867872E-01
          2   -1    0    0  501    0  0.00000000000E+00  0.00000000000E+00  0.12076828869E+04  0.12076828869E+04  0.25500000000E-02 0. -1.
         -2   -1    0    0    0  501 -0.00000000000E+00 -0.00000000000E+00 -0.10304667663E+04  0.10304667663E+04  0.25500000000E-02 0.  1.
    8880023    1    1    2    0    0 -0.29770112005E+03  0.14553621489E+03  0.10552356171E+04  0.12872991729E+04  0.65864270000E+03 0. -1.
    8880022    1    1    2    0    0  0.29770112005E+03 -0.14553621489E+03 -0.87801949647E+03  0.95085048032E+03  0.15294330000E+03 0.  0.
<mgrwt>
<rscale>  0 0.61843954E+03</rscale>
<asrwt>0</asrwt>
<pdfrwt beam="1">  1        2 0.18579737E+00 0.73730384E+03</pdfrwt>
<pdfrwt beam="2">  1       -2 0.15853335E+00 0.73730384E+03</pdfrwt>
<totfact> 0.49566334E+00</totfact>
</mgrwt>
</event>
<event>
 4    1  0.8287789E-007  0.7475128E+03  0.7818608E-02  0.9838579E-01
          2   -1    0    0  501    0  0.00000000000E+00  0.00000000000E+00  0.22306962781E+04  0.22306962781E+04  0.25500000000E-02 0. -1.
         -2   -1    0    0    0  501 -0.00000000000E+00 -0.00000000000E+00 -0.48328479760E+03  0.48328479761E+03  0.25500000000E-02 0.  1.
    8880023    1    1    2    0    0 -0.33589862175E+02  0.35190469073E+03  0.20767633232E+04  0.22071976117E+04  0.65864270000E+03 0. -1.
    8880022    1    1    2    0    0  0.33589862175E+02 -0.35190469073E+03 -0.32935184264E+03  0.50678346408E+03  0.15294330000E+03 0.  0.
<mgrwt>
<rscale>  0 0.63332616E+03</rscale>
<asrwt>0</asrwt>
<pdfrwt beam="1">  1        2 0.34318405E+00 0.74751281E+03</pdfrwt>
<pdfrwt beam="2">  1       -2 0.74351506E-01 0.74751281E+03</pdfrwt>
<totfact> 0.84161983E+00</totfact>
</mgrwt>
</event>
<event>
 4    1  0.8287789E-007  0.7736427E+03  0.7818608E-02  0.9770988E-01
         -2   -1    0    0    0  501 -0.00000000000E+00  0.00000000000E+00  0.19806714371E+04  0.19806714371E+04  0.25500000000E-02 0.  1.
          2   -1    0    0  501    0  0.00000000000E+00 -0.00000000000E+00 -0.44165106910E+03  0.44165106911E+03  0.25500000000E-02 0. -1.
    8880023    1    1    2    0    0 -0.39762241012E+03 -0.81297590732E+02 -0.49921900114E+02  0.77525175373E+03  0.65864270000E+03 0. -1.
    8880022    1    1    2    0    0  0.39762241012E+03  0.81297590732E+02  0.15889422681E+04  0.16470707525E+04  0.15294330000E+03 0.  0.
<mgrwt>
<rscale>  0 0.66943012E+03</rscale>
<asrwt>0</asrwt>
<pdfrwt beam="1">  1        2 0.67946317E-01 0.77364274E+03</pdfrwt>
<pdfrwt beam="2">  1       -2 0.30471869E+00 0.77364274E+03</pdfrwt>
<totfact> 0.21943413E+00</totfact>
</mgrwt>
</event>
<event>
 4    1  0.8287789E-007  0.7194994E+03  0.7818608E-02  0.9924283E-01
         -2   -1    0    0    0  501 -0.00000000000E+00  0.00000000000E+00  0.17247594146E+03  0.17247594148E+03  0.25500000000E-02 0.  1.
          2   -1    0    0  501    0  0.00000000000E+00 -0.00000000000E+00 -0.32810184467E+04  0.32810184467E+04  0.25500000000E-02 0. -1.
    8880023    1    1    2    0    0  0.21906103874E+03 -0.18942409824E+03 -0.30332868945E+04  0.31174522961E+04  0.65864270000E+03 0. -1.
    8880022    1    1    2    0    0 -0.21906103874E+03  0.18942409824E+03 -0.75255610708E+02  0.33604209208E+03  0.15294330000E+03 0.  0.
<mgrwt>
<rscale>  0 0.59098711E+03</rscale>
<asrwt>0</asrwt>
<pdfrwt beam="1">  1        2 0.50477202E+00 0.71949943E+03</pdfrwt>
<pdfrwt beam="2">  1       -2 0.26534763E-01 0.71949943E+03</pdfrwt>
<totfact> 0.15860566E+01</totfact>
</mgrwt>
</event>
<event>
 4    1  0.8287789E-007  0.7662982E+03  0.7818608E-02  0.9789067E-01
         -2   -1    0    0    0  501 -0.00000000000E+00  0.00000000000E+00  0.25466085183E+03  0.25466085184E+03  0.25500000000E-02 0.  1.
          2   -1    0    0  501    0  0.00000000000E+00 -0.00000000000E+00 -0.20331158299E+04  0.20331158299E+04  0.25500000000E-02 0. -1.
    8880023    1    1    2    0    0  0.28992544535E+03 -0.26333622927E+03 -0.16935084388E+04  0.18588124629E+04  0.65864270000E+03 0.  0.
    8880022    1    1    2    0    0 -0.28992544535E+03  0.26333622927E+03 -0.84946539223E+02  0.42896421884E+03  0.15294330000E+03 0.  1.
<mgrwt>
<rscale>  0 0.65952599E+03</rscale>
<asrwt>0</asrwt>
<pdfrwt beam="1">  1        2 0.31278704E+00 0.76629821E+03</pdfrwt>
<pdfrwt beam="2">  1       -2 0.39178594E-01 0.76629821E+03</pdfrwt>
<totfact> 0.40608346E+01</totfact>
</mgrwt>
</event>
<event>
 4    1  0.8287789E-007  0.6942915E+03  0.7818608E-02  0.1002176E+00
          2   -1    0    0  501    0  0.00000000000E+00  0.00000000000E+00  0.93808369582E+03  0.93808369582E+03  0.25500000000E-02 0. -1.
         -2   -1    0    0    0  501 -0.00000000000E+00 -0.00000000000E+00 -0.33906162351E+03  0.33906162352E+03  0.25500000000E-02 0.  1.
    8880023    1    1    2    0    0  0.27508585874E+02 -0.21788486486E+03  0.70483797703E+03  0.98936207567E+03  0.65864270000E+03 0. -1.
    8880022    1    1    2    0    0 -0.27508585874E+02  0.21788486486E+03 -0.10581590473E+03  0.28778324368E+03  0.15294330000E+03 0.  0.
<mgrwt>
<rscale>  0 0.54706301E+03</rscale>
<asrwt>0</asrwt>
<pdfrwt beam="1">  1        2 0.14432056E+00 0.69429154E+03</pdfrwt>
<pdfrwt beam="2">  1       -2 0.52163328E-01 0.69429154E+03</pdfrwt>
<totfact> 0.97587711E+01</totfact>
</mgrwt>
</event>
<event>
 4    1  0.8287789E-007  0.8219696E+03  0.7818608E-02  0.9665164E-01
          2   -1    0    0  501    0  0.00000000000E+00  0.00000000000E+00  0.22514225928E+04  0.22514225928E+04  0.25500000000E-02 0. -1.
         -2   -1    0    0    0  501 -0.00000000000E+00 -0.00000000000E+00 -0.54237582847E+03  0.54237582848E+03  0.25500000000E-02 0.  1.
    8880023    1    1    2    0    0  0.29990288632E+03  0.38972045348E+03  0.20278567603E+04  0.21881126615E+04  0.65864270000E+03 0. -1.
    8880022    1    1    2    0    0 -0.29990288632E+03 -0.38972045348E+03 -0.31880999592E+03  0.60568575977E+03  0.15294330000E+03 0.  0.
<mgrwt>
<rscale>  0 0.73129340E+03</rscale>
<asrwt>0</asrwt>
<pdfrwt beam="1">  1        2 0.34637271E+00 0.82196957E+03</pdfrwt>
<pdfrwt beam="2">  1       -2 0.83442434E-01 0.82196957E+03</pdfrwt>
<totfact> 0.62549826E+00</totfact>
</mgrwt>
</event>
<event>
 4    1  0.8287789E-007  0.9233913E+03  0.7818608E-02  0.9489479E-01
          2   -1    0    0  501    0  0.00000000000E+00  0.00000000000E+00  0.95869423187E+03  0.95869423188E+03  0.25500000000E-02 0. -1.
         -2   -1    0    0    0  501 -0.00000000000E+00 -0.00000000000E+00 -0.11380012378E+04  0.11380012378E+04  0.25500000000E-02 0.  1.
    8880023    1    1    2    0    0 -0.36408686643E+03  0.53505323038E+03  0.57759351651E+03  0.10891582448E+04  0.65864270000E+03 0.  0.
    8880022    1    1    2    0    0  0.36408686643E+03 -0.53505323038E+03 -0.75690052248E+03  0.10075372249E+04  0.15294330000E+03 0.  0.
<mgrwt>
<rscale>  0 0.85063979E+03</rscale>
<asrwt>0</asrwt>
<pdfrwt beam="1">  1        2 0.14749142E+00 0.92339126E+03</pdfrwt>
<pdfrwt beam="2">  1       -2 0.17507711E+00 0.92339126E+03</pdfrwt>
<totfact> 0.52539660E+00</totfact>
</mgrwt>
</event>
<event>
 4    1  0.8287789E-007  0.9662004E+03  0.7818608E-02  0.9427179E-01
         -2   -1    0    0    0  501 -0.00000000000E+00  0.00000000000E+00  0.12254668560E+04  0.12254668560E+04  0.25500000000E-02 0.  1.
          2   -1    0    0  501    0  0.00000000000E+00 -0.00000000000E+00 -0.14983580878E+04  0.14983580878E+04  0.25500000000E-02 0. -1.
    8880023    1    1    2    0    0 -0.29329707419E+03 -0.64320276677E+03 -0.12046730121E+04  0.15442733713E+04  0.65864270000E+03 0.  0.
    8880022    1    1    2    0    0  0.29329707419E+03  0.64320276677E+03  0.93178178037E+03  0.11795515725E+04  0.15294330000E+03 0.  0.
<mgrwt>
<rscale>  0 0.89872340E+03</rscale>
<asrwt>0</asrwt>
<pdfrwt beam="1">  1        2 0.23051663E+00 0.96620038E+03</pdfrwt>
<pdfrwt beam="2">  1       -2 0.18853336E+00 0.96620038E+03</pdfrwt>
<totfact> 0.20119331E+00</totfact>
</mgrwt>
</event>
<event>
 4    1  0.8287789E-007  0.7017495E+03  0.7818608E-02  0.9990020E-01
         -2   -1    0    0    0  501 -0.00000000000E+00  0.00000000000E+00  0.30899079080E+03  0.30899079081E+03  0.25500000000E-02 0.  1.
          2   -1    0    0  501    0  0.00000000000E+00 -0.00000000000E+00 -0.17217563337E+04  0.17217563337E+04  0.25500000000E-02 0. -1.
    8880023    1    1    2    0    0 -0.22214757371E+03  0.96398227336E+02 -0.15586347883E+04  0.17093258239E+04  0.65864270000E+03 0. -1.
    8880022    1    1    2    0    0  0.22214757371E+03 -0.96398227336E+02  0.14586924538E+03  0.32142130063E+03  0.15294330000E+03 0.  0.
<mgrwt>
<rscale>  0 0.56090034E+03</rscale>
<asrwt>0</asrwt>
<pdfrwt beam="1">  1        2 0.26488558E+00 0.70174951E+03</pdfrwt>
<pdfrwt beam="2">  1       -2 0.47537046E-01 0.70174951E+03</pdfrwt>
<totfact> 0.41273166E+01</totfact>
</mgrwt>
</event>
<event>
 4    1  0.8287789E-007  0.7248584E+03  0.7818608E-02  0.9906477E-01
          2   -1    0    0  501    0  0.00000000000E+00  0.00000000000E+00  0.31277519276E+04  0.31277519276E+04  0.25500000000E-02 0. -1.
         -2   -1    0    0    0  501 -0.00000000000E+00 -0.00000000000E+00 -0.21016537701E+03  0.21016537703E+03  0.25500000000E-02 0.  1.
    8880023    1    1    2    0    0  0.24717342091E+03  0.17468478041E+03  0.29097831967E+04  0.29987093775E+04  0.65864270000E+03 0.  0.
    8880022    1    1    2    0    0 -0.24717342091E+03 -0.17468478041E+03  0.78033539113E+01  0.33920792717E+03  0.15294330000E+03 0.  0.
<mgrwt>
<rscale>  0 0.59948406E+03</rscale>
<asrwt>0</asrwt>
<pdfrwt beam="1">  1        2 0.48119256E+00 0.72485839E+03</pdfrwt>
<pdfrwt beam="2">  1       -2 0.32333138E-01 0.72485839E+03</pdfrwt>
<totfact> 0.13766635E+01</totfact>
</mgrwt>
</event>
<event>
 4    1  0.8287789E-007  0.8178325E+03  0.7818608E-02  0.9673487E-01
         -2   -1    0    0    0  501 -0.00000000000E+00  0.00000000000E+00  0.67050648615E+03  0.67050648616E+03  0.25500000000E-02 0.  1.
          2   -1    0    0  501    0  0.00000000000E+00 -0.00000000000E+00 -0.10475808892E+04  0.10475808892E+04  0.25500000000E-02 0. -1.
    8880023    1    1    2    0    0  0.14458536402E+03 -0.46274701496E+03 -0.73240986581E+03  0.10978497826E+04  0.65864270000E+03 0. -1.
    8880022    1    1    2    0    0 -0.14458536402E+03  0.46274701496E+03  0.35533546277E+03  0.62023759275E+03  0.15294330000E+03 0.  0.
<mgrwt>
<rscale>  0 0.72617520E+03</rscale>
<asrwt>0</asrwt>
<pdfrwt beam="1">  1        2 0.16116629E+00 0.81783246E+03</pdfrwt>
<pdfrwt beam="2">  1       -2 0.10315484E+00 0.81783246E+03</pdfrwt>
<totfact> 0.18198945E+01</totfact>
</mgrwt>
</event>
<event>
 4    1  0.8287789E-007  0.7717186E+03  0.7818608E-02  0.9775662E-01
         -2   -1    0    0    0  501 -0.00000000000E+00  0.00000000000E+00  0.41510456345E+03  0.41510456346E+03  0.25500000000E-02 0.  1.
          2   -1    0    0  501    0  0.00000000000E+00 -0.00000000000E+00 -0.17498266326E+04  0.17498266326E+04  0.25500000000E-02 0. -1.
    8880023    1    1    2    0    0  0.39949700286E+03 -0.46277370043E+02 -0.15135845682E+04  0.16989667159E+04  0.65864270000E+03 0. -1.
    8880022    1    1    2    0    0 -0.39949700286E+03  0.46277370043E+02  0.17886249901E+03  0.46596448023E+03  0.15294330000E+03 0.  0.
<mgrwt>
<rscale>  0 0.66685155E+03</rscale>
<asrwt>0</asrwt>
<pdfrwt beam="1">  1        2 0.26920409E+00 0.77171864E+03</pdfrwt>
<pdfrwt beam="2">  1       -2 0.63862241E-01 0.77171864E+03</pdfrwt>
<totfact> 0.21400660E+01</totfact>
</mgrwt>
</event>
<event>
 4    1  0.8287789E-007  0.9400359E+03  0.7818608E-02  0.9464598E-01
          2   -1    0    0  501    0  0.00000000000E+00  0.00000000000E+00  0.43136250449E+04  0.43136250449E+04  0.25500000000E-02 0. -1.
         -2   -1    0    0    0  501 -0.00000000000E+00 -0.00000000000E+00 -0.28085265187E+03  0.28085265188E+03  0.25500000000E-02 0.  1.
    8880023    1    1    2    0    0  0.62938391613E+03 -0.23180421648E+03  0.37233142683E+04  0.38401479992E+04  0.65864270000E+03 0.  0.
    8880022    1    1    2    0    0 -0.62938391613E+03  0.23180421648E+03  0.30945812465E+03  0.75432969754E+03  0.15294330000E+03 0.  0.
<mgrwt>
<rscale>  0 0.86944986E+03</rscale>
<asrwt>0</asrwt>
<pdfrwt beam="1">  1        2 0.66363458E+00 0.94003591E+03</pdfrwt>
<pdfrwt beam="2">  1       -2 0.43208103E-01 0.94003591E+03</pdfrwt>
<totfact> 0.10117600E+00</totfact>
</mgrwt>
</event>
<event>
 4    1  0.8287789E-007  0.1213919E+04  0.7818608E-02  0.9143710E-01
          2   -1    0    0  501    0  0.00000000000E+00  0.00000000000E+00  0.13847532001E+04  0.13847532001E+04  0.25500000000E-02 0. -1.
         -2   -1    0    0    0  501 -0.00000000000E+00 -0.00000000000E+00 -0.11696188008E+04  0.11696188008E+04  0.25500000000E-02 0.  1.
    8880023    1    1    2    0    0 -0.77656361449E+03  0.66086120389E+03 -0.48586802553E+03  0.13075421686E+04  0.65864270000E+03 0.  0.
    8880022    1    1    2    0    0  0.77656361449E+03 -0.66086120389E+03  0.70100242478E+03  0.12468298323E+04  0.15294330000E+03 0.  0.
<mgrwt>
<rscale>  0 0.11653814E+04</rscale>
<asrwt>0</asrwt>
<pdfrwt beam="1">  1        2 0.21303895E+00 0.12139188E+04</pdfrwt>
<pdfrwt beam="2">  1       -2 0.17994135E+00 0.12139188E+04</pdfrwt>
<totfact> 0.25974897E+00</totfact>
</mgrwt>
</event>
<event>
 4    1  0.8287789E-007  0.1000217E+04  0.7818608E-02  0.9381274E-01
          2   -1    0    0  501    0  0.00000000000E+00  0.00000000000E+00  0.99114187168E+03  0.99114187168E+03  0.25500000000E-02 0. -1.
         -2   -1    0    0    0  501 -0.00000000000E+00 -0.00000000000E+00 -0.11919526987E+04  0.11919526987E+04  0.25500000000E-02 0.  1.
    8880023    1    1    2    0    0  0.72927643230E+03 -0.18649094002E+03  0.52210562043E+03  0.11282851903E+04  0.65864270000E+03 0. -1.
    8880022    1    1    2    0    0 -0.72927643230E+03  0.18649094002E+03 -0.72291644750E+03  0.10548093802E+04  0.15294330000E+03 0.  0.
<mgrwt>
<rscale>  0 0.93632880E+03</rscale>
<asrwt>0</asrwt>
<pdfrwt beam="1">  1        2 0.15248336E+00 0.10002166E+04</pdfrwt>
<pdfrwt beam="2">  1       -2 0.18337734E+00 0.10002166E+04</pdfrwt>
<totfact> 0.43492193E+00</totfact>
</mgrwt>
</event>
<event>
 4    1  0.8287789E-007  0.6672124E+03  0.7818608E-02  0.1017745E+00
          2   -1    0    0  501    0  0.00000000000E+00  0.00000000000E+00  0.41279831426E+03  0.41279831427E+03  0.25500000000E-02 0. -1.
         -2   -1    0    0    0  501 -0.00000000000E+00 -0.00000000000E+00 -0.91109738739E+03  0.91109738739E+03  0.25500000000E-02 0.  1.
    8880023    1    1    2    0    0 -0.89245584051E+02  0.58286925650E+02  0.12016382406E+03  0.67794667257E+03  0.65864270000E+03 0. -1.
    8880022    1    1    2    0    0  0.89245584051E+02 -0.58286925650E+02 -0.61846289718E+03  0.64594902909E+03  0.15294330000E+03 0.  0.
<mgrwt>
<rscale>  0 0.48509114E+03</rscale>
<asrwt>0</asrwt>
<pdfrwt beam="1">  1        2 0.63507433E-01 0.66721237E+03</pdfrwt>
<pdfrwt beam="2">  1       -2 0.14016883E+00 0.66721237E+03</pdfrwt>
<totfact> 0.27998603E+01</totfact>
</mgrwt>
</event>
<event>
 4    1  0.8287789E-007  0.7625581E+03  0.7818608E-02  0.9798529E-01
          2   -1    0    0  501    0  0.00000000000E+00  0.00000000000E+00  0.56719235855E+03  0.56719235855E+03  0.25500000000E-02 0. -1.
         -2   -1    0    0    0  501 -0.00000000000E+00 -0.00000000000E+00 -0.69643866858E+03  0.69643866859E+03  0.25500000000E-02 0.  1.
    8880023    1    1    2    0    0  0.22039912027E+03  0.31481557091E+03  0.13274136986E+03  0.77402525375E+03  0.65864270000E+03 0. -1.
    8880022    1    1    2    0    0 -0.22039912027E+03 -0.31481557091E+03 -0.26198767989E+03  0.48960577339E+03  0.15294330000E+03 0. -1.
<mgrwt>
<rscale>  0 0.65441526E+03</rscale>
<asrwt>0</asrwt>
<pdfrwt beam="1">  1        2 0.87260363E-01 0.76255808E+03</pdfrwt>
<pdfrwt beam="2">  1       -2 0.10714441E+00 0.76255808E+03</pdfrwt>
<totfact> 0.37581735E+01</totfact>
</mgrwt>
</event>
<event>
 4    1  0.8287789E-007  0.1022570E+04  0.7818608E-02  0.9352608E-01
          2   -1    0    0  501    0  0.00000000000E+00  0.00000000000E+00  0.19186717582E+04  0.19186717582E+04  0.25500000000E-02 0. -1.
         -2   -1    0    0    0  501 -0.00000000000E+00 -0.00000000000E+00 -0.51389226256E+03  0.51389226257E+03  0.25500000000E-02 0.  1.
    8880023    1    1    2    0    0  0.64389073881E+03  0.44412056788E+03  0.12596301704E+04  0.16224415967E+04  0.65864270000E+03 0.  0.
    8880022    1    1    2    0    0 -0.64389073881E+03 -0.44412056788E+03  0.14514932526E+03  0.81012242407E+03  0.15294330000E+03 0.  0.
<mgrwt>
<rscale>  0 0.96080672E+03</rscale>
<asrwt>0</asrwt>
<pdfrwt beam="1">  1        2 0.29518027E+00 0.10225696E+04</pdfrwt>
<pdfrwt beam="2">  1       -2 0.79060349E-01 0.10225696E+04</pdfrwt>
<totfact> 0.10511450E+01</totfact>
</mgrwt>
</event>
<event>
 4    1  0.8287789E-007  0.7064191E+03  0.7818608E-02  0.9971547E-01
         -2   -1    0    0    0  501 -0.00000000000E+00  0.00000000000E+00  0.56644543745E+03  0.56644543746E+03  0.25500000000E-02 0.  1.
          2   -1    0    0  501    0  0.00000000000E+00 -0.00000000000E+00 -0.12320539336E+04  0.12320539336E+04  0.25500000000E-02 0. -1.
    8880023    1    1    2    0    0  0.10610534777E+03  0.23229160472E+03 -0.10786409040E+04  0.12893774236E+04  0.65864270000E+03 0. -1.
    8880022    1    1    2    0    0 -0.10610534777E+03 -0.23229160472E+03  0.41303240784E+03  0.50912194746E+03  0.15294330000E+03 0.  0.
<mgrwt>
<rscale>  0 0.56915662E+03</rscale>
<asrwt>0</asrwt>
<pdfrwt beam="1">  1        2 0.18954676E+00 0.70641910E+03</pdfrwt>
<pdfrwt beam="2">  1       -2 0.87145452E-01 0.70641910E+03</pdfrwt>
<totfact> 0.21138982E+01</totfact>
</mgrwt>
</event>
<event>
 4    1  0.8287789E-007  0.6968243E+03  0.7818608E-02  0.1001064E+00
          2   -1    0    0  501    0  0.00000000000E+00  0.00000000000E+00  0.13036592447E+04  0.13036592447E+04  0.25500000000E-02 0. -1.
         -2   -1    0    0    0  501 -0.00000000000E+00 -0.00000000000E+00 -0.51734689253E+03  0.51734689253E+03  0.25500000000E-02 0.  1.
    8880023    1    1    2    0    0 -0.20811079940E+03 -0.91890458558E+02  0.11626121564E+04  0.13554450168E+04  0.65864270000E+03 0. -1.
    8880022    1    1    2    0    0  0.20811079940E+03  0.91890458558E+02 -0.37629980420E+03  0.46556112043E+03  0.15294330000E+03 0.  0.
<mgrwt>
<rscale>  0 0.55186194E+03</rscale>
<asrwt>0</asrwt>
<pdfrwt beam="1">  1        2 0.20056296E+00 0.69682434E+03</pdfrwt>
<pdfrwt beam="2">  1       -2 0.79591831E-01 0.69682434E+03</pdfrwt>
<totfact> 0.23619880E+01</totfact>
</mgrwt>
</event>
<event>
 4    1  0.8287789E-007  0.9947858E+03  0.7818608E-02  0.9388411E-01
         -2   -1    0    0    0  501 -0.00000000000E+00  0.00000000000E+00  0.15244947740E+04  0.15244947740E+04  0.25500000000E-02 0.  1.
          2   -1    0    0  501    0  0.00000000000E+00 -0.00000000000E+00 -0.62820179218E+03  0.62820179218E+03  0.25500000000E-02 0. -1.
    8880023    1    1    2    0    0  0.33052300806E+03 -0.66823882596E+03  0.96832662839E+03  0.13882561914E+04  0.65864270000E+03 0.  1.
    8880022    1    1    2    0    0 -0.33052300806E+03  0.66823882596E+03 -0.72033646579E+02  0.76444037480E+03  0.15294330000E+03 0.  0.
<mgrwt>
<rscale>  0 0.93035544E+03</rscale>
<asrwt>0</asrwt>
<pdfrwt beam="1">  1        2 0.96646430E-01 0.99478580E+03</pdfrwt>
<pdfrwt beam="2">  1       -2 0.23453766E+00 0.99478580E+03</pdfrwt>
<totfact> 0.37466823E+00</totfact>
</mgrwt>
</event>
<event>
 4    1  0.8287789E-007  0.7153344E+03  0.7818608E-02  0.9938701E-01
         -2   -1    0    0    0  501 -0.00000000000E+00  0.00000000000E+00  0.10687225766E+03  0.10687225769E+03  0.25500000000E-02 0.  1.
          2   -1    0    0  501    0  0.00000000000E+00 -0.00000000000E+00 -0.28160260842E+04  0.28160260842E+04  0.25500000000E-02 0. -1.
    8880023    1    1    2    0    0  0.27160060121E+03 -0.64235938067E+02 -0.22734985617E+04  0.23833797555E+04  0.65864270000E+03 0. -1.
    8880022    1    1    2    0    0 -0.27160060121E+03  0.64235938067E+02 -0.43565526480E+03  0.53951858641E+03  0.15294330000E+03 0.  0.
<mgrwt>
<rscale>  0 0.58421793E+03</rscale>
<asrwt>0</asrwt>
<pdfrwt beam="1">  1        2 0.43323473E+00 0.71533443E+03</pdfrwt>
<pdfrwt beam="2">  1       -2 0.16441888E-01 0.71533443E+03</pdfrwt>
<totfact> 0.71393405E+01</totfact>
</mgrwt>
</event>
<event>
 4    1  0.8287789E-007  0.7146994E+03  0.7818608E-02  0.9940947E-01
         -2   -1    0    0    0  501 -0.00000000000E+00  0.00000000000E+00  0.91173530120E+03  0.91173530120E+03  0.25500000000E-02 0.  1.
          2   -1    0    0  501    0  0.00000000000E+00 -0.00000000000E+00 -0.46400843372E+03  0.46400843372E+03  0.25500000000E-02 0. -1.
    8880023    1    1    2    0    0 -0.20336568398E+03  0.18875213674E+03 -0.12085976346E+03  0.72484636940E+03  0.65864270000E+03 0. -1.
    8880022    1    1    2    0    0  0.20336568398E+03 -0.18875213674E+03  0.56858663095E+03  0.65089736553E+03  0.15294330000E+03 0.  0.
<mgrwt>
<rscale>  0 0.58317194E+03</rscale>
<asrwt>0</asrwt>
<pdfrwt beam="1">  1        2 0.71385913E-01 0.71469936E+03</pdfrwt>
<pdfrwt beam="2">  1       -2 0.14026697E+00 0.71469936E+03</pdfrwt>
<totfact> 0.24373260E+01</totfact>
</mgrwt>
</event>
<event>
 4    1  0.8287789E-007  0.6929160E+03  0.7818608E-02  0.1002796E+00
         -2   -1    0    0    0  501 -0.00000000000E+00  0.00000000000E+00  0.46084254379E+03  0.46084254380E+03  0.25500000000E-02 0.  1.
          2   -1    0    0  501    0  0.00000000000E+00 -0.00000000000E+00 -0.71917443629E+03  0.71917443630E+03  0.25500000000E-02 0. -1.
    8880023    1    1    2    0    0  0.18186671471E+03 -0.11509505174E+03 -0.47363880177E+03  0.83932490351E+03  0.65864270000E+03 0.  0.
    8880022    1    1    2    0    0 -0.18186671471E+03  0.11509505174E+03  0.21530690927E+03  0.34069207659E+03  0.15294330000E+03 0.  0.
<mgrwt>
<rscale>  0 0.54440921E+03</rscale>
<asrwt>0</asrwt>
<pdfrwt beam="1">  1        2 0.11064222E+00 0.69291600E+03</pdfrwt>
<pdfrwt beam="2">  1       -2 0.70898853E-01 0.69291600E+03</pdfrwt>
<totfact> 0.72756366E+01</totfact>
</mgrwt>
</event>
<event>
 4    1  0.8287789E-007  0.7855984E+03  0.7818608E-02  0.9742847E-01
         -2   -1    0    0    0  501 -0.00000000000E+00  0.00000000000E+00  0.70756432834E+03  0.70756432834E+03  0.25500000000E-02 0.  1.
          2   -1    0    0  501    0  0.00000000000E+00 -0.00000000000E+00 -0.88687372226E+03  0.88687372227E+03  0.25500000000E-02 0. -1.
    8880023    1    1    2    0    0  0.23686561052E+03 -0.35672018856E+03 -0.58940925725E+03  0.98212427379E+03  0.65864270000E+03 0.  0.
    8880022    1    1    2    0    0 -0.23686561052E+03  0.35672018856E+03  0.41009986332E+03  0.61231377682E+03  0.15294330000E+03 0.  0.
<mgrwt>
<rscale>  0 0.68522018E+03</rscale>
<asrwt>0</asrwt>
<pdfrwt beam="1">  1        2 0.13644211E+00 0.78559838E+03</pdfrwt>
<pdfrwt beam="2">  1       -2 0.10885605E+00 0.78559838E+03</pdfrwt>
<totfact> 0.20407306E+01</totfact>
</mgrwt>
</event>
<event>
 4    1  0.8287789E-007  0.7004238E+03  0.7818608E-02  0.9995447E-01
          2   -1    0    0  501    0  0.00000000000E+00  0.00000000000E+00  0.23124536036E+04  0.23124536036E+04  0.25500000000E-02 0. -1.
         -2   -1    0    0    0  501 -0.00000000000E+00 -0.00000000000E+00 -0.27602497874E+03  0.27602497875E+03  0.25500000000E-02 0.  1.
    8880023    1    1    2    0    0 -0.17121234742E+03  0.16573977566E+03  0.21664787626E+04  0.22768890567E+04  0.65864270000E+03 0. -1.
    8880022    1    1    2    0    0  0.17121234742E+03 -0.16573977566E+03 -0.13005013781E+03  0.31158952566E+03  0.15294330000E+03 0.  0.
<mgrwt>
<rscale>  0 0.55850306E+03</rscale>
<asrwt>0</asrwt>
<pdfrwt beam="1">  1        2 0.35576211E+00 0.70042383E+03</pdfrwt>
<pdfrwt beam="2">  1       -2 0.42465379E-01 0.70042383E+03</pdfrwt>
<totfact> 0.24569697E+01</totfact>
</mgrwt>
</event>
<event>
 4    1  0.8287789E-007  0.6594086E+03  0.7818608E-02  0.1024771E+00
         -2   -1    0    0    0  501 -0.00000000000E+00  0.00000000000E+00  0.74450715110E+03  0.74450715111E+03  0.25500000000E-02 0.  1.
          2   -1    0    0  501    0  0.00000000000E+00 -0.00000000000E+00 -0.64100464966E+03  0.64100464966E+03  0.25500000000E-02 0. -1.
    8880023    1    1    2    0    0 -0.17646066019E+02 -0.26421578741E+02 -0.45788659914E+03  0.80279500958E+03  0.65864270000E+03 0. -1.
    8880022    1    1    2    0    0  0.17646066019E+02  0.26421578741E+02  0.56138910058E+03  0.58271679119E+03  0.15294330000E+03 0.  0.
<mgrwt>
<rscale>  0 0.46003641E+03</rscale>
<asrwt>0</asrwt>
<pdfrwt beam="1">  1        2 0.98616100E-01 0.65940859E+03</pdfrwt>
<pdfrwt beam="2">  1       -2 0.11453956E+00 0.65940859E+03</pdfrwt>
<totfact> 0.27822345E+01</totfact>
</mgrwt>
</event>
<event>
 4    1  0.8287789E-007  0.9651832E+03  0.7818608E-02  0.9428597E-01
          2   -1    0    0  501    0  0.00000000000E+00  0.00000000000E+00  0.10794173011E+04  0.10794173011E+04  0.25500000000E-02 0. -1.
         -2   -1    0    0    0  501 -0.00000000000E+00 -0.00000000000E+00 -0.80210244308E+03  0.80210244309E+03  0.25500000000E-02 0.  1.
    8880023    1    1    2    0    0 -0.97934940234E+02  0.69869671855E+03  0.54873865696E+03  0.11102669395E+04  0.65864270000E+03 0.  1.
    8880022    1    1    2    0    0  0.97934940234E+02 -0.69869671855E+03 -0.27142379898E+03  0.77125280466E+03  0.15294330000E+03 0.  0.
<mgrwt>
<rscale>  0 0.89759142E+03</rscale>
<asrwt>0</asrwt>
<pdfrwt beam="1">  1        2 0.16606420E+00 0.96518318E+03</pdfrwt>
<pdfrwt beam="2">  1       -2 0.12340038E+00 0.96518318E+03</pdfrwt>
<totfact> 0.11060751E+01</totfact>
</mgrwt>
</event>
<event>
 4    1  0.8287789E-007  0.7566418E+03  0.7818608E-02  0.9813880E-01
         -2   -1    0    0    0  501 -0.00000000000E+00  0.00000000000E+00  0.35484569274E+03  0.35484569275E+03  0.25500000000E-02 0.  1.
          2   -1    0    0  501    0  0.00000000000E+00 -0.00000000000E+00 -0.19431506864E+04  0.19431506864E+04  0.25500000000E-02 0. -1.
    8880023    1    1    2    0    0 -0.35088396430E+03 -0.12480782262E+03 -0.17161798396E+04  0.18755745779E+04  0.65864270000E+03 0. -1.
    8880022    1    1    2    0    0  0.35088396430E+03  0.12480782262E+03  0.12787484592E+03  0.42242180131E+03  0.15294330000E+03 0.  0.
<mgrwt>
<rscale>  0 0.64622932E+03</rscale>
<asrwt>0</asrwt>
<pdfrwt beam="1">  1        2 0.29894625E+00 0.75664176E+03</pdfrwt>
<pdfrwt beam="2">  1       -2 0.54591646E-01 0.75664176E+03</pdfrwt>
<totfact> 0.23401846E+01</totfact>
</mgrwt>
</event>
<event>
 4    1  0.8287789E-007  0.7451866E+03  0.7818608E-02  0.9845089E-01
          2   -1    0    0  501    0  0.00000000000E+00  0.00000000000E+00  0.16493460665E+04  0.16493460665E+04  0.25500000000E-02 0. -1.
         -2   -1    0    0    0  501 -0.00000000000E+00 -0.00000000000E+00 -0.22192200535E+03  0.22192200537E+03  0.25500000000E-02 0.  1.
    8880023    1    1    2    0    0 -0.23014707370E+03 -0.26177309319E+03  0.12407272525E+04  0.14473103154E+04  0.65864270000E+03 0.  0.
    8880022    1    1    2    0    0  0.23014707370E+03  0.26177309319E+03  0.18669680866E+03  0.42395775642E+03  0.15294330000E+03 0.  0.
<mgrwt>
<rscale>  0 0.62997962E+03</rscale>
<asrwt>0</asrwt>
<pdfrwt beam="1">  1        2 0.25374555E+00 0.74518658E+03</pdfrwt>
<pdfrwt beam="2">  1       -2 0.34141847E-01 0.74518658E+03</pdfrwt>
<totfact> 0.85880031E+01</totfact>
</mgrwt>
</event>
<event>
 4    1  0.8287789E-007  0.9710324E+03  0.7818608E-02  0.9420478E-01
          2   -1    0    0  501    0  0.00000000000E+00  0.00000000000E+00  0.13886118878E+04  0.13886118878E+04  0.25500000000E-02 0. -1.
         -2   -1    0    0    0  501 -0.00000000000E+00 -0.00000000000E+00 -0.54901572812E+03  0.54901572812E+03  0.25500000000E-02 0.  1.
    8880023    1    1    2    0    0 -0.66539125883E+03  0.25758158096E+03  0.69396737502E+03  0.11935219822E+04  0.65864270000E+03 0.  0.
    8880022    1    1    2    0    0  0.66539125883E+03 -0.25758158096E+03  0.14562878465E+03  0.74410563370E+03  0.15294330000E+03 0.  0.
<mgrwt>
<rscale>  0 0.90409439E+03</rscale>
<asrwt>0</asrwt>
<pdfrwt beam="1">  1        2 0.21363259E+00 0.97103244E+03</pdfrwt>
<pdfrwt beam="2">  1       -2 0.84463959E-01 0.97103244E+03</pdfrwt>
<totfact> 0.17933953E+01</totfact>
</mgrwt>
</event>
<event>
 4    1  0.8287789E-007  0.8813649E+03  0.7818608E-02  0.9556634E-01
         -2   -1    0    0    0  501 -0.00000000000E+00  0.00000000000E+00  0.67631189112E+03  0.67631189112E+03  0.25500000000E-02 0.  1.
          2   -1    0    0  501    0  0.00000000000E+00 -0.00000000000E+00 -0.19606415193E+04  0.19606415193E+04  0.25500000000E-02 0. -1.
    8880023    1    1    2    0    0 -0.21879153531E+03 -0.54325329163E+03 -0.16915715406E+04  0.19074114287E+04  0.65864270000E+03 0.  0.
    8880022    1    1    2    0    0  0.21879153531E+03  0.54325329163E+03  0.40724191250E+03  0.72954198173E+03  0.15294330000E+03 0.  1.
<mgrwt>
<rscale>  0 0.80234121E+03</rscale>
<asrwt>0</asrwt>
<pdfrwt beam="1">  1        2 0.30163715E+00 0.88136490E+03</pdfrwt>
<pdfrwt beam="2">  1       -2 0.10404798E+00 0.88136490E+03</pdfrwt>
<totfact> 0.53583882E+00</totfact>
</mgrwt>
</event>
<event>
 4    1  0.8287789E-007  0.1084710E+04  0.7818608E-02  0.9278273E-01
         -2   -1    0    0    0  501 -0.00000000000E+00  0.00000000000E+00  0.50698039946E+03  0.50698039946E+03  0.25500000000E-02 0.  1.
          2   -1    0    0  501    0  0.00000000000E+00 -0.00000000000E+00 -0.38460288585E+04  0.38460288585E+04  0.25500000000E-02 0. -1.
    8880023    1    1    2    0    0 -0.85184346527E+03 -0.13095548031E+03 -0.33034403028E+04  0.34769691784E+04  0.65864270000E+03 0. -1.
    8880022    1    1    2    0    0  0.85184346527E+03  0.13095548031E+03 -0.35608156223E+02  0.87604007954E+03  0.15294330000E+03 0.  0.
<mgrwt>
<rscale>  0 0.10280793E+04</rscale>
<asrwt>0</asrwt>
<pdfrwt beam="1">  1        2 0.59169673E+00 0.10847105E+04</pdfrwt>
<pdfrwt beam="2">  1       -2 0.77996987E-01 0.10847105E+04</pdfrwt>
<totfact> 0.68343457E-01</totfact>
</mgrwt>
</event>
<event>
 4    1  0.8287789E-007  0.7339538E+03  0.7818608E-02  0.9877922E-01
          2   -1    0    0  501    0  0.00000000000E+00  0.00000000000E+00  0.17955781444E+04  0.17955781444E+04  0.25500000000E-02 0. -1.
         -2   -1    0    0    0  501 -0.00000000000E+00 -0.00000000000E+00 -0.26145237464E+03  0.26145237465E+03  0.25500000000E-02 0.  1.
    8880023    1    1    2    0    0  0.55990614044E+02 -0.31897188263E+03  0.33726957312E+03  0.80773695098E+03  0.65864270000E+03 0.  0.
    8880022    1    1    2    0    0 -0.55990614044E+02  0.31897188263E+03  0.11968561967E+04  0.12492935681E+04  0.15294330000E+03 0.  0.
<mgrwt>
<rscale>  0 0.61343288E+03</rscale>
<asrwt>0</asrwt>
<pdfrwt beam="1">  1        2 0.27624278E+00 0.73395382E+03</pdfrwt>
<pdfrwt beam="2">  1       -2 0.40223443E-01 0.73395382E+03</pdfrwt>
<totfact> 0.52184734E+01</totfact>
</mgrwt>
</event>
<event>
 4    1  0.8287789E-007  0.1539809E+04  0.7818608E-02  0.8882025E-01
          2   -1    0    0  501    0  0.00000000000E+00  0.00000000000E+00  0.30680216541E+04  0.30680216541E+04  0.25500000000E-02 0. -1.
         -2   -1    0    0    0  501 -0.00000000000E+00 -0.00000000000E+00 -0.11934047237E+04  0.11934047237E+04  0.25500000000E-02 0.  1.
    8880023    1    1    2    0    0 -0.44256869230E+01  0.13918271929E+04  0.23266664404E+04  0.27900518728E+04  0.65864270000E+03 0.  0.
    8880022    1    1    2    0    0  0.44256869230E+01 -0.13918271929E+04 -0.45204950999E+03  0.14713745050E+04  0.15294330000E+03 0.  0.
<mgrwt>
<rscale>  0 0.15036566E+04</rscale>
<asrwt>0</asrwt>
<pdfrwt beam="1">  1        2 0.47200333E+00 0.15398093E+04</pdfrwt>
<pdfrwt beam="2">  1       -2 0.18360073E+00 0.15398093E+04</pdfrwt>
<totfact> 0.25389930E-01</totfact>
</mgrwt>
</event>
<event>
 4    1  0.8287789E-007  0.8906255E+03  0.7818608E-02  0.9541251E-01
         -2   -1    0    0    0  501 -0.00000000000E+00  0.00000000000E+00  0.56597728597E+03  0.56597728598E+03  0.25500000000E-02 0.  1.
          2   -1    0    0  501    0  0.00000000000E+00 -0.00000000000E+00 -0.14534728723E+04  0.14534728723E+04  0.25500000000E-02 0. -1.
    8880023    1    1    2    0    0  0.46353757543E+03 -0.38017947061E+03 -0.10528565550E+04  0.13790288777E+04  0.65864270000E+03 0.  0.
    8880022    1    1    2    0    0 -0.46353757543E+03  0.38017947061E+03  0.16536096868E+03  0.64042128063E+03  0.15294330000E+03 0.  0.
<mgrwt>
<rscale>  0 0.81309659E+03</rscale>
<asrwt>0</asrwt>
<pdfrwt beam="1">  1        2 0.22361121E+00 0.89062547E+03</pdfrwt>
<pdfrwt beam="2">  1       -2 0.87073429E-01 0.89062547E+03</pdfrwt>
<totfact> 0.15489834E+01</totfact>
</mgrwt>
</event>
<event>
 4    1  0.8287789E-007  0.7300114E+03  0.7818608E-02  0.9890061E-01
          2   -1    0    0  501    0  0.00000000000E+00  0.00000000000E+00  0.70291487995E+03  0.70291487996E+03  0.25500000000E-02 0. -1.
         -2   -1    0    0    0  501 -0.00000000000E+00 -0.00000000000E+00 -0.12632206720E+04  0.12632206720E+04  0.25500000000E-02 0.  1.
    8880023    1    1    2    0    0  0.58585639749E+02  0.30931248160E+03  0.47655783670E+03  0.87179359165E+03  0.65864270000E+03 0. -1.
    8880022    1    1    2    0    0 -0.58585639749E+02 -0.30931248160E+03 -0.10368636287E+04  0.10943419603E+04  0.15294330000E+03 0.  0.
<mgrwt>
<rscale>  0 0.60745405E+03</rscale>
<asrwt>0</asrwt>
<pdfrwt beam="1">  1        2 0.10814075E+00 0.73001143E+03</pdfrwt>
<pdfrwt beam="2">  1       -2 0.19434164E+00 0.73001143E+03</pdfrwt>
<totfact> 0.60428554E+00</totfact>
</mgrwt>
</event>
<event>
 4    1  0.8287789E-007  0.6890906E+03  0.7818608E-02  0.1004588E+00
          2   -1    0    0  501    0  0.00000000000E+00  0.00000000000E+00  0.22272344814E+04  0.22272344814E+04  0.25500000000E-02 0. -1.
         -2   -1    0    0    0  501 -0.00000000000E+00 -0.00000000000E+00 -0.26195020397E+03  0.26195020398E+03  0.25500000000E-02 0.  1.
    8880023    1    1    2    0    0 -0.16997762199E+03 -0.11019654233E+03  0.20940854029E+04  0.22045497388E+04  0.65864270000E+03 0. -1.
    8880022    1    1    2    0    0  0.16997762199E+03  0.11019654233E+03 -0.12880112542E+03  0.28463494663E+03  0.15294330000E+03 0.  0.
<mgrwt>
<rscale>  0 0.53683523E+03</rscale>
<asrwt>0</asrwt>
<pdfrwt beam="1">  1        2 0.34265146E+00 0.68909062E+03</pdfrwt>
<pdfrwt beam="2">  1       -2 0.40300031E-01 0.68909062E+03</pdfrwt>
<totfact> 0.30396030E+01</totfact>
</mgrwt>
</event>
<event>
 4    1  0.8287789E-007  0.6828117E+03  0.7818608E-02  0.1007776E+00
          2   -1    0    0  501    0  0.00000000000E+00  0.00000000000E+00  0.17947621904E+04  0.17947621904E+04  0.25500000000E-02 0. -1.
         -2   -1    0    0    0  501 -0.00000000000E+00 -0.00000000000E+00 -0.12720008000E+03  0.12720008002E+03  0.25500000000E-02 0.  1.
    8880023    1    1    2    0    0 -0.46317609303E+02 -0.17400066612E+03  0.14412159606E+04  0.15947837484E+04  0.65864270000E+03 0.  0.
    8880022    1    1    2    0    0  0.46317609303E+02  0.17400066612E+03  0.22634614980E+03  0.32717852204E+03  0.15294330000E+03 0.  0.
<mgrwt>
<rscale>  0 0.52368220E+03</rscale>
<asrwt>0</asrwt>
<pdfrwt beam="1">  1        2 0.27611722E+00 0.68281166E+03</pdfrwt>
<pdfrwt beam="2">  1       -2 0.19569246E-01 0.68281166E+03</pdfrwt>
<totfact> 0.19754752E+02</totfact>
</mgrwt>
</event>
<event>
 4    1  0.8287789E-007  0.6992620E+03  0.7818608E-02  0.1000028E+00
         -2   -1    0    0    0  501 -0.00000000000E+00  0.00000000000E+00  0.20603986660E+03  0.20603986661E+03  0.25500000000E-02 0.  1.
          2   -1    0    0  501    0  0.00000000000E+00 -0.00000000000E+00 -0.11722014515E+04  0.11722014515E+04  0.25500000000E-02 0. -1.
    8880023    1    1    2    0    0  0.17972655376E+03  0.15118015395E+03 -0.73985859000E+03  0.10180167054E+04  0.65864270000E+03 0. -1.
    8880022    1    1    2    0    0 -0.17972655376E+03 -0.15118015395E+03 -0.22630299493E+03  0.36022461271E+03  0.15294330000E+03 0. -1.
<mgrwt>
<rscale>  0 0.55638103E+03</rscale>
<asrwt>0</asrwt>
<pdfrwt beam="1">  1        2 0.18033868E+00 0.69926195E+03</pdfrwt>
<pdfrwt beam="2">  1       -2 0.31698442E-01 0.69926195E+03</pdfrwt>
<totfact> 0.18475366E+02</totfact>
</mgrwt>
</event>
<event>
 4    1  0.8287789E-007  0.7372827E+03  0.7818608E-02  0.9867934E-01
         -2   -1    0    0    0  501 -0.00000000000E+00  0.00000000000E+00  0.52194671686E+03  0.52194671687E+03  0.25500000000E-02 0.  1.
          2   -1    0    0  501    0  0.00000000000E+00 -0.00000000000E+00 -0.11161456521E+04  0.11161456521E+04  0.25500000000E-02 0. -1.
    8880023    1    1    2    0    0 -0.33111222714E+03 -0.11842092495E+02 -0.89897143733E+03  0.11626415585E+04  0.65864270000E+03 0. -1.
    8880022    1    1    2    0    0  0.33111222714E+03  0.11842092495E+02  0.30477250211E+03  0.47545081047E+03  0.15294330000E+03 0.  0.
<mgrwt>
<rscale>  0 0.61840811E+03</rscale>
<asrwt>0</asrwt>
<pdfrwt beam="1">  1        2 0.17171471E+00 0.73728268E+03</pdfrwt>
<pdfrwt beam="2">  1       -2 0.80299495E-01 0.73728268E+03</pdfrwt>
<totfact> 0.29737176E+01</totfact>
</mgrwt>
</event>
<event>
 4    1  0.8287789E-007  0.7510876E+03  0.7818608E-02  0.9828752E-01
          2   -1    0    0  501    0  0.00000000000E+00  0.00000000000E+00  0.20488611630E+03  0.20488611631E+03  0.25500000000E-02 0. -1.
         -2   -1    0    0    0  501 -0.00000000000E+00 -0.00000000000E+00 -0.17523086888E+04  0.17523086888E+04  0.25500000000E-02 0.  1.
    8880023    1    1    2    0    0 -0.20913559447E+02  0.36039568828E+03 -0.71467911134E+03  0.10367732961E+04  0.65864270000E+03 0. -1.
    8880022    1    1    2    0    0  0.20913559447E+02 -0.36039568828E+03 -0.83274346116E+03  0.92042150900E+03  0.15294330000E+03 0.  1.
<mgrwt>
<rscale>  0 0.63842100E+03</rscale>
<asrwt>0</asrwt>
<pdfrwt beam="1">  1        2 0.31520942E-01 0.75108763E+03</pdfrwt>
<pdfrwt beam="2">  1       -2 0.26958594E+00 0.75108763E+03</pdfrwt>
<totfact> 0.84566379E+00</totfact>
</mgrwt>
</event>
<event>
 4    1  0.8287789E-007  0.7359603E+03  0.7818608E-02  0.9871874E-01
         -2   -1    0    0    0  501 -0.00000000000E+00  0.00000000000E+00  0.43835219191E+03  0.43835219192E+03  0.25500000000E-02 0.  1.
          2   -1    0    0  501    0  0.00000000000E+00 -0.00000000000E+00 -0.17209967625E+04  0.17209967625E+04  0.25500000000E-02 0. -1.
    8880023    1    1    2    0    0  0.32059583147E+03  0.71033368843E+02 -0.15455010779E+04  0.17117859722E+04  0.65864270000E+03 0. -1.
    8880022    1    1    2    0    0 -0.32059583147E+03 -0.71033368843E+02  0.26285650727E+03  0.44756298224E+03  0.15294330000E+03 0.  0.
<mgrwt>
<rscale>  0 0.61643947E+03</rscale>
<asrwt>0</asrwt>
<pdfrwt beam="1">  1        2 0.26476873E+00 0.73596035E+03</pdfrwt>
<pdfrwt beam="2">  1       -2 0.67438800E-01 0.73596035E+03</pdfrwt>
<totfact> 0.19825721E+01</totfact>
</mgrwt>
</event>
<event>
 4    1  0.8287789E-007  0.7033179E+03  0.7818608E-02  0.9983706E-01
         -2   -1    0    0    0  501 -0.00000000000E+00  0.00000000000E+00  0.47767499237E+03  0.47767499237E+03  0.25500000000E-02 0.  1.
          2   -1    0    0  501    0  0.00000000000E+00 -0.00000000000E+00 -0.18349944984E+04  0.18349944984E+04  0.25500000000E-02 0. -1.
    8880023    1    1    2    0    0  0.11311176150E+03 -0.21920668794E+03 -0.17140797037E+04  0.18527615280E+04  0.65864270000E+03 0. -1.
    8880022    1    1    2    0    0 -0.11311176150E+03  0.21920668794E+03  0.35676019765E+03  0.45990796282E+03  0.15294330000E+03 0.  0.
<mgrwt>
<rscale>  0 0.56370505E+03</rscale>
<asrwt>0</asrwt>
<pdfrwt beam="1">  1        2 0.28230684E+00 0.70331789E+03</pdfrwt>
<pdfrwt beam="2">  1       -2 0.73488462E-01 0.70331789E+03</pdfrwt>
<totfact> 0.14308459E+01</totfact>
</mgrwt>
</event>
<event>
 4    1  0.8287789E-007  0.7130378E+03  0.7818608E-02  0.9946889E-01
         -2   -1    0    0    0  501 -0.00000000000E+00  0.00000000000E+00  0.15454970025E+04  0.15454970025E+04  0.25500000000E-02 0.  1.
          2   -1    0    0  501    0  0.00000000000E+00 -0.00000000000E+00 -0.11383246230E+04  0.11383246230E+04  0.25500000000E-02 0. -1.
    8880023    1    1    2    0    0 -0.12570545797E+02 -0.27286393050E+03 -0.10078523709E+04  0.12345806377E+04  0.65864270000E+03 0. -1.
    8880022    1    1    2    0    0  0.12570545797E+02  0.27286393050E+03  0.14150247504E+04  0.14492409877E+04  0.15294330000E+03 0.  0.
<mgrwt>
<rscale>  0 0.58041700E+03</rscale>
<asrwt>0</asrwt>
<pdfrwt beam="1">  1        2 0.17512686E+00 0.71303783E+03</pdfrwt>
<pdfrwt beam="2">  1       -2 0.23776877E+00 0.71303783E+03</pdfrwt>
<totfact> 0.16414691E+00</totfact>
</mgrwt>
</event>
<event>
 4    1  0.8287789E-007  0.1184447E+04  0.7818608E-02  0.9172391E-01
         -2   -1    0    0    0  501 -0.00000000000E+00  0.00000000000E+00  0.82945915930E+03  0.82945915930E+03  0.25500000000E-02 0.  1.
          2   -1    0    0  501    0  0.00000000000E+00 -0.00000000000E+00 -0.23129079037E+04  0.23129079037E+04  0.25500000000E-02 0. -1.
    8880023    1    1    2    0    0  0.94586616149E+03  0.27284178489E+03 -0.17480932946E+04  0.21115742487E+04  0.65864270000E+03 0. -1.
    8880022    1    1    2    0    0 -0.94586616149E+03 -0.27284178489E+03  0.26464455018E+03  0.10307928143E+04  0.15294330000E+03 0.  0.
<mgrwt>
<rscale>  0 0.11343001E+04</rscale>
<asrwt>0</asrwt>
<pdfrwt beam="1">  1        2 0.35583198E+00 0.11844474E+04</pdfrwt>
<pdfrwt beam="2">  1       -2 0.12760910E+00 0.11844474E+04</pdfrwt>
<totfact> 0.19878196E+00</totfact>
</mgrwt>
</event>
<event>
 4    1  0.8287789E-007  0.8860105E+03  0.7818608E-02  0.9548873E-01
         -2   -1    0    0    0  501 -0.00000000000E+00  0.00000000000E+00  0.48661793252E+03  0.48661793253E+03  0.25500000000E-02 0.  1.
          2   -1    0    0  501    0  0.00000000000E+00 -0.00000000000E+00 -0.21625635151E+04  0.21625635151E+04  0.25500000000E-02 0. -1.
    8880023    1    1    2    0    0  0.56248442132E+03 -0.18658975812E+03 -0.18166303604E+04  0.20211780067E+04  0.65864270000E+03 0. -1.
    8880022    1    1    2    0    0 -0.56248442132E+03  0.18658975812E+03  0.14068477787E+03  0.62800344092E+03  0.15294330000E+03 0.  0.
<mgrwt>
<rscale>  0 0.80774555E+03</rscale>
<asrwt>0</asrwt>
<pdfrwt beam="1">  1        2 0.33270207E+00 0.88601054E+03</pdfrwt>
<pdfrwt beam="2">  1       -2 0.74864298E-01 0.88601054E+03</pdfrwt>
<totfact> 0.88573272E+00</totfact>
</mgrwt>
</event>
<event>
 4    1  0.8287789E-007  0.7290417E+03  0.7818608E-02  0.9893101E-01
         -2   -1    0    0    0  501 -0.00000000000E+00  0.00000000000E+00  0.55952719303E+03  0.55952719304E+03  0.25500000000E-02 0.  1.
          2   -1    0    0  501    0  0.00000000000E+00 -0.00000000000E+00 -0.10915847923E+04  0.10915847923E+04  0.25500000000E-02 0. -1.
    8880023    1    1    2    0    0 -0.83627514646E+02 -0.30116106314E+03 -0.89095740708E+03  0.11512197248E+04  0.65864270000E+03 0. -1.
    8880022    1    1    2    0    0  0.83627514646E+02  0.30116106314E+03  0.35889980780E+03  0.49989226061E+03  0.15294330000E+03 0.  0.
<mgrwt>
<rscale>  0 0.60596808E+03</rscale>
<asrwt>0</asrwt>
<pdfrwt beam="1">  1        2 0.16793612E+00 0.72904167E+03</pdfrwt>
<pdfrwt beam="2">  1       -2 0.86081107E-01 0.72904167E+03</pdfrwt>
<totfact> 0.26317158E+01</totfact>
</mgrwt>
</event>
<event>
 4    1  0.8287789E-007  0.8756229E+03  0.7818608E-02  0.9566356E-01
          2   -1    0    0  501    0  0.00000000000E+00  0.00000000000E+00  0.14843223794E+04  0.14843223794E+04  0.25500000000E-02 0. -1.
         -2   -1    0    0    0  501 -0.00000000000E+00 -0.00000000000E+00 -0.44435077726E+03  0.44435077726E+03  0.25500000000E-02 0.  1.
    8880023    1    1    2    0    0 -0.32732700037E+03 -0.47514449899E+03  0.10018210751E+04  0.13305491095E+04  0.65864270000E+03 0.  1.
    8880022    1    1    2    0    0  0.32732700037E+03  0.47514449899E+03  0.38150527106E+02  0.59812404719E+03  0.15294330000E+03 0. -1.
<mgrwt>
<rscale>  0 0.79563585E+03</rscale>
<asrwt>0</asrwt>
<pdfrwt beam="1">  1        2 0.22835729E+00 0.87562290E+03</pdfrwt>
<pdfrwt beam="2">  1       -2 0.68361658E-01 0.87562290E+03</pdfrwt>
<totfact> 0.25601887E+01</totfact>
</mgrwt>
</event>
<event>
 4    1  0.8287789E-007  0.7036418E+03  0.7818608E-02  0.9982416E-01
          2   -1    0    0  501    0  0.00000000000E+00  0.00000000000E+00  0.29627334271E+04  0.29627334271E+04  0.25500000000E-02 0. -1.
         -2   -1    0    0    0  501 -0.00000000000E+00 -0.00000000000E+00 -0.37526001676E+03  0.37526001676E+03  0.25500000000E-02 0.  1.
    8880023    1    1    2    0    0 -0.30906780854E+02  0.24565505213E+03  0.28563707628E+04  0.29417623586E+04  0.65864270000E+03 0. -1.
    8880022    1    1    2    0    0  0.30906780854E+02 -0.24565505213E+03 -0.26889735246E+03  0.39623108524E+03  0.15294330000E+03 0.  0.
<mgrwt>
<rscale>  0 0.56428027E+03</rscale>
<asrwt>0</asrwt>
<pdfrwt beam="1">  1        2 0.45580514E+00 0.70364184E+03</pdfrwt>
<pdfrwt beam="2">  1       -2 0.57732311E-01 0.70364184E+03</pdfrwt>
<totfact> 0.55437786E+00</totfact>
</mgrwt>
</event>
<event>
 4    1  0.8287789E-007  0.7047127E+03  0.7818608E-02  0.9978185E-01
          2   -1    0    0  501    0  0.00000000000E+00  0.00000000000E+00  0.38702462126E+03  0.38702462127E+03  0.25500000000E-02 0. -1.
         -2   -1    0    0    0  501 -0.00000000000E+00 -0.00000000000E+00 -0.78914573691E+03  0.78914573691E+03  0.25500000000E-02 0.  1.
    8880023    1    1    2    0    0  0.12934871759E+03 -0.21465958285E+03 -0.34310839261E+02  0.70554749465E+03  0.65864270000E+03 0. -1.
    8880022    1    1    2    0    0 -0.12934871759E+03  0.21465958285E+03 -0.36781027638E+03  0.47062286353E+03  0.15294330000E+03 0.  0.
<mgrwt>
<rscale>  0 0.56617205E+03</rscale>
<asrwt>0</asrwt>
<pdfrwt beam="1">  1        2 0.59542250E-01 0.70471273E+03</pdfrwt>
<pdfrwt beam="2">  1       -2 0.12140704E+00 0.70471273E+03</pdfrwt>
<totfact> 0.43183277E+01</totfact>
</mgrwt>
</event>
<event>
 4    1  0.8287789E-007  0.7162185E+03  0.7818608E-02  0.9935595E-01
         -2   -1    0    0    0  501 -0.00000000000E+00  0.00000000000E+00  0.10927334812E+03  0.10927334815E+03  0.25500000000E-02 0.  1.
          2   -1    0    0  501    0  0.00000000000E+00 -0.00000000000E+00 -0.32341192314E+04  0.32341192314E+04  0.25500000000E-02 0. -1.
    8880023    1    1    2    0    0  0.28049375736E+03  0.21954008853E+02 -0.27883758193E+04  0.28788901755E+04  0.65864270000E+03 0. -1.
    8880022    1    1    2    0    0 -0.28049375736E+03 -0.21954008853E+02 -0.33647006390E+03  0.46450240401E+03  0.15294330000E+03 0.  0.
<mgrwt>
<rscale>  0 0.58566775E+03</rscale>
<asrwt>0</asrwt>
<pdfrwt beam="1">  1        2 0.49755673E+00 0.71621850E+03</pdfrwt>
<pdfrwt beam="2">  1       -2 0.16811287E-01 0.71621850E+03</pdfrwt>
<totfact> 0.38031358E+01</totfact>
</mgrwt>
</event>
<event>
 4    1  0.8287789E-007  0.9124448E+03  0.7818608E-02  0.9506342E-01
          2   -1    0    0  501    0  0.00000000000E+00  0.00000000000E+00  0.37307213617E+03  0.37307213618E+03  0.25500000000E-02 0. -1.
         -2   -1    0    0    0  501 -0.00000000000E+00 -0.00000000000E+00 -0.16520347786E+04  0.16520347786E+04  0.25500000000E-02 0.  1.
    8880023    1    1    2    0    0  0.61364473914E+03 -0.14894762878E+03 -0.84637109019E+03  0.12445479061E+04  0.65864270000E+03 0.  1.
    8880022    1    1    2    0    0 -0.61364473914E+03  0.14894762878E+03 -0.43259155227E+03  0.78055900872E+03  0.15294330000E+03 0. -1.
<mgrwt>
<rscale>  0 0.83817868E+03</rscale>
<asrwt>0</asrwt>
<pdfrwt beam="1">  1        2 0.57395714E-01 0.91244478E+03</pdfrwt>
<pdfrwt beam="2">  1       -2 0.25415919E+00 0.91244478E+03</pdfrwt>
<totfact> 0.52666681E+00</totfact>
</mgrwt>
</event>
<event>
 4    1  0.8287789E-007  0.6681144E+03  0.7818608E-02  0.1017052E+00
          2   -1    0    0  501    0  0.00000000000E+00  0.00000000000E+00  0.12230934292E+04  0.12230934292E+04  0.25500000000E-02 0. -1.
         -2   -1    0    0    0  501 -0.00000000000E+00 -0.00000000000E+00 -0.23673442936E+03  0.23673442937E+03  0.25500000000E-02 0.  1.
    8880023    1    1    2    0    0  0.16491314730E+01  0.11208863282E+03  0.10628139533E+04  0.12553685860E+04  0.65864270000E+03 0. -1.
    8880022    1    1    2    0    0 -0.16491314730E+01 -0.11208863282E+03 -0.76454953375E+02  0.20445927260E+03  0.15294330000E+03 0.  0.
<mgrwt>
<rscale>  0 0.48765524E+03</rscale>
<asrwt>0</asrwt>
<pdfrwt beam="1">  1        2 0.18816822E+00 0.66811435E+03</pdfrwt>
<pdfrwt beam="2">  1       -2 0.36420681E-01 0.66811435E+03</pdfrwt>
<totfact> 0.13288710E+02</totfact>
</mgrwt>
</event>
<event>
 4    1  0.8287789E-007  0.8941703E+03  0.7818608E-02  0.9535456E-01
          2   -1    0    0  501    0  0.00000000000E+00  0.00000000000E+00  0.23167322104E+04  0.23167322104E+04  0.25500000000E-02 0. -1.
         -2   -1    0    0    0  501 -0.00000000000E+00 -0.00000000000E+00 -0.37841727000E+03  0.37841727001E+03  0.25500000000E-02 0.  1.
    8880023    1    1    2    0    0  0.25242799227E+03  0.54955476927E+03  0.30172022708E+03  0.94370315110E+03  0.65864270000E+03 0. -1.
    8880022    1    1    2    0    0 -0.25242799227E+03 -0.54955476927E+03  0.16365947133E+04  0.17514463293E+04  0.15294330000E+03 0.  0.
<mgrwt>
<rscale>  0 0.81719539E+03</rscale>
<asrwt>0</asrwt>
<pdfrwt beam="1">  1        2 0.35642034E+00 0.89417031E+03</pdfrwt>
<pdfrwt beam="2">  1       -2 0.58218042E-01 0.89417031E+03</pdfrwt>
<totfact> 0.12507825E+01</totfact>
</mgrwt>
</event>
<event>
 4    1  0.8287789E-007  0.1195187E+04  0.7818608E-02  0.9161815E-01
         -2   -1    0    0    0  501 -0.00000000000E+00  0.00000000000E+00  0.11431219047E+04  0.11431219047E+04  0.25500000000E-02 0.  1.
          2   -1    0    0  501    0  0.00000000000E+00 -0.00000000000E+00 -0.16349764750E+04  0.16349764750E+04  0.25500000000E-02 0. -1.
    8880023    1    1    2    0    0  0.99417930940E+03  0.79180127382E+02 -0.10794436544E+04  0.16104877526E+04  0.65864270000E+03 0.  0.
    8880022    1    1    2    0    0 -0.99417930940E+03 -0.79180127382E+02  0.58758908410E+03  0.11676106271E+04  0.15294330000E+03 0.  0.
<mgrwt>
<rscale>  0 0.11456402E+04</rscale>
<asrwt>0</asrwt>
<pdfrwt beam="1">  1        2 0.25153484E+00 0.11951871E+04</pdfrwt>
<pdfrwt beam="2">  1       -2 0.17586491E+00 0.11951871E+04</pdfrwt>
<totfact> 0.20057921E+00</totfact>
</mgrwt>
</event>
<event>
 4    1  0.8287789E-007  0.1506981E+04  0.7818608E-02  0.8904722E-01
         -2   -1    0    0    0  501 -0.00000000000E+00  0.00000000000E+00  0.15093024318E+04  0.15093024318E+04  0.25500000000E-02 0.  1.
          2   -1    0    0  501    0  0.00000000000E+00 -0.00000000000E+00 -0.14016934532E+04  0.14016934532E+04  0.25500000000E-02 0. -1.
    8880023    1    1    2    0    0 -0.70649800652E+03 -0.11567379736E+04 -0.17778137046E+03  0.15174315783E+04  0.65864270000E+03 0.  0.
    8880022    1    1    2    0    0  0.70649800652E+03  0.11567379736E+04  0.28539034903E+03  0.13935643068E+04  0.15294330000E+03 0.  0.
<mgrwt>
<rscale>  0 0.14698965E+04</rscale>
<asrwt>0</asrwt>
<pdfrwt beam="1">  1        2 0.21564515E+00 0.15069812E+04</pdfrwt>
<pdfrwt beam="2">  1       -2 0.23220037E+00 0.15069812E+04</pdfrwt>
<totfact> 0.11256397E+00</totfact>
</mgrwt>
</event>
<event>
 4    1  0.8287789E-007  0.7976648E+03  0.7818608E-02  0.9715868E-01
          2   -1    0    0  501    0  0.00000000000E+00  0.00000000000E+00  0.64592699871E+03  0.64592699871E+03  0.25500000000E-02 0. -1.
         -2   -1    0    0    0  501 -0.00000000000E+00 -0.00000000000E+00 -0.10737764030E+04  0.10737764030E+04  0.25500000000E-02 0.  1.
    8880023    1    1    2    0    0 -0.41485510687E+03  0.17422436345E+03  0.29850866730E+03  0.85169038931E+03  0.65864270000E+03 0. -1.
    8880022    1    1    2    0    0  0.41485510687E+03 -0.17422436345E+03 -0.72635807155E+03  0.86801301237E+03  0.15294330000E+03 0.  0.
<mgrwt>
<rscale>  0 0.70079816E+03</rscale>
<asrwt>0</asrwt>
<pdfrwt beam="1">  1        2 0.99373385E-01 0.79766478E+03</pdfrwt>
<pdfrwt beam="2">  1       -2 0.16519637E+00 0.79766478E+03</pdfrwt>
<totfact> 0.10572374E+01</totfact>
</mgrwt>
</event>
<event>
 4    1  0.8287789E-007  0.7241524E+03  0.7818608E-02  0.9908778E-01
          2   -1    0    0  501    0  0.00000000000E+00  0.00000000000E+00  0.13544796245E+04  0.13544796245E+04  0.25500000000E-02 0. -1.
         -2   -1    0    0    0  501 -0.00000000000E+00 -0.00000000000E+00 -0.22813398853E+03  0.22813398854E+03  0.25500000000E-02 0.  1.
    8880023    1    1    2    0    0  0.29807178436E+03  0.41709253514E+02  0.53017108026E+03  0.89748427901E+03  0.65864270000E+03 0.  1.
    8880022    1    1    2    0    0 -0.29807178436E+03 -0.41709253514E+02  0.59617455569E+03  0.68512933402E+03  0.15294330000E+03 0. -1.
<mgrwt>
<rscale>  0 0.59837735E+03</rscale>
<asrwt>0</asrwt>
<pdfrwt beam="1">  1        2 0.20838148E+00 0.72415237E+03</pdfrwt>
<pdfrwt beam="2">  1       -2 0.35097536E-01 0.72415237E+03</pdfrwt>
<totfact> 0.11920362E+02</totfact>
</mgrwt>
</event>
<event>
 4    1  0.8287789E-007  0.7459295E+03  0.7818608E-02  0.9843000E-01
         -2   -1    0    0    0  501 -0.00000000000E+00  0.00000000000E+00  0.13288698016E+04  0.13288698016E+04  0.25500000000E-02 0.  1.
          2   -1    0    0  501    0  0.00000000000E+00 -0.00000000000E+00 -0.25922175517E+03  0.25922175519E+03  0.25500000000E-02 0. -1.
    8880023    1    1    2    0    0 -0.15046083865E+03 -0.31616790356E+03  0.48526878668E+03  0.88988572794E+03  0.65864270000E+03 0. -1.
    8880022    1    1    2    0    0  0.15046083865E+03  0.31616790356E+03  0.58437925977E+03  0.69820582887E+03  0.15294330000E+03 0.  0.
<mgrwt>
<rscale>  0 0.63105115E+03</rscale>
<asrwt>0</asrwt>
<pdfrwt beam="1">  1        2 0.39880270E-01 0.74592950E+03</pdfrwt>
<pdfrwt beam="2">  1       -2 0.20444151E+00 0.74592950E+03</pdfrwt>
<totfact> 0.16365890E+01</totfact>
</mgrwt>
</event>
<event>
 4    1  0.8287789E-007  0.6842082E+03  0.7818608E-02  0.1007037E+00
          2   -1    0    0  501    0  0.00000000000E+00  0.00000000000E+00  0.30875605072E+04  0.30875605072E+04  0.25500000000E-02 0. -1.
         -2   -1    0    0    0  501 -0.00000000000E+00 -0.00000000000E+00 -0.28549937527E+03  0.28549937528E+03  0.25500000000E-02 0.  1.
    8880023    1    1    2    0    0  0.12371503982E+03  0.13793214051E+03  0.29904676338E+04  0.30677414431E+04  0.65864270000E+03 0. -1.
    8880022    1    1    2    0    0 -0.12371503982E+03 -0.13793214051E+03 -0.18840650189E+03  0.30531843939E+03  0.15294330000E+03 0.  0.
<mgrwt>
<rscale>  0 0.52669501E+03</rscale>
<asrwt>0</asrwt>
<pdfrwt beam="1">  1        2 0.47500933E+00 0.68420822E+03</pdfrwt>
<pdfrwt beam="2">  1       -2 0.43922979E-01 0.68420822E+03</pdfrwt>
<totfact> 0.81432166E+00</totfact>
</mgrwt>
</event>
<event>
 4    1  0.8287789E-007  0.1821955E+04  0.7818608E-02  0.8710488E-01
          2   -1    0    0  501    0  0.00000000000E+00  0.00000000000E+00  0.23240453981E+04  0.23240453981E+04  0.25500000000E-02 0. -1.
         -2   -1    0    0    0  501 -0.00000000000E+00 -0.00000000000E+00 -0.18277197665E+04  0.18277197665E+04  0.25500000000E-02 0.  1.
    8880023    1    1    2    0    0 -0.10185464646E+04 -0.13595122743E+04  0.13276277987E+04  0.22543549637E+04  0.65864270000E+03 0.  0.
    8880022    1    1    2    0    0  0.10185464646E+04  0.13595122743E+04 -0.83130216713E+03  0.18974102009E+04  0.15294330000E+03 0.  0.
<mgrwt>
<rscale>  0 0.17921450E+04</rscale>
<asrwt>0</asrwt>
<pdfrwt beam="1">  1        2 0.35754545E+00 0.18219552E+04</pdfrwt>
<pdfrwt beam="2">  1       -2 0.28118766E+00 0.18219552E+04</pdfrwt>
<totfact> 0.16452259E-01</totfact>
</mgrwt>
</event>
<event>
 4    1  0.8287789E-007  0.7623262E+03  0.7818608E-02  0.9799122E-01
         -2   -1    0    0    0  501 -0.00000000000E+00  0.00000000000E+00  0.32764026690E+03  0.32764026691E+03  0.25500000000E-02 0.  1.
          2   -1    0    0  501    0  0.00000000000E+00 -0.00000000000E+00 -0.48734509283E+04  0.48734509283E+04  0.25500000000E-02 0. -1.
    8880023    1    1    2    0    0 -0.11978589455E+02  0.38365032648E+03 -0.46989898965E+04  0.47604251190E+04  0.65864270000E+03 0. -1.
    8880022    1    1    2    0    0  0.11978589455E+02 -0.38365032648E+03  0.15317923515E+03  0.44066607619E+03  0.15294330000E+03 0.  0.
<mgrwt>
<rscale>  0 0.65409685E+03</rscale>
<asrwt>0</asrwt>
<pdfrwt beam="1">  1        2 0.74976163E+00 0.76232622E+03</pdfrwt>
<pdfrwt beam="2">  1       -2 0.50406198E-01 0.76232622E+03</pdfrwt>
<totfact> 0.21268696E-01</totfact>
</mgrwt>
</event>
<event>
 4    1  0.8287789E-007  0.7630745E+03  0.7818608E-02  0.9797212E-01
         -2   -1    0    0    0  501 -0.00000000000E+00  0.00000000000E+00  0.89360477004E+03  0.89360477004E+03  0.25500000000E-02 0.  1.
          2   -1    0    0  501    0  0.00000000000E+00 -0.00000000000E+00 -0.49311105448E+03  0.49311105448E+03  0.25500000000E-02 0. -1.
    8880023    1    1    2    0    0  0.12785848692E+02  0.38510905195E+03 -0.62033014584E+02  0.76559177176E+03  0.65864270000E+03 0. -1.
    8880022    1    1    2    0    0 -0.12785848692E+02 -0.38510905195E+03  0.46252673015E+03  0.62112405277E+03  0.15294330000E+03 0.  0.
<mgrwt>
<rscale>  0 0.65512376E+03</rscale>
<asrwt>0</asrwt>
<pdfrwt beam="1">  1        2 0.75863240E-01 0.76307448E+03</pdfrwt>
<pdfrwt beam="2">  1       -2 0.13747766E+00 0.76307448E+03</pdfrwt>
<totfact> 0.23839278E+01</totfact>
</mgrwt>
</event>
<event>
 4    1  0.8287789E-007  0.9756362E+03  0.7818608E-02  0.9414151E-01
          2   -1    0    0  501    0  0.00000000000E+00  0.00000000000E+00  0.18422667757E+04  0.18422667757E+04  0.25500000000E-02 0. -1.
         -2   -1    0    0    0  501 -0.00000000000E+00 -0.00000000000E+00 -0.45084428170E+03  0.45084428170E+03  0.25500000000E-02 0.  1.
    8880023    1    1    2    0    0  0.54182889015E+03  0.47379025656E+03  0.11726589206E+04  0.15254490827E+04  0.65864270000E+03 0.  0.
    8880022    1    1    2    0    0 -0.54182889015E+03 -0.47379025656E+03  0.21876357338E+03  0.76766197475E+03  0.15294330000E+03 0.  0.
<mgrwt>
<rscale>  0 0.90920216E+03</rscale>
<asrwt>0</asrwt>
<pdfrwt beam="1">  1        2 0.28342566E+00 0.97563618E+03</pdfrwt>
<pdfrwt beam="2">  1       -2 0.69360659E-01 0.97563618E+03</pdfrwt>
<totfact> 0.15560220E+01</totfact>
</mgrwt>
</event>
<event>
 4    1  0.8287789E-007  0.6808940E+03  0.7818608E-02  0.1008822E+00
         -2   -1    0    0    0  501 -0.00000000000E+00  0.00000000000E+00  0.54261668142E+03  0.54261668143E+03  0.25500000000E-02 0.  1.
          2   -1    0    0  501    0  0.00000000000E+00 -0.00000000000E+00 -0.14071525581E+04  0.14071525581E+04  0.25500000000E-02 0. -1.
    8880023    1    1    2    0    0 -0.14695839320E+03 -0.90607508399E+02 -0.12940454342E+04  0.14622483653E+04  0.65864270000E+03 0. -1.
    8880022    1    1    2    0    0  0.14695839320E+03  0.90607508399E+02  0.42950955744E+03  0.48752087427E+03  0.15294330000E+03 0.  0.
<mgrwt>
<rscale>  0 0.51945354E+03</rscale>
<asrwt>0</asrwt>
<pdfrwt beam="1">  1        2 0.21648501E+00 0.68089404E+03</pdfrwt>
<pdfrwt beam="2">  1       -2 0.83479490E-01 0.68089404E+03</pdfrwt>
<totfact> 0.18561997E+01</totfact>
</mgrwt>
</event>
<event>
 4    1  0.8287789E-007  0.9745675E+03  0.7818608E-02  0.9415615E-01
          2   -1    0    0  501    0  0.00000000000E+00  0.00000000000E+00  0.84441315248E+03  0.84441315248E+03  0.25500000000E-02 0. -1.
         -2   -1    0    0    0  501 -0.00000000000E+00 -0.00000000000E+00 -0.12478495633E+04  0.12478495633E+04  0.25500000000E-02 0.  1.
    8880023    1    1    2    0    0  0.34631951474E+03 -0.62931265815E+03  0.35434978840E+03  0.10369887207E+04  0.65864270000E+03 0. -1.
    8880022    1    1    2    0    0 -0.34631951474E+03  0.62931265815E+03 -0.75778619918E+03  0.10552739951E+04  0.15294330000E+03 0.  0.
<mgrwt>
<rscale>  0 0.90801729E+03</rscale>
<asrwt>0</asrwt>
<pdfrwt beam="1">  1        2 0.12990972E+00 0.97456751E+03</pdfrwt>
<pdfrwt beam="2">  1       -2 0.19197686E+00 0.97456751E+03</pdfrwt>
<totfact> 0.47897967E+00</totfact>
</mgrwt>
</event>
<event>
 4    1  0.8287789E-007  0.7353999E+03  0.7818608E-02  0.9873555E-01
          2   -1    0    0  501    0  0.00000000000E+00  0.00000000000E+00  0.25342521529E+04  0.25342521529E+04  0.25500000000E-02 0. -1.
         -2   -1    0    0    0  501 -0.00000000000E+00 -0.00000000000E+00 -0.16698523895E+03  0.16698523897E+03  0.25500000000E-02 0.  1.
    8880023    1    1    2    0    0 -0.27799695455E+03 -0.17239632735E+03  0.21668597406E+04  0.22882513284E+04  0.65864270000E+03 0.  0.
    8880022    1    1    2    0    0  0.27799695455E+03  0.17239632735E+03  0.20040717332E+03  0.41298606339E+03  0.15294330000E+03 0.  0.
<mgrwt>
<rscale>  0 0.61560206E+03</rscale>
<asrwt>0</asrwt>
<pdfrwt beam="1">  1        2 0.38988492E+00 0.73539990E+03</pdfrwt>
<pdfrwt beam="2">  1       -2 0.25690038E-01 0.73539990E+03</pdfrwt>
<totfact> 0.47357182E+01</totfact>
</mgrwt>
</event>
<event>
 4    1  0.8287789E-007  0.7865128E+03  0.7818608E-02  0.9740755E-01
          2   -1    0    0  501    0  0.00000000000E+00  0.00000000000E+00  0.87283892218E+03  0.87283892219E+03  0.25500000000E-02 0. -1.
         -2   -1    0    0    0  501 -0.00000000000E+00 -0.00000000000E+00 -0.13583034158E+04  0.13583034158E+04  0.25500000000E-02 0.  1.
    8880023    1    1    2    0    0  0.34780493729E+03  0.25263398686E+03  0.64173461822E+03  0.10150988780E+04  0.65864270000E+03 0. -1.
    8880022    1    1    2    0    0 -0.34780493729E+03 -0.25263398686E+03 -0.11271991118E+04  0.12160434599E+04  0.15294330000E+03 0.  0.
<mgrwt>
<rscale>  0 0.68641258E+03</rscale>
<asrwt>0</asrwt>
<pdfrwt beam="1">  1        2 0.13428291E+00 0.78651282E+03</pdfrwt>
<pdfrwt beam="2">  1       -2 0.20896976E+00 0.78651282E+03</pdfrwt>
<totfact> 0.36255261E+00</totfact>
</mgrwt>
</event>
<event>
 4    1  0.9409166E-007  0.6808563E+03  0.7818608E-02  0.1008843E+00
          2   -1    0    0  501    0  0.00000000000E+00  0.00000000000E+00  0.22888809697E+04  0.22888809697E+04  0.25500000000E-02 0. -1.
         -2   -1    0    0    0  501 -0.00000000000E+00 -0.00000000000E+00 -0.62664965033E+03  0.62664965033E+03  0.25500000000E-02 0.  1.
    8880023    1    1    2    0    0 -0.29631069931E+02  0.16993274082E+03  0.22146455757E+04  0.23169420297E+04  0.65864270000E+03 0. -1.
    8880022    1    1    2    0    0  0.29631069931E+02 -0.16993274082E+03 -0.55241425640E+03  0.59858859027E+03  0.15294330000E+03 0.  0.
<mgrwt>
<rscale>  0 0.51936926E+03</rscale>
<asrwt>0</asrwt>
<pdfrwt beam="1">  1        2 0.35213553E+00 0.68085633E+03</pdfrwt>
<pdfrwt beam="2">  1       -2 0.96407640E-01 0.68085633E+03</pdfrwt>
<totfact> 0.43793727E+00</totfact>
</mgrwt>
</event>
<event>
 4    1  0.8287789E-007  0.7367253E+03  0.7818608E-02  0.9869591E-01
         -2   -1    0    0    0  501 -0.00000000000E+00  0.00000000000E+00  0.23486604855E+03  0.23486604857E+03  0.25500000000E-02 0.  1.
          2   -1    0    0  501    0  0.00000000000E+00 -0.00000000000E+00 -0.18227085253E+04  0.18227085254E+04  0.25500000000E-02 0. -1.
    8880023    1    1    2    0    0  0.19989758513E+03 -0.26266875755E+03 -0.15177269718E+04  0.16870860346E+04  0.65864270000E+03 0. -1.
    8880022    1    1    2    0    0 -0.19989758513E+03  0.26266875755E+03 -0.70115504950E+02  0.37048853934E+03  0.15294330000E+03 0.  0.
<mgrwt>
<rscale>  0 0.61757947E+03</rscale>
<asrwt>0</asrwt>
<pdfrwt beam="1">  1        2 0.28041669E+00 0.73672527E+03</pdfrwt>
<pdfrwt beam="2">  1       -2 0.36133239E-01 0.73672527E+03</pdfrwt>
<totfact> 0.62035013E+01</totfact>
</mgrwt>
</event>
<event>
 4    1  0.9233067E-007  0.8708467E+03  0.7818608E-02  0.9574553E-01
          2   -1    0    0  501    0  0.00000000000E+00  0.00000000000E+00  0.16814191523E+04  0.16814191523E+04  0.25500000000E-02 0. -1.
         -2   -1    0    0    0  501 -0.00000000000E+00 -0.00000000000E+00 -0.10021469031E+04  0.10021469031E+04  0.25500000000E-02 0.  1.
    8880023    1    1    2    0    0  0.28398791069E+03  0.49387710499E+03  0.14630521469E+04  0.17026143190E+04  0.65864270000E+03 0. -1.
    8880022    1    1    2    0    0 -0.28398791069E+03 -0.49387710499E+03 -0.78377989769E+03  0.98095173647E+03  0.15294330000E+03 0.  0.
<mgrwt>
<rscale>  0 0.79003570E+03</rscale>
<asrwt>0</asrwt>
<pdfrwt beam="1">  1        2 0.25867987E+00 0.87084668E+03</pdfrwt>
<pdfrwt beam="2">  1       -2 0.15417645E+00 0.87084668E+03</pdfrwt>
<totfact> 0.28286721E+00</totfact>
</mgrwt>
</event>
<event>
 4    1  0.8287789E-007  0.7445326E+03  0.7818608E-02  0.9846935E-01
          2   -1    0    0  501    0  0.00000000000E+00  0.00000000000E+00  0.10119695382E+04  0.10119695382E+04  0.25500000000E-02 0. -1.
         -2   -1    0    0    0  501 -0.00000000000E+00 -0.00000000000E+00 -0.92919031354E+03  0.92919031354E+03  0.25500000000E-02 0.  1.
    8880023    1    1    2    0    0 -0.12176879947E+03  0.32510134789E+03  0.82274973360E+03  0.11096151843E+04  0.65864270000E+03 0. -1.
    8880022    1    1    2    0    0  0.12176879947E+03 -0.32510134789E+03 -0.73997050889E+03  0.83154466745E+03  0.15294330000E+03 0.  0.
<mgrwt>
<rscale>  0 0.62903413E+03</rscale>
<asrwt>0</asrwt>
<pdfrwt beam="1">  1        2 0.15568762E+00 0.74453256E+03</pdfrwt>
<pdfrwt beam="2">  1       -2 0.14295236E+00 0.74453256E+03</pdfrwt>
<totfact> 0.85755006E+00</totfact>
</mgrwt>
</event>
<event>
 4    1  0.8287789E-007  0.8558499E+03  0.7818608E-02  0.9600989E-01
         -2   -1    0    0    0  501 -0.00000000000E+00  0.00000000000E+00  0.20538244187E+03  0.20538244189E+03  0.25500000000E-02 0.  1.
          2   -1    0    0  501    0  0.00000000000E+00 -0.00000000000E+00 -0.36780740367E+04  0.36780740367E+04  0.25500000000E-02 0. -1.
    8880023    1    1    2    0    0 -0.80349762226E+02  0.54056705103E+03 -0.30713815874E+04  0.31883951892E+04  0.65864270000E+03 0. -1.
    8880022    1    1    2    0    0  0.80349762226E+02 -0.54056705103E+03 -0.40131000749E+03  0.69506128944E+03  0.15294330000E+03 0.  0.
<mgrwt>
<rscale>  0 0.77230772E+03</rscale>
<asrwt>0</asrwt>
<pdfrwt beam="1">  1        2 0.56585750E+00 0.85584989E+03</pdfrwt>
<pdfrwt beam="2">  1       -2 0.31597301E-01 0.85584989E+03</pdfrwt>
<totfact> 0.60152191E+00</totfact>
</mgrwt>
</event>
<event>
 4    1  0.8287789E-007  0.8748169E+03  0.7818608E-02  0.9567732E-01
         -2   -1    0    0    0  501 -0.00000000000E+00  0.00000000000E+00  0.28445047112E+03  0.28445047113E+03  0.25500000000E-02 0.  1.
          2   -1    0    0  501    0  0.00000000000E+00 -0.00000000000E+00 -0.19671947543E+04  0.19671947543E+04  0.25500000000E-02 0. -1.
    8880023    1    1    2    0    0 -0.36153764776E+03 -0.44809025965E+03 -0.11991788000E+04  0.14843632818E+04  0.65864270000E+03 0.  0.
    8880022    1    1    2    0    0  0.36153764776E+03  0.44809025965E+03 -0.48356548311E+03  0.76728194362E+03  0.15294330000E+03 0.  0.
<mgrwt>
<rscale>  0 0.79469224E+03</rscale>
<asrwt>0</asrwt>
<pdfrwt beam="1">  1        2 0.30264534E+00 0.87481687E+03</pdfrwt>
<pdfrwt beam="2">  1       -2 0.43761612E-01 0.87481687E+03</pdfrwt>
<totfact> 0.35063350E+01</totfact>
</mgrwt>
</event>
<event>
 4    1  0.8287789E-007  0.1363941E+04  0.7818608E-02  0.9012220E-01
          2   -1    0    0  501    0  0.00000000000E+00  0.00000000000E+00  0.27541858210E+04  0.27541858210E+04  0.25500000000E-02 0. -1.
         -2   -1    0    0    0  501 -0.00000000000E+00 -0.00000000000E+00 -0.85535818163E+03  0.85535818163E+03  0.25500000000E-02 0.  1.
    8880023    1    1    2    0    0 -0.11656456234E+04 -0.26037590758E+03  0.19781684480E+04  0.24028079298E+04  0.65864270000E+03 0.  0.
    8880022    1    1    2    0    0  0.11656456234E+04  0.26037590758E+03 -0.79340808633E+02  0.12067360728E+04  0.15294330000E+03 0.  0.
<mgrwt>
<rscale>  0 0.13221010E+04</rscale>
<asrwt>0</asrwt>
<pdfrwt beam="1">  1        2 0.42372090E+00 0.13639412E+04</pdfrwt>
<pdfrwt beam="2">  1       -2 0.13159357E+00 0.13639412E+04</pdfrwt>
<totfact> 0.99946052E-01</totfact>
</mgrwt>
</event>
<event>
 4    1  0.8287789E-007  0.6802934E+03  0.7818608E-02  0.1009158E+00
         -2   -1    0    0    0  501 -0.00000000000E+00  0.00000000000E+00  0.21384770516E+03  0.21384770518E+03  0.25500000000E-02 0.  1.
          2   -1    0    0  501    0  0.00000000000E+00 -0.00000000000E+00 -0.20436093138E+04  0.20436093138E+04  0.25500000000E-02 0. -1.
    8880023    1    1    2    0    0  0.77722869434E+02 -0.15148618796E+03 -0.18999480788E+04  0.20180688338E+04  0.65864270000E+03 0. -1.
    8880022    1    1    2    0    0 -0.77722869434E+02  0.15148618796E+03  0.70186470187E+02  0.23938818515E+03  0.15294330000E+03 0.  0.
<mgrwt>
<rscale>  0 0.51810581E+03</rscale>
<asrwt>0</asrwt>
<pdfrwt beam="1">  1        2 0.31440142E+00 0.68029340E+03</pdfrwt>
<pdfrwt beam="2">  1       -2 0.32899648E-01 0.68029340E+03</pdfrwt>
<totfact> 0.56578409E+01</totfact>
</mgrwt>
</event>
<event>
 4    1  0.8287789E-007  0.9473715E+03  0.7818608E-02  0.9453906E-01
          2   -1    0    0  501    0  0.00000000000E+00  0.00000000000E+00  0.22381955756E+04  0.22381955756E+04  0.25500000000E-02 0. -1.
         -2   -1    0    0    0  501 -0.00000000000E+00 -0.00000000000E+00 -0.54304645641E+03  0.54304645642E+03  0.25500000000E-02 0.  1.
    8880023    1    1    2    0    0  0.67858881566E+03 -0.56743771394E+02  0.18389732097E+04  0.20686554350E+04  0.65864270000E+03 0.  1.
    8880022    1    1    2    0    0 -0.67858881566E+03  0.56743771394E+02 -0.14382409049E+03  0.71258659709E+03  0.15294330000E+03 0.  0.
<mgrwt>
<rscale>  0 0.87769148E+03</rscale>
<asrwt>0</asrwt>
<pdfrwt beam="1">  1        2 0.34433778E+00 0.94737154E+03</pdfrwt>
<pdfrwt beam="2">  1       -2 0.83545608E-01 0.94737154E+03</pdfrwt>
<totfact> 0.62326871E+00</totfact>
</mgrwt>
</event>
<event>
 4    1  0.8350900E-007  0.6614145E+03  0.7818608E-02  0.1022752E+00
         -2   -1    0    0    0  501 -0.00000000000E+00  0.00000000000E+00  0.45979902803E+03  0.45979902804E+03  0.25500000000E-02 0.  1.
          2   -1    0    0  501    0  0.00000000000E+00 -0.00000000000E+00 -0.22920326649E+04  0.22920326649E+04  0.25500000000E-02 0. -1.
    8880023    1    1    2    0    0  0.10579338657E+02  0.59557116586E+02 -0.22275473276E+04  0.23236687104E+04  0.65864270000E+03 0. -1.
    8880022    1    1    2    0    0 -0.10579338657E+02 -0.59557116586E+02  0.39531369074E+03  0.42816298257E+03  0.15294330000E+03 0.  0.
<mgrwt>
<rscale>  0 0.46706515E+03</rscale>
<asrwt>0</asrwt>
<pdfrwt beam="1">  1        2 0.35262040E+00 0.66141453E+03</pdfrwt>
<pdfrwt beam="2">  1       -2 0.70738313E-01 0.66141453E+03</pdfrwt>
<totfact> 0.88163589E+00</totfact>
</mgrwt>
</event>
<event>
 4    1  0.8287789E-007  0.8327372E+03  0.7818608E-02  0.9644030E-01
         -2   -1    0    0    0  501 -0.00000000000E+00  0.00000000000E+00  0.85426930230E+03  0.85426930230E+03  0.25500000000E-02 0.  1.
          2   -1    0    0  501    0  0.00000000000E+00 -0.00000000000E+00 -0.91486613013E+03  0.91486613013E+03  0.25500000000E-02 0. -1.
    8880023    1    1    2    0    0  0.46840636586E+03  0.20059057178E+03 -0.58846995318E+03  0.10196804368E+04  0.65864270000E+03 0.  0.
    8880022    1    1    2    0    0 -0.46840636586E+03 -0.20059057178E+03  0.52787312534E+03  0.74945499567E+03  0.15294330000E+03 0.  0.
<mgrwt>
<rscale>  0 0.74449293E+03</rscale>
<asrwt>0</asrwt>
<pdfrwt beam="1">  1        2 0.14074864E+00 0.83273724E+03</pdfrwt>
<pdfrwt beam="2">  1       -2 0.13142605E+00 0.83273724E+03</pdfrwt>
<totfact> 0.12194057E+01</totfact>
</mgrwt>
</event>
<event>
 4    1  0.8287789E-007  0.8562139E+03  0.7818608E-02  0.9600334E-01
         -2   -1    0    0    0  501 -0.00000000000E+00  0.00000000000E+00  0.46418357740E+03  0.46418357740E+03  0.25500000000E-02 0.  1.
          2   -1    0    0  501    0  0.00000000000E+00 -0.00000000000E+00 -0.13075570776E+04  0.13075570776E+04  0.25500000000E-02 0. -1.
    8880023    1    1    2    0    0 -0.22839483488E+03  0.49711950501E+03 -0.84601897606E+03  0.12036819833E+04  0.65864270000E+03 0. -1.
    8880022    1    1    2    0    0  0.22839483488E+03 -0.49711950501E+03  0.26454759070E+01  0.56805867163E+03  0.15294330000E+03 0.  0.
<mgrwt>
<rscale>  0 0.77274076E+03</rscale>
<asrwt>0</asrwt>
<pdfrwt beam="1">  1        2 0.20116263E+00 0.85621388E+03</pdfrwt>
<pdfrwt beam="2">  1       -2 0.71412859E-01 0.85621388E+03</pdfrwt>
<totfact> 0.29389002E+01</totfact>
</mgrwt>
</event>
<event>
 4    1  0.8287789E-007  0.6660135E+03  0.7818608E-02  0.1018698E+00
         -2   -1    0    0    0  501 -0.00000000000E+00  0.00000000000E+00  0.47879038327E+03  0.47879038328E+03  0.25500000000E-02 0.  1.
          2   -1    0    0  501    0  0.00000000000E+00 -0.00000000000E+00 -0.76368679494E+03  0.76368679494E+03  0.25500000000E-02 0. -1.
    8880023    1    1    2    0    0  0.75246444931E+02  0.64045268087E+02 -0.58829587823E+03  0.88863157183E+03  0.65864270000E+03 0. -1.
    8880022    1    1    2    0    0 -0.75246444931E+02 -0.64045268087E+02  0.30339946656E+03  0.35384560639E+03  0.15294330000E+03 0.  0.
<mgrwt>
<rscale>  0 0.48159470E+03</rscale>
<asrwt>0</asrwt>
<pdfrwt beam="1">  1        2 0.11749028E+00 0.66601354E+03</pdfrwt>
<pdfrwt beam="2">  1       -2 0.73660059E-01 0.66601354E+03</pdfrwt>
<totfact> 0.62070962E+01</totfact>
</mgrwt>
</event>
<event>
 4    1  0.8641401E-007  0.7852439E+03  0.7818608E-02  0.9743660E-01
         -2   -1    0    0    0  501 -0.00000000000E+00  0.00000000000E+00  0.63978662565E+03  0.63978662566E+03  0.25500000000E-02 0.  1.
          2   -1    0    0  501    0  0.00000000000E+00 -0.00000000000E+00 -0.20521368862E+04  0.20521368862E+04  0.25500000000E-02 0. -1.
    8880023    1    1    2    0    0  0.25621081244E+03  0.34227746914E+03 -0.18816385411E+04  0.20389143316E+04  0.65864270000E+03 0. -1.
    8880022    1    1    2    0    0 -0.25621081244E+03 -0.34227746914E+03  0.46928828048E+03  0.65300918026E+03  0.15294330000E+03 0.  0.
<mgrwt>
<rscale>  0 0.68475745E+03</rscale>
<asrwt>0</asrwt>
<pdfrwt beam="1">  1        2 0.31571336E+00 0.78524394E+03</pdfrwt>
<pdfrwt beam="2">  1       -2 0.98428713E-01 0.78524394E+03</pdfrwt>
<totfact> 0.55270967E+00</totfact>
</mgrwt>
</event>
<event>
 4    1  0.8287789E-007  0.8471529E+03  0.7818608E-02  0.9616838E-01
          2   -1    0    0  501    0  0.00000000000E+00  0.00000000000E+00  0.13259287120E+04  0.13259287120E+04  0.25500000000E-02 0. -1.
         -2   -1    0    0    0  501 -0.00000000000E+00 -0.00000000000E+00 -0.64974892722E+03  0.64974892723E+03  0.25500000000E-02 0.  1.
    8880023    1    1    2    0    0  0.53204439086E+03 -0.28046489155E+02  0.10180553805E+04  0.13244262167E+04  0.65864270000E+03 0.  0.
    8880022    1    1    2    0    0 -0.53204439086E+03  0.28046489155E+02 -0.34187559572E+03  0.65125142254E+03  0.15294330000E+03 0.  0.
<mgrwt>
<rscale>  0 0.76191715E+03</rscale>
<asrwt>0</asrwt>
<pdfrwt beam="1">  1        2 0.20398903E+00 0.84715291E+03</pdfrwt>
<pdfrwt beam="2">  1       -2 0.99961375E-01 0.84715291E+03</pdfrwt>
<totfact> 0.13331299E+01</totfact>
</mgrwt>
</event>
<event>
 4    1  0.8287789E-007  0.8192299E+03  0.7818608E-02  0.9670663E-01
          2   -1    0    0  501    0  0.00000000000E+00  0.00000000000E+00  0.27718995432E+04  0.27718995432E+04  0.25500000000E-02 0. -1.
         -2   -1    0    0    0  501 -0.00000000000E+00 -0.00000000000E+00 -0.35481436590E+03  0.35481436591E+03  0.25500000000E-02 0.  1.
    8880023    1    1    2    0    0  0.36512047190E+03  0.32251277036E+03  0.24804089686E+04  0.26121956863E+04  0.65864270000E+03 0. -1.
    8880022    1    1    2    0    0 -0.36512047190E+03 -0.32251277036E+03 -0.63323791253E+02  0.51451822280E+03  0.15294330000E+03 0.  0.
<mgrwt>
<rscale>  0 0.72790710E+03</rscale>
<asrwt>0</asrwt>
<pdfrwt beam="1">  1        2 0.42644610E+00 0.81922991E+03</pdfrwt>
<pdfrwt beam="2">  1       -2 0.54586823E-01 0.81922991E+03</pdfrwt>
<totfact> 0.79345368E+00</totfact>
</mgrwt>
</event>
<event>
 4    1  0.8287789E-007  0.7118200E+03  0.7818608E-02  0.9951304E-01
         -2   -1    0    0    0  501 -0.00000000000E+00  0.00000000000E+00  0.85685296951E+03  0.85685296951E+03  0.25500000000E-02 0.  1.
          2   -1    0    0  501    0  0.00000000000E+00 -0.00000000000E+00 -0.43825787002E+03  0.43825787003E+03  0.25500000000E-02 0. -1.
    8880023    1    1    2    0    0 -0.78031521684E+02 -0.25843481424E+03 -0.71134916951E+02  0.71536553891E+03  0.65864270000E+03 0. -1.
    8880022    1    1    2    0    0  0.78031521684E+02  0.25843481424E+03  0.48973001644E+03  0.57974530063E+03  0.15294330000E+03 0.  0.
<mgrwt>
<rscale>  0 0.57838032E+03</rscale>
<asrwt>0</asrwt>
<pdfrwt beam="1">  1        2 0.67424288E-01 0.71181998E+03</pdfrwt>
<pdfrwt beam="2">  1       -2 0.13182353E+00 0.71181998E+03</pdfrwt>
<totfact> 0.30504781E+01</totfact>
</mgrwt>
</event>
<event>
 4    1  0.8287789E-007  0.7592358E+03  0.7818608E-02  0.9807090E-01
          2   -1    0    0  501    0  0.00000000000E+00  0.00000000000E+00  0.28390669683E+04  0.28390669683E+04  0.25500000000E-02 0. -1.
         -2   -1    0    0    0  501 -0.00000000000E+00 -0.00000000000E+00 -0.17314134904E+03  0.17314134906E+03  0.25500000000E-02 0.  1.
    8880023    1    1    2    0    0 -0.37401187310E+03 -0.52382467401E+02  0.24199636295E+04  0.25362695003E+04  0.65864270000E+03 0. -1.
    8880022    1    1    2    0    0  0.37401187310E+03  0.52382467401E+02  0.24596198978E+03  0.47593881701E+03  0.15294330000E+03 0.  0.
<mgrwt>
<rscale>  0 0.64983442E+03</rscale>
<asrwt>0</asrwt>
<pdfrwt beam="1">  1        2 0.43677947E+00 0.75923581E+03</pdfrwt>
<pdfrwt beam="2">  1       -2 0.26637134E-01 0.75923581E+03</pdfrwt>
<totfact> 0.29387331E+01</totfact>
</mgrwt>
</event>
<event>
 4    1  0.8287789E-007  0.7412808E+03  0.7818608E-02  0.9856232E-01
         -2   -1    0    0    0  501 -0.00000000000E+00  0.00000000000E+00  0.43258275398E+03  0.43258275399E+03  0.25500000000E-02 0.  1.
          2   -1    0    0  501    0  0.00000000000E+00 -0.00000000000E+00 -0.74010196076E+03  0.74010196076E+03  0.25500000000E-02 0. -1.
    8880023    1    1    2    0    0  0.28113881200E+03  0.19143659108E+03 -0.10610030286E+03  0.74883541619E+03  0.65864270000E+03 0.  0.
    8880022    1    1    2    0    0 -0.28113881200E+03 -0.19143659108E+03 -0.20141890392E+03  0.42384929856E+03  0.15294330000E+03 0.  1.
<mgrwt>
<rscale>  0 0.62430184E+03</rscale>
<asrwt>0</asrwt>
<pdfrwt beam="1">  1        2 0.11386184E+00 0.74128079E+03</pdfrwt>
<pdfrwt beam="2">  1       -2 0.66551193E-01 0.74128079E+03</pdfrwt>
<totfact> 0.80197142E+01</totfact>
</mgrwt>
</event>
<event>
 4    1  0.8287789E-007  0.7339530E+03  0.7818608E-02  0.9877925E-01
         -2   -1    0    0    0  501 -0.00000000000E+00  0.00000000000E+00  0.19693035954E+03  0.19693035955E+03  0.25500000000E-02 0.  1.
          2   -1    0    0  501    0  0.00000000000E+00 -0.00000000000E+00 -0.34198342910E+04  0.34198342910E+04  0.25500000000E-02 0. -1.
    8880023    1    1    2    0    0  0.31175122798E+03 -0.87681386143E+02 -0.31710550108E+04  0.32548850888E+04  0.65864270000E+03 0.  0.
    8880022    1    1    2    0    0 -0.31175122798E+03  0.87681386143E+02 -0.51848920676E+02  0.36187956175E+03  0.15294330000E+03 0.  0.
<mgrwt>
<rscale>  0 0.61343169E+03</rscale>
<asrwt>0</asrwt>
<pdfrwt beam="1">  1        2 0.52612831E+00 0.73395304E+03</pdfrwt>
<pdfrwt beam="2">  1       -2 0.30296981E-01 0.73395304E+03</pdfrwt>
<totfact> 0.10045673E+01</totfact>
</mgrwt>
</event>
<event>
 4    1  0.8287789E-007  0.1098917E+04  0.7818608E-02  0.9262263E-01
         -2   -1    0    0    0  501 -0.00000000000E+00  0.00000000000E+00  0.78774982861E+03  0.78774982862E+03  0.25500000000E-02 0.  1.
          2   -1    0    0  501    0  0.00000000000E+00 -0.00000000000E+00 -0.12813780679E+04  0.12813780679E+04  0.25500000000E-02 0. -1.
    8880023    1    1    2    0    0 -0.72511204475E+03 -0.49801598251E+03 -0.13596738514E+03  0.11072961358E+04  0.65864270000E+03 0.  0.
    8880022    1    1    2    0    0  0.72511204475E+03  0.49801598251E+03 -0.35766085410E+03  0.96183176067E+03  0.15294330000E+03 0.  0.
<mgrwt>
<rscale>  0 0.10433244E+04</rscale>
<asrwt>0</asrwt>
<pdfrwt beam="1">  1        2 0.19713509E+00 0.10989166E+04</pdfrwt>
<pdfrwt beam="2">  1       -2 0.12119228E+00 0.10989166E+04</pdfrwt>
<totfact> 0.86398826E+00</totfact>
</mgrwt>
</event>
<event>
 4    1  0.8287789E-007  0.6919361E+03  0.7818608E-02  0.1003246E+00
         -2   -1    0    0    0  501 -0.00000000000E+00  0.00000000000E+00  0.14718633743E+04  0.14718633743E+04  0.25500000000E-02 0.  1.
          2   -1    0    0  501    0  0.00000000000E+00 -0.00000000000E+00 -0.67221515471E+03  0.67221515471E+03  0.25500000000E-02 0. -1.
    8880023    1    1    2    0    0  0.11842519444E+03  0.17590026245E+03 -0.47733209370E+03  0.84060785325E+03  0.65864270000E+03 0. -1.
    8880022    1    1    2    0    0 -0.11842519444E+03 -0.17590026245E+03  0.12769803133E+04  0.13034706758E+04  0.15294330000E+03 0.  0.
<mgrwt>
<rscale>  0 0.54249714E+03</rscale>
<asrwt>0</asrwt>
<pdfrwt beam="1">  1        2 0.10341772E+00 0.69193615E+03</pdfrwt>
<pdfrwt beam="2">  1       -2 0.22644052E+00 0.69193615E+03</pdfrwt>
<totfact> 0.40130290E+00</totfact>
</mgrwt>
</event>
<event>
 4    1  0.8287789E-007  0.8580795E+03  0.7818608E-02  0.9596989E-01
         -2   -1    0    0    0  501 -0.00000000000E+00  0.00000000000E+00  0.24173866164E+03  0.24173866165E+03  0.25500000000E-02 0.  1.
          2   -1    0    0  501    0  0.00000000000E+00 -0.00000000000E+00 -0.31831963906E+04  0.31831963906E+04  0.25500000000E-02 0. -1.
    8880023    1    1    2    0    0 -0.64337888897E+02  0.54621496425E+03 -0.26469943213E+04  0.27826029710E+04  0.65864270000E+03 0.  0.
    8880022    1    1    2    0    0  0.64337888897E+02 -0.54621496425E+03 -0.29446340768E+03  0.64233208124E+03  0.15294330000E+03 0.  0.
<mgrwt>
<rscale>  0 0.77495796E+03</rscale>
<asrwt>0</asrwt>
<pdfrwt beam="1">  1        2 0.48972249E+00 0.85807946E+03</pdfrwt>
<pdfrwt beam="2">  1       -2 0.37190566E-01 0.85807946E+03</pdfrwt>
<totfact> 0.95114290E+00</totfact>
</mgrwt>
</event>
<event>
 4    1  0.8287789E-007  0.9649238E+03  0.7818608E-02  0.9428959E-01
         -2   -1    0    0    0  501 -0.00000000000E+00  0.00000000000E+00  0.47238023337E+03  0.47238023337E+03  0.25500000000E-02 0.  1.
          2   -1    0    0  501    0  0.00000000000E+00 -0.00000000000E+00 -0.17452870999E+04  0.17452870999E+04  0.25500000000E-02 0. -1.
    8880023    1    1    2    0    0  0.54360658277E+03  0.44917655563E+03 -0.11231486318E+04  0.14807230499E+04  0.65864270000E+03 0.  0.
    8880022    1    1    2    0    0 -0.54360658277E+03 -0.44917655563E+03 -0.14975823469E+03  0.73694428340E+03  0.15294330000E+03 0.  0.
<mgrwt>
<rscale>  0 0.89730268E+03</rscale>
<asrwt>0</asrwt>
<pdfrwt beam="1">  1        2 0.26850570E+00 0.96492378E+03</pdfrwt>
<pdfrwt beam="2">  1       -2 0.72673883E-01 0.96492378E+03</pdfrwt>
<totfact> 0.15896964E+01</totfact>
</mgrwt>
</event>
<event>
 4    1  0.8287789E-007  0.6640152E+03  0.7818608E-02  0.1020374E+00
         -2   -1    0    0    0  501 -0.00000000000E+00  0.00000000000E+00  0.29249764058E+03  0.29249764059E+03  0.25500000000E-02 0.  1.
          2   -1    0    0  501    0  0.00000000000E+00 -0.00000000000E+00 -0.62404027305E+03  0.62404027306E+03  0.25500000000E-02 0. -1.
    8880023    1    1    2    0    0 -0.76695266466E+02  0.34983432493E+02 -0.33090913042E+03  0.74190097945E+03  0.65864270000E+03 0. -1.
    8880022    1    1    2    0    0  0.76695266466E+02 -0.34983432493E+02 -0.63350205598E+00  0.17463693420E+03  0.15294330000E+03 0.  1.
<mgrwt>
<rscale>  0 0.47551786E+03</rscale>
<asrwt>0</asrwt>
<pdfrwt beam="1">  1        2 0.96006196E-01 0.66401522E+03</pdfrwt>
<pdfrwt beam="2">  1       -2 0.44999637E-01 0.66401522E+03</pdfrwt>
<totfact> 0.22427029E+02</totfact>
</mgrwt>
</event>
<event>
 4    1  0.8287789E-007  0.6696743E+03  0.7818608E-02  0.1015897E+00
         -2   -1    0    0    0  501 -0.00000000000E+00  0.00000000000E+00  0.43050720852E+03  0.43050720853E+03  0.25500000000E-02 0.  1.
          2   -1    0    0  501    0  0.00000000000E+00 -0.00000000000E+00 -0.11473458712E+04  0.11473458712E+04  0.25500000000E-02 0. -1.
    8880023    1    1    2    0    0  0.92203586684E+02  0.78434045723E+02 -0.10183142990E+04  0.12187812022E+04  0.65864270000E+03 0. -1.
    8880022    1    1    2    0    0 -0.92203586684E+02 -0.78434045723E+02  0.30147563634E+03  0.35907187755E+03  0.15294330000E+03 0.  0.
<mgrwt>
<rscale>  0 0.49196587E+03</rscale>
<asrwt>0</asrwt>
<pdfrwt beam="1">  1        2 0.17651475E+00 0.66967425E+03</pdfrwt>
<pdfrwt beam="2">  1       -2 0.66231879E-01 0.66967425E+03</pdfrwt>
<totfact> 0.43818201E+01</totfact>
</mgrwt>
</event>
<event>
 4    1  0.8287789E-007  0.7051828E+03  0.7818608E-02  0.9976344E-01
         -2   -1    0    0    0  501 -0.00000000000E+00  0.00000000000E+00  0.99897861446E+03  0.99897861447E+03  0.25500000000E-02 0.  1.
          2   -1    0    0  501    0  0.00000000000E+00 -0.00000000000E+00 -0.96919193469E+03  0.96919193469E+03  0.25500000000E-02 0. -1.
    8880023    1    1    2    0    0  0.20492919541E+03  0.14654887007E+03 -0.81247912725E+03  0.10758276279E+04  0.65864270000E+03 0. -1.
    8880022    1    1    2    0    0 -0.20492919541E+03 -0.14654887007E+03  0.84226580702E+03  0.89234292127E+03  0.15294330000E+03 0.  0.
<mgrwt>
<rscale>  0 0.56699780E+03</rscale>
<asrwt>0</asrwt>
<pdfrwt beam="1">  1        2 0.14910645E+00 0.70518278E+03</pdfrwt>
<pdfrwt beam="2">  1       -2 0.15368902E+00 0.70518278E+03</pdfrwt>
<totfact> 0.75864240E+00</totfact>
</mgrwt>
</event>
<event>
 4    1  0.8287789E-007  0.8975364E+03  0.7818608E-02  0.9529998E-01
         -2   -1    0    0    0  501 -0.00000000000E+00  0.00000000000E+00  0.51131848030E+03  0.51131848031E+03  0.25500000000E-02 0.  1.
          2   -1    0    0  501    0  0.00000000000E+00 -0.00000000000E+00 -0.22042022366E+04  0.22042022366E+04  0.25500000000E-02 0. -1.
    8880023    1    1    2    0    0 -0.12414142994E+03  0.59695079726E+03 -0.18598659918E+04  0.20651084869E+04  0.65864270000E+03 0. -1.
    8880022    1    1    2    0    0  0.12414142994E+03 -0.59695079726E+03  0.16698223547E+03  0.65041223002E+03  0.15294330000E+03 0.  0.
<mgrwt>
<rscale>  0 0.82107855E+03</rscale>
<asrwt>0</asrwt>
<pdfrwt beam="1">  1        2 0.33910803E+00 0.89753638E+03</pdfrwt>
<pdfrwt beam="2">  1       -2 0.78664383E-01 0.89753638E+03</pdfrwt>
<totfact> 0.75085971E+00</totfact>
</mgrwt>
</event>
<event>
 4    1  0.8287789E-007  0.8355536E+03  0.7818608E-02  0.9638622E-01
          2   -1    0    0  501    0  0.00000000000E+00  0.00000000000E+00  0.10711550944E+04  0.10711550944E+04  0.25500000000E-02 0. -1.
         -2   -1    0    0    0  501 -0.00000000000E+00 -0.00000000000E+00 -0.50239247740E+03  0.50239247741E+03  0.25500000000E-02 0.  1.
    8880023    1    1    2    0    0 -0.16731850615E+03 -0.48615245495E+03  0.61154148113E+03  0.10354384971E+04  0.65864270000E+03 0.  0.
    8880022    1    1    2    0    0  0.16731850615E+03  0.48615245495E+03 -0.42778864179E+02  0.53810907462E+03  0.15294330000E+03 0.  0.
<mgrwt>
<rscale>  0 0.74791829E+03</rscale>
<asrwt>0</asrwt>
<pdfrwt beam="1">  1        2 0.16479309E+00 0.83555365E+03</pdfrwt>
<pdfrwt beam="2">  1       -2 0.77291151E-01 0.83555365E+03</pdfrwt>
<totfact> 0.34205724E+01</totfact>
</mgrwt>
</event>
<event>
 4    1  0.8307512E-007  0.9929975E+03  0.7818608E-02  0.9390777E-01
         -2   -1    0    0    0  501 -0.00000000000E+00  0.00000000000E+00  0.10251953902E+04  0.10251953902E+04  0.25500000000E-02 0.  1.
          2   -1    0    0  501    0  0.00000000000E+00 -0.00000000000E+00 -0.23547242869E+04  0.23547242869E+04  0.25500000000E-02 0. -1.
    8880023    1    1    2    0    0  0.67297881630E+03  0.31517195186E+03 -0.20849064400E+04  0.23093026904E+04  0.65864270000E+03 0. -1.
    8880022    1    1    2    0    0 -0.67297881630E+03 -0.31517195186E+03  0.75537754321E+03  0.10706169867E+04  0.15294330000E+03 0.  0.
<mgrwt>
<rscale>  0 0.92838608E+03</rscale>
<asrwt>0</asrwt>
<pdfrwt beam="1">  1        2 0.36226527E+00 0.99299751E+03</pdfrwt>
<pdfrwt beam="2">  1       -2 0.15772237E+00 0.99299751E+03</pdfrwt>
<totfact> 0.11097372E+00</totfact>
</mgrwt>
</event>
<event>
 4    1  0.8287789E-007  0.7710662E+03  0.7818608E-02  0.9777257E-01
         -2   -1    0    0    0  501 -0.00000000000E+00  0.00000000000E+00  0.14787886041E+03  0.14787886043E+03  0.25500000000E-02 0.  1.
          2   -1    0    0  501    0  0.00000000000E+00 -0.00000000000E+00 -0.38614829491E+04  0.38614829491E+04  0.25500000000E-02 0. -1.
    8880023    1    1    2    0    0 -0.36994122576E+03 -0.15451964133E+03 -0.33772330084E+04  0.34641370974E+04  0.65864270000E+03 0. -1.
    8880022    1    1    2    0    0  0.36994122576E+03  0.15451964133E+03 -0.33637108026E+03  0.54522471214E+03  0.15294330000E+03 0.  0.
<mgrwt>
<rscale>  0 0.66597462E+03</rscale>
<asrwt>0</asrwt>
<pdfrwt beam="1">  1        2 0.59407422E+00 0.77106617E+03</pdfrwt>
<pdfrwt beam="2">  1       -2 0.22750597E-01 0.77106617E+03</pdfrwt>
<totfact> 0.81634907E+00</totfact>
</mgrwt>
</event>
<event>
 4    1  0.8287789E-007  0.6623754E+03  0.7818608E-02  0.1021845E+00
         -2   -1    0    0    0  501 -0.00000000000E+00  0.00000000000E+00  0.27669756776E+03  0.27669756777E+03  0.25500000000E-02 0.  1.
          2   -1    0    0  501    0  0.00000000000E+00 -0.00000000000E+00 -0.10479978840E+04  0.10479978840E+04  0.25500000000E-02 0. -1.
    8880023    1    1    2    0    0  0.69984062802E+02 -0.57637373604E+01 -0.89670366323E+03  0.11148177679E+04  0.65864270000E+03 0. -1.
    8880022    1    1    2    0    0 -0.69984062802E+02  0.57637373604E+01  0.12540334702E+03  0.20987768384E+03  0.15294330000E+03 0.  0.
<mgrwt>
<rscale>  0 0.47026740E+03</rscale>
<asrwt>0</asrwt>
<pdfrwt beam="1">  1        2 0.16123044E+00 0.66237542E+03</pdfrwt>
<pdfrwt beam="2">  1       -2 0.42568857E-01 0.66237542E+03</pdfrwt>
<totfact> 0.12521494E+02</totfact>
</mgrwt>
</event>
<event>
 4    1  0.8287789E-007  0.8049592E+03  0.7818608E-02  0.9700174E-01
          2   -1    0    0  501    0  0.00000000000E+00  0.00000000000E+00  0.11261853344E+04  0.11261853344E+04  0.25500000000E-02 0. -1.
         -2   -1    0    0    0  501 -0.00000000000E+00 -0.00000000000E+00 -0.75894950644E+03  0.75894950644E+03  0.25500000000E-02 0.  1.
    8880023    1    1    2    0    0 -0.44528005443E+03 -0.12599498065E+03  0.86975483510E+03  0.11850876514E+04  0.65864270000E+03 0. -1.
    8880022    1    1    2    0    0  0.44528005443E+03  0.12599498065E+03 -0.50251900710E+03  0.70004718951E+03  0.15294330000E+03 0.  0.
<mgrwt>
<rscale>  0 0.71006425E+03</rscale>
<asrwt>0</asrwt>
<pdfrwt beam="1">  1        2 0.17325928E+00 0.80495917E+03</pdfrwt>
<pdfrwt beam="2">  1       -2 0.11676146E+00 0.80495917E+03</pdfrwt>
<totfact> 0.12071499E+01</totfact>
</mgrwt>
</event>
<event>
 4    1  0.8287789E-007  0.6797848E+03  0.7818608E-02  0.1009446E+00
          2   -1    0    0  501    0  0.00000000000E+00  0.00000000000E+00  0.18609859247E+04  0.18609859247E+04  0.25500000000E-02 0. -1.
         -2   -1    0    0    0  501 -0.00000000000E+00 -0.00000000000E+00 -0.19303565795E+03  0.19303565796E+03  0.25500000000E-02 0.  1.
    8880023    1    1    2    0    0  0.12015202809E+03  0.11773112784E+03  0.16938809912E+04  0.18251959202E+04  0.65864270000E+03 0. -1.
    8880022    1    1    2    0    0 -0.12015202809E+03 -0.11773112784E+03 -0.25930724500E+02  0.22882566247E+03  0.15294330000E+03 0.  0.
<mgrwt>
<rscale>  0 0.51695544E+03</rscale>
<asrwt>0</asrwt>
<pdfrwt beam="1">  1        2 0.28630552E+00 0.67978477E+03</pdfrwt>
<pdfrwt beam="2">  1       -2 0.29697794E-01 0.67978477E+03</pdfrwt>
<totfact> 0.86084519E+01</totfact>
</mgrwt>
</event>
<event>
 4    1  0.8287789E-007  0.6827829E+03  0.7818608E-02  0.1007791E+00
          2   -1    0    0  501    0  0.00000000000E+00  0.00000000000E+00  0.83732413451E+03  0.83732413452E+03  0.25500000000E-02 0. -1.
         -2   -1    0    0    0  501 -0.00000000000E+00 -0.00000000000E+00 -0.29442953273E+03  0.29442953275E+03  0.25500000000E-02 0.  1.
    8880023    1    1    2    0    0 -0.15795574576E+03 -0.86210479933E+02  0.57598568346E+03  0.89328157839E+03  0.65864270000E+03 0. -1.
    8880022    1    1    2    0    0  0.15795574576E+03  0.86210479933E+02 -0.33091081687E+02  0.23847208887E+03  0.15294330000E+03 0.  1.
<mgrwt>
<rscale>  0 0.52361956E+03</rscale>
<asrwt>0</asrwt>
<pdfrwt beam="1">  1        2 0.12881909E+00 0.68278289E+03</pdfrwt>
<pdfrwt beam="2">  1       -2 0.45296852E-01 0.68278289E+03</pdfrwt>
<totfact> 0.15199770E+02</totfact>
</mgrwt>
</event>
<event>
 4    1  0.8287789E-007  0.7699707E+03  0.7818608E-02  0.9779946E-01
         -2   -1    0    0    0  501 -0.00000000000E+00  0.00000000000E+00  0.52701137433E+03  0.52701137433E+03  0.25500000000E-02 0.  1.
          2   -1    0    0  501    0  0.00000000000E+00 -0.00000000000E+00 -0.11913327891E+04  0.11913327891E+04  0.25500000000E-02 0. -1.
    8880023    1    1    2    0    0  0.38067928898E+03 -0.11886132947E+03  0.16321550802E+03  0.78707956715E+03  0.65864270000E+03 0.  1.
    8880022    1    1    2    0    0 -0.38067928898E+03  0.11886132947E+03 -0.82753692275E+03  0.93126459625E+03  0.15294330000E+03 0.  0.
<mgrwt>
<rscale>  0 0.66449941E+03</rscale>
<asrwt>0</asrwt>
<pdfrwt beam="1">  1        2 0.18328197E+00 0.76997074E+03</pdfrwt>
<pdfrwt beam="2">  1       -2 0.81078673E-01 0.76997074E+03</pdfrwt>
<totfact> 0.26135164E+01</totfact>
</mgrwt>
</event>
<event>
 4    1  0.8287789E-007  0.7624223E+03  0.7818608E-02  0.9798876E-01
          2   -1    0    0  501    0  0.00000000000E+00  0.00000000000E+00  0.38314009334E+04  0.38314009334E+04  0.25500000000E-02 0. -1.
         -2   -1    0    0    0  501 -0.00000000000E+00 -0.00000000000E+00 -0.22872607008E+03  0.22872607009E+03  0.25500000000E-02 0.  1.
    8880023    1    1    2    0    0 -0.37427633607E+03 -0.85992655903E+02  0.35643624271E+04  0.36449920755E+04  0.65864270000E+03 0. -1.
    8880022    1    1    2    0    0  0.37427633607E+03  0.85992655903E+02  0.38312436188E+02  0.41513492794E+03  0.15294330000E+03 0.  0.
<mgrwt>
<rscale>  0 0.65422878E+03</rscale>
<asrwt>0</asrwt>
<pdfrwt beam="1">  1        2 0.58944628E+00 0.76242227E+03</pdfrwt>
<pdfrwt beam="2">  1       -2 0.35188627E-01 0.76242227E+03</pdfrwt>
<totfact> 0.38597198E+00</totfact>
</mgrwt>
</event>
<event>
 4    1  0.8287789E-007  0.7624621E+03  0.7818608E-02  0.9798775E-01
          2   -1    0    0  501    0  0.00000000000E+00  0.00000000000E+00  0.14477625073E+04  0.14477625073E+04  0.25500000000E-02 0. -1.
         -2   -1    0    0    0  501 -0.00000000000E+00 -0.00000000000E+00 -0.25068073793E+03  0.25068073794E+03  0.25500000000E-02 0.  1.
    8880023    1    1    2    0    0 -0.34017023301E+03  0.17838858382E+03  0.94491882597E+03  0.12141746449E+04  0.65864270000E+03 0. -1.
    8880022    1    1    2    0    0  0.34017023301E+03 -0.17838858382E+03  0.25216294336E+03  0.48426860034E+03  0.15294330000E+03 0.  1.
<mgrwt>
<rscale>  0 0.65428350E+03</rscale>
<asrwt>0</asrwt>
<pdfrwt beam="1">  1        2 0.22273269E+00 0.76246212E+03</pdfrwt>
<pdfrwt beam="2">  1       -2 0.38566268E-01 0.76246212E+03</pdfrwt>
<totfact> 0.87801203E+01</totfact>
</mgrwt>
</event>
<event>
 4    1  0.8287789E-007  0.7487746E+03  0.7818608E-02  0.9835087E-01
          2   -1    0    0  501    0  0.00000000000E+00  0.00000000000E+00  0.21051547847E+04  0.21051547847E+04  0.25500000000E-02 0. -1.
         -2   -1    0    0    0  501 -0.00000000000E+00 -0.00000000000E+00 -0.48097776927E+03  0.48097776928E+03  0.25500000000E-02 0.  1.
    8880023    1    1    2    0    0 -0.27433004447E+03 -0.22714814111E+03  0.19442476509E+04  0.20834496360E+04  0.65864270000E+03 0. -1.
    8880022    1    1    2    0    0  0.27433004447E+03  0.22714814111E+03 -0.32007063551E+03  0.50268291799E+03  0.15294330000E+03 0.  0.
<mgrwt>
<rscale>  0 0.63513100E+03</rscale>
<asrwt>0</asrwt>
<pdfrwt beam="1">  1        2 0.32386997E+00 0.74877464E+03</pdfrwt>
<pdfrwt beam="2">  1       -2 0.73996579E-01 0.74877464E+03</pdfrwt>
<totfact> 0.99697374E+00</totfact>
</mgrwt>
</event>
<event>
 4    1  0.8287789E-007  0.8053105E+03  0.7818608E-02  0.9699429E-01
         -2   -1    0    0    0  501 -0.00000000000E+00  0.00000000000E+00  0.32061140837E+03  0.32061140838E+03  0.25500000000E-02 0.  1.
          2   -1    0    0  501    0  0.00000000000E+00 -0.00000000000E+00 -0.40135354562E+04  0.40135354562E+04  0.25500000000E-02 0. -1.
    8880023    1    1    2    0    0  0.45822311043E+03  0.68894070021E+02 -0.37566900093E+04  0.38420365490E+04  0.65864270000E+03 0.  0.
    8880022    1    1    2    0    0 -0.45822311043E+03 -0.68894070021E+02  0.63765961475E+02  0.49211031555E+03  0.15294330000E+03 0.  1.
<mgrwt>
<rscale>  0 0.71050792E+03</rscale>
<asrwt>0</asrwt>
<pdfrwt beam="1">  1        2 0.61746696E+00 0.80531051E+03</pdfrwt>
<pdfrwt beam="2">  1       -2 0.49324835E-01 0.80531051E+03</pdfrwt>
<totfact> 0.14244703E+00</totfact>
</mgrwt>
</event>
<event>
 4    1  0.8287789E-007  0.9218335E+03  0.7818608E-02  0.9491853E-01
         -2   -1    0    0    0  501 -0.00000000000E+00  0.00000000000E+00  0.37239260934E+03  0.37239260935E+03  0.25500000000E-02 0.  1.
          2   -1    0    0  501    0  0.00000000000E+00 -0.00000000000E+00 -0.32824668982E+04  0.32824668982E+04  0.25500000000E-02 0. -1.
    8880023    1    1    2    0    0 -0.40766406094E+03 -0.49977671896E+03 -0.28429022364E+04  0.29886234435E+04  0.65864270000E+03 0. -1.
    8880022    1    1    2    0    0  0.40766406094E+03  0.49977671896E+03 -0.67172052533E+02  0.66623606406E+03  0.15294330000E+03 0.  0.
<mgrwt>
<rscale>  0 0.84887105E+03</rscale>
<asrwt>0</asrwt>
<pdfrwt beam="1">  1        2 0.50499489E+00 0.92183348E+03</pdfrwt>
<pdfrwt beam="2">  1       -2 0.57291173E-01 0.92183348E+03</pdfrwt>
<totfact> 0.34081080E+00</totfact>
</mgrwt>
</event>
<event>
 4    1  0.8287789E-007  0.6636698E+03  0.7818608E-02  0.1020676E+00
          2   -1    0    0  501    0  0.00000000000E+00  0.00000000000E+00  0.54292869760E+03  0.54292869761E+03  0.25500000000E-02 0. -1.
         -2   -1    0    0    0  501 -0.00000000000E+00 -0.00000000000E+00 -0.43587397678E+03  0.43587397678E+03  0.25500000000E-02 0.  1.
    8880023    1    1    2    0    0 -0.46869088168E+02  0.66713802537E+02  0.29224039921E+03  0.72516349885E+03  0.65864270000E+03 0. -1.
    8880022    1    1    2    0    0  0.46869088168E+02 -0.66713802537E+02 -0.18518567838E+03  0.25363917554E+03  0.15294330000E+03 0.  0.
<mgrwt>
<rscale>  0 0.47443303E+03</rscale>
<asrwt>0</asrwt>
<pdfrwt beam="1">  1        2 0.83527492E-01 0.66366983E+03</pdfrwt>
<pdfrwt beam="2">  1       -2 0.67057535E-01 0.66366983E+03</pdfrwt>
<totfact> 0.11590232E+02</totfact>
</mgrwt>
</event>
<event>
 4    1  0.8287789E-007  0.8496881E+03  0.7818608E-02  0.9612176E-01
          2   -1    0    0  501    0  0.00000000000E+00  0.00000000000E+00  0.30559476731E+04  0.30559476731E+04  0.25500000000E-02 0. -1.
         -2   -1    0    0    0  501 -0.00000000000E+00 -0.00000000000E+00 -0.50145885245E+03  0.50145885246E+03  0.25500000000E-02 0.  1.
    8880023    1    1    2    0    0  0.51273797554E+03  0.15893230433E+03  0.28157217396E+04  0.29411322360E+04  0.65864270000E+03 0.  0.
    8880022    1    1    2    0    0 -0.51273797554E+03 -0.15893230433E+03 -0.26123291896E+03  0.61627428949E+03  0.15294330000E+03 0.  0.
<mgrwt>
<rscale>  0 0.76495497E+03</rscale>
<asrwt>0</asrwt>
<pdfrwt beam="1">  1        2 0.47014579E+00 0.84968813E+03</pdfrwt>
<pdfrwt beam="2">  1       -2 0.77147517E-01 0.84968813E+03</pdfrwt>
<totfact> 0.25245914E+00</totfact>
</mgrwt>
</event>
<event>
 4    1  0.8287789E-007  0.8430976E+03  0.7818608E-02  0.9624367E-01
          2   -1    0    0  501    0  0.00000000000E+00  0.00000000000E+00  0.26334086922E+04  0.26334086922E+04  0.25500000000E-02 0. -1.
         -2   -1    0    0    0  501 -0.00000000000E+00 -0.00000000000E+00 -0.38827389496E+03  0.38827389497E+03  0.25500000000E-02 0.  1.
    8880023    1    1    2    0    0 -0.31227513267E+03  0.42365981201E+03  0.23200618457E+04  0.24685016851E+04  0.65864270000E+03 0.  0.
    8880022    1    1    2    0    0  0.31227513267E+03 -0.42365981201E+03 -0.74927048545E+02  0.55318090207E+03  0.15294330000E+03 0.  0.
<mgrwt>
<rscale>  0 0.75704204E+03</rscale>
<asrwt>0</asrwt>
<pdfrwt beam="1">  1        2 0.40513981E+00 0.84309762E+03</pdfrwt>
<pdfrwt beam="2">  1       -2 0.59734444E-01 0.84309762E+03</pdfrwt>
<totfact> 0.78854038E+00</totfact>
</mgrwt>
</event>
<event>
 4    1  0.8287789E-007  0.6808232E+03  0.7818608E-02  0.1008862E+00
         -2   -1    0    0    0  501 -0.00000000000E+00  0.00000000000E+00  0.75887242727E+03  0.75887242727E+03  0.25500000000E-02 0.  1.
          2   -1    0    0  501    0  0.00000000000E+00 -0.00000000000E+00 -0.30458120074E+04  0.30458120074E+04  0.25500000000E-02 0. -1.
    8880023    1    1    2    0    0  0.32980962899E+02  0.16918127270E+03 -0.29891119192E+04  0.30656663743E+04  0.65864270000E+03 0. -1.
    8880022    1    1    2    0    0 -0.32980962899E+02 -0.16918127270E+03  0.70217233900E+03  0.73901806041E+03  0.15294330000E+03 0.  0.
<mgrwt>
<rscale>  0 0.51929522E+03</rscale>
<asrwt>0</asrwt>
<pdfrwt beam="1">  1        2 0.46858645E+00 0.68082322E+03</pdfrwt>
<pdfrwt beam="2">  1       -2 0.11674961E+00 0.68082322E+03</pdfrwt>
<totfact> 0.10070605E+00</totfact>
</mgrwt>
</event>
<event>
 4    1  0.8287789E-007  0.8222502E+03  0.7818608E-02  0.9664603E-01
          2   -1    0    0  501    0  0.00000000000E+00  0.00000000000E+00  0.11425827717E+04  0.11425827717E+04  0.25500000000E-02 0. -1.
         -2   -1    0    0    0  501 -0.00000000000E+00 -0.00000000000E+00 -0.77206461466E+03  0.77206461466E+03  0.25500000000E-02 0.  1.
    8880023    1    1    2    0    0  0.30321335180E+03  0.38774587511E+03  0.86987612340E+03  0.11969878348E+04  0.65864270000E+03 0. -1.
    8880022    1    1    2    0    0 -0.30321335180E+03 -0.38774587511E+03 -0.49935796634E+03  0.71765955156E+03  0.15294330000E+03 0.  0.
<mgrwt>
<rscale>  0 0.73163961E+03</rscale>
<asrwt>0</asrwt>
<pdfrwt beam="1">  1        2 0.17578196E+00 0.82225021E+03</pdfrwt>
<pdfrwt beam="2">  1       -2 0.11877917E+00 0.82225021E+03</pdfrwt>
<totfact> 0.11289714E+01</totfact>
</mgrwt>
</event>
<event>
 4    1  0.8287789E-007  0.1351971E+04  0.7818608E-02  0.9021930E-01
         -2   -1    0    0    0  501 -0.00000000000E+00  0.00000000000E+00  0.21145881808E+04  0.21145881808E+04  0.25500000000E-02 0.  1.
          2   -1    0    0  501    0  0.00000000000E+00 -0.00000000000E+00 -0.13967802432E+04  0.13967802432E+04  0.25500000000E-02 0. -1.
    8880023    1    1    2    0    0  0.71997992242E+03  0.93575896999E+03 -0.80878282118E+03  0.15754224185E+04  0.65864270000E+03 0. -1.
    8880022    1    1    2    0    0 -0.71997992242E+03 -0.93575896999E+03  0.15265907587E+04  0.19359460055E+04  0.15294330000E+03 0.  0.
<mgrwt>
<rscale>  0 0.13096716E+04</rscale>
<asrwt>0</asrwt>
<pdfrwt beam="1">  1        2 0.21488927E+00 0.13519712E+04</pdfrwt>
<pdfrwt beam="2">  1       -2 0.32532126E+00 0.13519712E+04</pdfrwt>
<totfact> 0.30931033E-01</totfact>
</mgrwt>
</event>
<event>
 4    1  0.8287789E-007  0.7001141E+03  0.7818608E-02  0.9996728E-01
          2   -1    0    0  501    0  0.00000000000E+00  0.00000000000E+00  0.51077946677E+03  0.51077946678E+03  0.25500000000E-02 0. -1.
         -2   -1    0    0    0  501 -0.00000000000E+00 -0.00000000000E+00 -0.55830610383E+03  0.55830610384E+03  0.25500000000E-02 0.  1.
    8880023    1    1    2    0    0  0.14697659100E+03 -0.18640675754E+03  0.16058935660E+03  0.71829572272E+03  0.65864270000E+03 0. -1.
    8880022    1    1    2    0    0 -0.14697659100E+03  0.18640675754E+03 -0.20811599366E+03  0.35078984790E+03  0.15294330000E+03 0.  1.
<mgrwt>
<rscale>  0 0.55793938E+03</rscale>
<asrwt>0</asrwt>
<pdfrwt beam="1">  1        2 0.78581456E-01 0.70011414E+03</pdfrwt>
<pdfrwt beam="2">  1       -2 0.85893247E-01 0.70011414E+03</pdfrwt>
<totfact> 0.71698093E+01</totfact>
</mgrwt>
</event>
<event>
 4    1  0.8287789E-007  0.8229915E+03  0.7818608E-02  0.9663126E-01
          2   -1    0    0  501    0  0.00000000000E+00  0.00000000000E+00  0.15412541090E+04  0.15412541090E+04  0.25500000000E-02 0. -1.
         -2   -1    0    0    0  501 -0.00000000000E+00 -0.00000000000E+00 -0.35745438846E+03  0.35745438847E+03  0.25500000000E-02 0.  1.
    8880023    1    1    2    0    0  0.49309443467E+03 -0.19044688287E+02  0.11023946365E+04  0.13757139828E+04  0.65864270000E+03 0.  0.
    8880022    1    1    2    0    0 -0.49309443467E+03  0.19044688287E+02  0.81405084046E+02  0.52299451467E+03  0.15294330000E+03 0.  0.
<mgrwt>
<rscale>  0 0.73255354E+03</rscale>
<asrwt>0</asrwt>
<pdfrwt beam="1">  1        2 0.23711602E+00 0.82299151E+03</pdfrwt>
<pdfrwt beam="2">  1       -2 0.54992983E-01 0.82299151E+03</pdfrwt>
<totfact> 0.37992502E+01</totfact>
</mgrwt>
</event>
<event>
 4    1  0.8287789E-007  0.1183160E+04  0.7818608E-02  0.9173668E-01
          2   -1    0    0  501    0  0.00000000000E+00  0.00000000000E+00  0.11324932218E+04  0.11324932218E+04  0.25500000000E-02 0. -1.
         -2   -1    0    0    0  501 -0.00000000000E+00 -0.00000000000E+00 -0.18984669498E+04  0.18984669498E+04  0.25500000000E-02 0.  1.
    8880023    1    1    2    0    0 -0.82092889740E+03  0.54049411735E+03 -0.14140566369E+04  0.18437528370E+04  0.65864270000E+03 0.  0.
    8880022    1    1    2    0    0  0.82092889740E+03 -0.54049411735E+03  0.64808290888E+03  0.11872073346E+04  0.15294330000E+03 0.  0.
<mgrwt>
<rscale>  0 0.11329400E+04</rscale>
<asrwt>0</asrwt>
<pdfrwt beam="1">  1        2 0.17422973E+00 0.11831603E+04</pdfrwt>
<pdfrwt beam="2">  1       -2 0.29207184E+00 0.11831603E+04</pdfrwt>
<totfact> 0.72345928E-01</totfact>
</mgrwt>
</event>
<event>
 4    1  0.8287789E-007  0.7060279E+03  0.7818608E-02  0.9973058E-01
         -2   -1    0    0    0  501 -0.00000000000E+00  0.00000000000E+00  0.68997773413E+03  0.68997773413E+03  0.25500000000E-02 0.  1.
          2   -1    0    0  501    0  0.00000000000E+00 -0.00000000000E+00 -0.72224520752E+03  0.72224520752E+03  0.25500000000E-02 0. -1.
    8880023    1    1    2    0    0  0.21756708079E+03 -0.13164258138E+03 -0.49517713912E+03  0.86236640081E+03  0.65864270000E+03 0. -1.
    8880022    1    1    2    0    0 -0.21756708079E+03  0.13164258138E+03  0.46290966572E+03  0.54985654085E+03  0.15294330000E+03 0.  0.
<mgrwt>
<rscale>  0 0.56847556E+03</rscale>
<asrwt>0</asrwt>
<pdfrwt beam="1">  1        2 0.11111465E+00 0.70602791E+03</pdfrwt>
<pdfrwt beam="2">  1       -2 0.10615042E+00 0.70602791E+03</pdfrwt>
<totfact> 0.28688787E+01</totfact>
</mgrwt>
</event>
<event>
 4    1  0.8287789E-007  0.6774818E+03  0.7818608E-02  0.1010785E+00
         -2   -1    0    0    0  501 -0.00000000000E+00  0.00000000000E+00  0.50981534223E+03  0.50981534223E+03  0.25500000000E-02 0.  1.
          2   -1    0    0  501    0  0.00000000000E+00 -0.00000000000E+00 -0.17848070252E+04  0.17848070252E+04  0.25500000000E-02 0. -1.
    8880023    1    1    2    0    0 -0.13351332529E+03  0.85706627143E+02 -0.16922061411E+04  0.18227844810E+04  0.65864270000E+03 0. -1.
    8880022    1    1    2    0    0  0.13351332529E+03 -0.85706627143E+02  0.41721445813E+03  0.47183788642E+03  0.15294330000E+03 0.  0.
<mgrwt>
<rscale>  0 0.51163651E+03</rscale>
<asrwt>0</asrwt>
<pdfrwt beam="1">  1        2 0.27458569E+00 0.67748184E+03</pdfrwt>
<pdfrwt beam="2">  1       -2 0.78433130E-01 0.67748184E+03</pdfrwt>
<totfact> 0.13238013E+01</totfact>
</mgrwt>
</event>
<event>
 4    1  0.8287789E-007  0.6731790E+03  0.7818608E-02  0.1013479E+00
         -2   -1    0    0    0  501 -0.00000000000E+00  0.00000000000E+00  0.11447949143E+03  0.11447949146E+03  0.25500000000E-02 0.  1.
          2   -1    0    0  501    0  0.00000000000E+00 -0.00000000000E+00 -0.25720146620E+04  0.25720146620E+04  0.25500000000E-02 0. -1.
    8880023    1    1    2    0    0 -0.13843406285E+03  0.13991934152E+02 -0.23668428961E+04  0.24607143811E+04  0.65864270000E+03 0. -1.
    8880022    1    1    2    0    0  0.13843406285E+03 -0.13991934152E+02 -0.90692274488E+02  0.22577977244E+03  0.15294330000E+03 0.  0.
<mgrwt>
<rscale>  0 0.50114885E+03</rscale>
<asrwt>0</asrwt>
<pdfrwt beam="1">  1        2 0.39569452E+00 0.67317900E+03</pdfrwt>
<pdfrwt beam="2">  1       -2 0.17612231E-01 0.67317900E+03</pdfrwt>
<totfact> 0.88449865E+01</totfact>
</mgrwt>
</event>
<event>
 4    1  0.8287789E-007  0.7450456E+03  0.7818608E-02  0.9845486E-01
         -2   -1    0    0    0  501 -0.00000000000E+00  0.00000000000E+00  0.35410032010E+03  0.35410032011E+03  0.25500000000E-02 0.  1.
          2   -1    0    0  501    0  0.00000000000E+00 -0.00000000000E+00 -0.11162582347E+04  0.11162582347E+04  0.25500000000E-02 0. -1.
    8880023    1    1    2    0    0 -0.27085959936E+03 -0.21890130478E+03 -0.79381197899E+03  0.10886828593E+04  0.65864270000E+03 0. -1.
    8880022    1    1    2    0    0  0.27085959936E+03  0.21890130478E+03  0.31654064344E+02  0.38167569559E+03  0.15294330000E+03 0.  0.
<mgrwt>
<rscale>  0 0.62977596E+03</rscale>
<asrwt>0</asrwt>
<pdfrwt beam="1">  1        2 0.17173203E+00 0.74504558E+03</pdfrwt>
<pdfrwt beam="2">  1       -2 0.54476973E-01 0.74504558E+03</pdfrwt>
<totfact> 0.68616953E+01</totfact>
</mgrwt>
</event>
<event>
 4    1  0.8287789E-007  0.8665185E+03  0.7818608E-02  0.9582072E-01
          2   -1    0    0  501    0  0.00000000000E+00  0.00000000000E+00  0.43296541939E+04  0.43296541939E+04  0.25500000000E-02 0. -1.
         -2   -1    0    0    0  501 -0.00000000000E+00 -0.00000000000E+00 -0.13948241454E+03  0.13948241456E+03  0.25500000000E-02 0.  1.
    8880023    1    1    2    0    0  0.12352413411E+03 -0.54935043345E+03  0.32421755325E+04  0.33559732568E+04  0.65864270000E+03 0.  1.
    8880022    1    1    2    0    0 -0.12352413411E+03  0.54935043345E+03  0.94799624690E+03  0.11131633517E+04  0.15294330000E+03 0.  0.
<mgrwt>
<rscale>  0 0.78494238E+03</rscale>
<asrwt>0</asrwt>
<pdfrwt beam="1">  1        2 0.66610061E+00 0.86651850E+03</pdfrwt>
<pdfrwt beam="2">  1       -2 0.21458834E-01 0.86651850E+03</pdfrwt>
<totfact> 0.36773643E+00</totfact>
</mgrwt>
</event>
<event>
 4    1  0.8287789E-007  0.6766632E+03  0.7818608E-02  0.1011278E+00
          2   -1    0    0  501    0  0.00000000000E+00  0.00000000000E+00  0.27565341485E+04  0.27565341485E+04  0.25500000000E-02 0. -1.
         -2   -1    0    0    0  501 -0.00000000000E+00 -0.00000000000E+00 -0.15393979707E+03  0.15393979709E+03  0.25500000000E-02 0.  1.
    8880023    1    1    2    0    0 -0.14264384769E+03  0.60955771201E+02  0.26061928582E+04  0.26926036273E+04  0.65864270000E+03 0. -1.
    8880022    1    1    2    0    0  0.14264384769E+03 -0.60955771201E+02 -0.35985067802E+01  0.21787031829E+03  0.15294330000E+03 0.  0.
<mgrwt>
<rscale>  0 0.50969940E+03</rscale>
<asrwt>0</asrwt>
<pdfrwt beam="1">  1        2 0.42408214E+00 0.67666320E+03</pdfrwt>
<pdfrwt beam="2">  1       -2 0.23683048E-01 0.67666320E+03</pdfrwt>
<totfact> 0.41166573E+01</totfact>
</mgrwt>
</event>
<event>
 4    1  0.8287789E-007  0.7640001E+03  0.7818608E-02  0.9794860E-01
          2   -1    0    0  501    0  0.00000000000E+00  0.00000000000E+00  0.22384957260E+03  0.22384957261E+03  0.25500000000E-02 0. -1.
         -2   -1    0    0    0  501 -0.00000000000E+00 -0.00000000000E+00 -0.26091936286E+04  0.26091936286E+04  0.25500000000E-02 0.  1.
    8880023    1    1    2    0    0 -0.18114357012E+03 -0.34215915246E+03 -0.52573104283E+03  0.92740994941E+03  0.65864270000E+03 0.  0.
    8880022    1    1    2    0    0  0.18114357012E+03  0.34215915246E+03 -0.18596130132E+04  0.19056332518E+04  0.15294330000E+03 0.  0.
<mgrwt>
<rscale>  0 0.65639131E+03</rscale>
<asrwt>0</asrwt>
<pdfrwt beam="1">  1        2 0.34438398E-01 0.76400006E+03</pdfrwt>
<pdfrwt beam="2">  1       -2 0.40141438E+00 0.76400006E+03</pdfrwt>
<totfact> 0.11716920E+00</totfact>
</mgrwt>
</event>
<event>
 4    1  0.8287789E-007  0.7966089E+03  0.7818608E-02  0.9718177E-01
          2   -1    0    0  501    0  0.00000000000E+00  0.00000000000E+00  0.25918894469E+04  0.25918894469E+04  0.25500000000E-02 0. -1.
         -2   -1    0    0    0  501 -0.00000000000E+00 -0.00000000000E+00 -0.23305140966E+03  0.23305140967E+03  0.25500000000E-02 0.  1.
    8880023    1    1    2    0    0 -0.39538116654E+03  0.21082986714E+03  0.58322491349E+03  0.98728770159E+03  0.65864270000E+03 0.  1.
    8880022    1    1    2    0    0  0.39538116654E+03 -0.21082986714E+03  0.17756131237E+04  0.18376531550E+04  0.15294330000E+03 0.  0.
<mgrwt>
<rscale>  0 0.69944787E+03</rscale>
<asrwt>0</asrwt>
<pdfrwt beam="1">  1        2 0.39875222E+00 0.79660888E+03</pdfrwt>
<pdfrwt beam="2">  1       -2 0.35854063E-01 0.79660888E+03</pdfrwt>
<totfact> 0.23404315E+01</totfact>
</mgrwt>
</event>
<event>
 4    1  0.8287789E-007  0.7789590E+03  0.7818608E-02  0.9758288E-01
          2   -1    0    0  501    0  0.00000000000E+00  0.00000000000E+00  0.35512802616E+03  0.35512802617E+03  0.25500000000E-02 0. -1.
         -2   -1    0    0    0  501 -0.00000000000E+00 -0.00000000000E+00 -0.16242787795E+04  0.16242787795E+04  0.25500000000E-02 0.  1.
    8880023    1    1    2    0    0 -0.40308732436E+03  0.10240854073E+03 -0.17421520497E+03  0.79820300938E+03  0.65864270000E+03 0. -1.
    8880022    1    1    2    0    0  0.40308732436E+03 -0.10240854073E+03 -0.10949355484E+04  0.11812037963E+04  0.15294330000E+03 0.  0.
<mgrwt>
<rscale>  0 0.67649902E+03</rscale>
<asrwt>0</asrwt>
<pdfrwt beam="1">  1        2 0.54635082E-01 0.77895899E+03</pdfrwt>
<pdfrwt beam="2">  1       -2 0.24988904E+00 0.77895899E+03</pdfrwt>
<totfact> 0.59943881E+00</totfact>
</mgrwt>
</event>
<event>
 4    1  0.8287789E-007  0.7568575E+03  0.7818608E-02  0.9813312E-01
         -2   -1    0    0    0  501 -0.00000000000E+00  0.00000000000E+00  0.32357913976E+03  0.32357913977E+03  0.25500000000E-02 0.  1.
          2   -1    0    0  501    0  0.00000000000E+00 -0.00000000000E+00 -0.24257562443E+04  0.24257562443E+04  0.25500000000E-02 0. -1.
    8880023    1    1    2    0    0 -0.17104573728E+03 -0.33131013113E+03 -0.22067904454E+04  0.23329717794E+04  0.65864270000E+03 0. -1.
    8880022    1    1    2    0    0  0.17104573728E+03  0.33131013113E+03  0.10461334084E+03  0.41636360471E+03  0.15294330000E+03 0.  0.
<mgrwt>
<rscale>  0 0.64653010E+03</rscale>
<asrwt>0</asrwt>
<pdfrwt beam="1">  1        2 0.37319326E+00 0.75685749E+03</pdfrwt>
<pdfrwt beam="2">  1       -2 0.49781408E-01 0.75685749E+03</pdfrwt>
<totfact> 0.15316666E+01</totfact>
</mgrwt>
</event>
<event>
 4    1  0.8287789E-007  0.8385539E+03  0.7818608E-02  0.9632913E-01
          2   -1    0    0  501    0  0.00000000000E+00  0.00000000000E+00  0.24565822209E+04  0.24565822209E+04  0.25500000000E-02 0. -1.
         -2   -1    0    0    0  501 -0.00000000000E+00 -0.00000000000E+00 -0.28395248634E+03  0.28395248635E+03  0.25500000000E-02 0.  1.
    8880023    1    1    2    0    0 -0.22321438235E+03  0.46854859934E+03  0.20062795919E+04  0.21744724550E+04  0.65864270000E+03 0. -1.
    8880022    1    1    2    0    0  0.22321438235E+03 -0.46854859934E+03  0.16635014263E+03  0.56606225223E+03  0.15294330000E+03 0.  0.
<mgrwt>
<rscale>  0 0.75155560E+03</rscale>
<asrwt>0</asrwt>
<pdfrwt beam="1">  1        2 0.37793572E+00 0.83855391E+03</pdfrwt>
<pdfrwt beam="2">  1       -2 0.43684999E-01 0.83855391E+03</pdfrwt>
<totfact> 0.18908461E+01</totfact>
</mgrwt>
</event>
<event>
 4    1  0.8287789E-007  0.7918280E+03  0.7818608E-02  0.9728752E-01
          2   -1    0    0  501    0  0.00000000000E+00  0.00000000000E+00  0.17466766765E+04  0.17466766765E+04  0.25500000000E-02 0. -1.
         -2   -1    0    0    0  501 -0.00000000000E+00 -0.00000000000E+00 -0.62875828229E+03  0.62875828229E+03  0.25500000000E-02 0.  1.
    8880023    1    1    2    0    0 -0.19014874912E+03  0.39626359220E+03  0.15499095941E+04  0.17404629664E+04  0.65864270000E+03 0.  0.
    8880022    1    1    2    0    0  0.19014874912E+03 -0.39626359220E+03 -0.43199119990E+03  0.63497199237E+03  0.15294330000E+03 0.  0.
<mgrwt>
<rscale>  0 0.69330398E+03</rscale>
<asrwt>0</asrwt>
<pdfrwt beam="1">  1        2 0.26871949E+00 0.79182800E+03</pdfrwt>
<pdfrwt beam="2">  1       -2 0.96732044E-01 0.79182800E+03</pdfrwt>
<totfact> 0.84477015E+00</totfact>
</mgrwt>
</event>
<event>
 4    1  0.8287789E-007  0.6973055E+03  0.7818608E-02  0.1000857E+00
         -2   -1    0    0    0  501 -0.00000000000E+00  0.00000000000E+00  0.26379631990E+03  0.26379631991E+03  0.25500000000E-02 0.  1.
          2   -1    0    0  501    0  0.00000000000E+00 -0.00000000000E+00 -0.17468001703E+04  0.17468001703E+04  0.25500000000E-02 0. -1.
    8880023    1    1    2    0    0  0.37443780711E+02 -0.22588193822E+03 -0.15732330888E+04  0.17208420162E+04  0.65864270000E+03 0. -1.
    8880022    1    1    2    0    0 -0.37443780711E+02  0.22588193822E+03  0.90229238414E+02  0.28975447401E+03  0.15294330000E+03 0.  0.
<mgrwt>
<rscale>  0 0.55276132E+03</rscale>
<asrwt>0</asrwt>
<pdfrwt beam="1">  1        2 0.26873848E+00 0.69730545E+03</pdfrwt>
<pdfrwt beam="2">  1       -2 0.40584050E-01 0.69730545E+03</pdfrwt>
<totfact> 0.54755314E+01</totfact>
</mgrwt>
</event>
<event>
 4    1  0.8287789E-007  0.1148896E+04  0.7818608E-02  0.9208474E-01
         -2   -1    0    0    0  501 -0.00000000000E+00  0.00000000000E+00  0.51718477974E+03  0.51718477975E+03  0.25500000000E-02 0.  1.
          2   -1    0    0  501    0  0.00000000000E+00 -0.00000000000E+00 -0.26427791302E+04  0.26427791302E+04  0.25500000000E-02 0. -1.
    8880023    1    1    2    0    0  0.66834337399E+03 -0.66292455356E+03 -0.45380010425E+03  0.12352718608E+04  0.65864270000E+03 0.  1.
    8880022    1    1    2    0    0 -0.66834337399E+03  0.66292455356E+03 -0.16717942462E+04  0.19246920491E+04  0.15294330000E+03 0.  0.
<mgrwt>
<rscale>  0 0.10966385E+04</rscale>
<asrwt>0</asrwt>
<pdfrwt beam="1">  1        2 0.40658140E+00 0.11488960E+04</pdfrwt>
<pdfrwt beam="2">  1       -2 0.79566891E-01 0.11488960E+04</pdfrwt>
<totfact> 0.39942664E+00</totfact>
</mgrwt>
</event>
<event>
 4    1  0.8287789E-007  0.1050434E+04  0.7818608E-02  0.9318360E-01
         -2   -1    0    0    0  501 -0.00000000000E+00  0.00000000000E+00  0.85241380208E+03  0.85241380208E+03  0.25500000000E-02 0.  1.
          2   -1    0    0  501    0  0.00000000000E+00 -0.00000000000E+00 -0.12572271985E+04  0.12572271985E+04  0.25500000000E-02 0. -1.
    8880023    1    1    2    0    0  0.80129857934E+03  0.16589586571E+03 -0.65802727163E+03  0.12395204508E+04  0.65864270000E+03 0. -1.
    8880022    1    1    2    0    0 -0.80129857934E+03 -0.16589586571E+03  0.25321387521E+03  0.87012054977E+03  0.15294330000E+03 0.  0.
<mgrwt>
<rscale>  0 0.99110021E+03</rscale>
<asrwt>0</asrwt>
<pdfrwt beam="1">  1        2 0.19341957E+00 0.10504337E+04</pdfrwt>
<pdfrwt beam="2">  1       -2 0.13114058E+00 0.10504337E+04</pdfrwt>
<totfact> 0.73458579E+00</totfact>
</mgrwt>
</event>
<event>
 4    1  0.8287789E-007  0.7723141E+03  0.7818608E-02  0.9774211E-01
         -2   -1    0    0    0  501 -0.00000000000E+00  0.00000000000E+00  0.32784237911E+04  0.32784237911E+04  0.25500000000E-02 0.  1.
          2   -1    0    0  501    0  0.00000000000E+00 -0.00000000000E+00 -0.14524375742E+03  0.14524375744E+03  0.25500000000E-02 0. -1.
    8880023    1    1    2    0    0  0.15956895741E+01  0.40330673741E+03  0.10926118842E+04  0.13380096436E+04  0.65864270000E+03 0. -1.
    8880022    1    1    2    0    0 -0.15956895741E+01 -0.40330673741E+03  0.20405681495E+04  0.20856579049E+04  0.15294330000E+03 0.  0.
<mgrwt>
<rscale>  0 0.66765074E+03</rscale>
<asrwt>0</asrwt>
<pdfrwt beam="1">  1        2 0.22345195E-01 0.77231411E+03</pdfrwt>
<pdfrwt beam="2">  1       -2 0.50437286E+00 0.77231411E+03</pdfrwt>
<totfact> 0.40627625E-01</totfact>
</mgrwt>
</event>
<event>
 4    1  0.8287789E-007  0.1158899E+04  0.7818608E-02  0.9198150E-01
         -2   -1    0    0    0  501 -0.00000000000E+00  0.00000000000E+00  0.14414557139E+04  0.14414557139E+04  0.25500000000E-02 0.  1.
          2   -1    0    0  501    0  0.00000000000E+00 -0.00000000000E+00 -0.11056487952E+04  0.11056487952E+04  0.25500000000E-02 0. -1.
    8880023    1    1    2    0    0  0.56079240253E+03 -0.77119882320E+03 -0.50735846818E+03  0.12650923149E+04  0.65864270000E+03 0.  0.
    8880022    1    1    2    0    0 -0.56079240253E+03  0.77119882320E+03  0.84316538684E+03  0.12820121943E+04  0.15294330000E+03 0.  0.
<mgrwt>
<rscale>  0 0.11072549E+04</rscale>
<asrwt>0</asrwt>
<pdfrwt beam="1">  1        2 0.17009982E+00 0.11588986E+04</pdfrwt>
<pdfrwt beam="2">  1       -2 0.22176242E+00 0.11588986E+04</pdfrwt>
<totfact> 0.20321660E+00</totfact>
</mgrwt>
</event>
<event>
 4    1  0.8287789E-007  0.6624295E+03  0.7818608E-02  0.1021795E+00
         -2   -1    0    0    0  501 -0.00000000000E+00  0.00000000000E+00  0.71620669193E+03  0.71620669193E+03  0.25500000000E-02 0.  1.
          2   -1    0    0  501    0  0.00000000000E+00 -0.00000000000E+00 -0.76264681645E+03  0.76264681645E+03  0.25500000000E-02 0. -1.
    8880023    1    1    2    0    0  0.53384203488E+02 -0.46397399618E+02 -0.60395924060E+03  0.89642599385E+03  0.65864270000E+03 0. -1.
    8880022    1    1    2    0    0 -0.53384203488E+02  0.46397399618E+02  0.55751911609E+03  0.58242751454E+03  0.15294330000E+03 0.  0.
<mgrwt>
<rscale>  0 0.47044464E+03</rscale>
<asrwt>0</asrwt>
<pdfrwt beam="1">  1        2 0.11733028E+00 0.66242947E+03</pdfrwt>
<pdfrwt beam="2">  1       -2 0.11018564E+00 0.66242947E+03</pdfrwt>
<totfact> 0.24555933E+01</totfact>
</mgrwt>
</event>
<event>
 4    1  0.8287789E-007  0.6924990E+03  0.7818608E-02  0.1002987E+00
          2   -1    0    0  501    0  0.00000000000E+00  0.00000000000E+00  0.22345544437E+04  0.22345544437E+04  0.25500000000E-02 0. -1.
         -2   -1    0    0    0  501 -0.00000000000E+00 -0.00000000000E+00 -0.13522145603E+03  0.13522145606E+03  0.25500000000E-02 0.  1.
    8880023    1    1    2    0    0 -0.70037226398E+01 -0.21376541909E+03  0.19456617640E+04  0.20652250756E+04  0.65864270000E+03 0. -1.
    8880022    1    1    2    0    0  0.70037226398E+01  0.21376541909E+03  0.15367122367E+03  0.30455082421E+03  0.15294330000E+03 0.  0.
<mgrwt>
<rscale>  0 0.54359780E+03</rscale>
<asrwt>0</asrwt>
<pdfrwt beam="1">  1        2 0.34377761E+00 0.69249903E+03</pdfrwt>
<pdfrwt beam="2">  1       -2 0.20803301E-01 0.69249903E+03</pdfrwt>
<totfact> 0.10205802E+02</totfact>
</mgrwt>
</event>
<event>
 4    1  0.8287789E-007  0.1110479E+04  0.7818608E-02  0.9249478E-01
         -2   -1    0    0    0  501 -0.00000000000E+00  0.00000000000E+00  0.92346948989E+03  0.92346948990E+03  0.25500000000E-02 0.  1.
          2   -1    0    0  501    0  0.00000000000E+00 -0.00000000000E+00 -0.16243463412E+04  0.16243463412E+04  0.25500000000E-02 0. -1.
    8880023    1    1    2    0    0  0.64007635161E+03 -0.62422412024E+03 -0.10943545884E+04  0.15590944999E+04  0.65864270000E+03 0.  0.
    8880022    1    1    2    0    0 -0.64007635161E+03  0.62422412024E+03  0.39347773709E+03  0.98872133121E+03  0.15294330000E+03 0.  0.
<mgrwt>
<rscale>  0 0.10557010E+04</rscale>
<asrwt>0</asrwt>
<pdfrwt beam="1">  1        2 0.24989944E+00 0.11104790E+04</pdfrwt>
<pdfrwt beam="2">  1       -2 0.14207223E+00 0.11104790E+04</pdfrwt>
<totfact> 0.36671772E+00</totfact>
</mgrwt>
</event>
<event>
 4    1  0.8287789E-007  0.6732345E+03  0.7818608E-02  0.1013443E+00
         -2   -1    0    0    0  501 -0.00000000000E+00  0.00000000000E+00  0.99237402776E+02  0.99237402809E+02  0.25500000000E-02 0.  1.
          2   -1    0    0  501    0  0.00000000000E+00 -0.00000000000E+00 -0.28516142150E+04  0.28516142150E+04  0.25500000000E-02 0. -1.
    8880023    1    1    2    0    0  0.10915971165E+03  0.86710089754E+02 -0.26201749168E+04  0.27052839561E+04  0.65864270000E+03 0.  0.
    8880022    1    1    2    0    0 -0.10915971165E+03 -0.86710089754E+02 -0.13220189547E+03  0.24556766174E+03  0.15294330000E+03 0.  0.
<mgrwt>
<rscale>  0 0.50128924E+03</rscale>
<asrwt>0</asrwt>
<pdfrwt beam="1">  1        2 0.43870982E+00 0.67323450E+03</pdfrwt>
<pdfrwt beam="2">  1       -2 0.15267295E-01 0.67323450E+03</pdfrwt>
<totfact> 0.77607102E+01</totfact>
</mgrwt>
</event>
<event>
 4    1  0.8287789E-007  0.6757921E+03  0.7818608E-02  0.1011812E+00
          2   -1    0    0  501    0  0.00000000000E+00  0.00000000000E+00  0.68422386109E+03  0.68422386110E+03  0.25500000000E-02 0. -1.
         -2   -1    0    0    0  501 -0.00000000000E+00 -0.00000000000E+00 -0.91089451676E+03  0.91089451677E+03  0.25500000000E-02 0.  1.
    8880023    1    1    2    0    0  0.13108090506E+03 -0.75515595001E+02  0.49782530978E+03  0.83935990736E+03  0.65864270000E+03 0. -1.
    8880022    1    1    2    0    0 -0.13108090506E+03  0.75515595001E+02 -0.72449596546E+03  0.75575847050E+03  0.15294330000E+03 0.  0.
<mgrwt>
<rscale>  0 0.50760965E+03</rscale>
<asrwt>0</asrwt>
<pdfrwt beam="1">  1        2 0.10526521E+00 0.67579214E+03</pdfrwt>
<pdfrwt beam="2">  1       -2 0.14013762E+00 0.67579214E+03</pdfrwt>
<totfact> 0.15445516E+01</totfact>
</mgrwt>
</event>
<event>
 4    1  0.8287789E-007  0.1531590E+04  0.7818608E-02  0.8887645E-01
         -2   -1    0    0    0  501 -0.00000000000E+00  0.00000000000E+00  0.90153182020E+03  0.90153182020E+03  0.25500000000E-02 0.  1.
          2   -1    0    0  501    0  0.00000000000E+00 -0.00000000000E+00 -0.34446480033E+04  0.34446480033E+04  0.25500000000E-02 0. -1.
    8880023    1    1    2    0    0 -0.60019035803E+03  0.12456846417E+04 -0.10013268406E+03  0.15348600761E+04  0.65864270000E+03 0.  0.
    8880022    1    1    2    0    0  0.60019035803E+03 -0.12456846417E+04 -0.24429834990E+04  0.28113197474E+04  0.15294330000E+03 0.  0.
<mgrwt>
<rscale>  0 0.14952090E+04</rscale>
<asrwt>0</asrwt>
<pdfrwt beam="1">  1        2 0.52994584E+00 0.15315903E+04</pdfrwt>
<pdfrwt beam="2">  1       -2 0.13869720E+00 0.15315903E+04</pdfrwt>
<totfact> 0.31069261E-01</totfact>
</mgrwt>
</event>
<event>
 4    1  0.8287789E-007  0.7684940E+03  0.7818608E-02  0.9783594E-01
         -2   -1    0    0    0  501 -0.00000000000E+00  0.00000000000E+00  0.45962602554E+03  0.45962602554E+03  0.25500000000E-02 0.  1.
          2   -1    0    0  501    0  0.00000000000E+00 -0.00000000000E+00 -0.19721310191E+04  0.19721310191E+04  0.25500000000E-02 0. -1.
    8880023    1    1    2    0    0 -0.39147632238E+03 -0.59321777932E+02 -0.17739393114E+04  0.19332469245E+04  0.65864270000E+03 0.  0.
    8880022    1    1    2    0    0  0.39147632238E+03  0.59321777932E+02  0.26143431784E+03  0.49851012014E+03  0.15294330000E+03 0.  0.
<mgrwt>
<rscale>  0 0.66250473E+03</rscale>
<asrwt>0</asrwt>
<pdfrwt beam="1">  1        2 0.30340477E+00 0.76849398E+03</pdfrwt>
<pdfrwt beam="2">  1       -2 0.70711697E-01 0.76849398E+03</pdfrwt>
<totfact> 0.12987528E+01</totfact>
</mgrwt>
</event>
<event>
 4    1  0.8287789E-007  0.7937049E+03  0.7818608E-02  0.9724576E-01
         -2   -1    0    0    0  501 -0.00000000000E+00  0.00000000000E+00  0.12496218717E+03  0.12496218719E+03  0.25500000000E-02 0.  1.
          2   -1    0    0  501    0  0.00000000000E+00 -0.00000000000E+00 -0.42725707413E+04  0.42725707413E+04  0.25500000000E-02 0. -1.
    8880023    1    1    2    0    0 -0.22849298446E+03  0.37940505859E+03 -0.35525806986E+04  0.36401644288E+04  0.65864270000E+03 0. -1.
    8880022    1    1    2    0    0  0.22849298446E+03 -0.37940505859E+03 -0.59502785551E+03  0.75736849966E+03  0.15294330000E+03 0.  0.
<mgrwt>
<rscale>  0 0.69572194E+03</rscale>
<asrwt>0</asrwt>
<pdfrwt beam="1">  1        2 0.65731846E+00 0.79370489E+03</pdfrwt>
<pdfrwt beam="2">  1       -2 0.19224955E-01 0.79370489E+03</pdfrwt>
<totfact> 0.50838580E+00</totfact>
</mgrwt>
</event>
<event>
 4    1  0.8287789E-007  0.8428475E+03  0.7818608E-02  0.9624834E-01
          2   -1    0    0  501    0  0.00000000000E+00  0.00000000000E+00  0.20345138080E+04  0.20345138080E+04  0.25500000000E-02 0. -1.
         -2   -1    0    0    0  501 -0.00000000000E+00 -0.00000000000E+00 -0.28487769145E+03  0.28487769146E+03  0.25500000000E-02 0.  1.
    8880023    1    1    2    0    0 -0.13117488984E+03  0.50928852832E+03  0.14931532459E+04  0.17146132155E+04  0.65864270000E+03 0.  0.
    8880022    1    1    2    0    0  0.13117488984E+03 -0.50928852832E+03  0.25648287067E+03  0.60477828398E+03  0.15294330000E+03 0.  0.
<mgrwt>
<rscale>  0 0.75674066E+03</rscale>
<asrwt>0</asrwt>
<pdfrwt beam="1">  1        2 0.31300214E+00 0.84284747E+03</pdfrwt>
<pdfrwt beam="2">  1       -2 0.43827335E-01 0.84284747E+03</pdfrwt>
<totfact> 0.32225474E+01</totfact>
</mgrwt>
</event>
<event>
 4    1  0.8287789E-007  0.7642732E+03  0.7818608E-02  0.9794168E-01
         -2   -1    0    0    0  501 -0.00000000000E+00  0.00000000000E+00  0.23092714956E+03  0.23092714957E+03  0.25500000000E-02 0.  1.
          2   -1    0    0  501    0  0.00000000000E+00 -0.00000000000E+00 -0.42685096643E+04  0.42685096643E+04  0.25500000000E-02 0. -1.
    8880023    1    1    2    0    0  0.22671652484E+03  0.31448826031E+03 -0.40095363638E+04  0.40817270006E+04  0.65864270000E+03 0. -1.
    8880022    1    1    2    0    0 -0.22671652484E+03 -0.31448826031E+03 -0.28046150934E+02  0.41770981327E+03  0.15294330000E+03 0.  0.
<mgrwt>
<rscale>  0 0.65676475E+03</rscale>
<asrwt>0</asrwt>
<pdfrwt beam="1">  1        2 0.65669374E+00 0.76427315E+03</pdfrwt>
<pdfrwt beam="2">  1       -2 0.35527257E-01 0.76427315E+03</pdfrwt>
<totfact> 0.16867101E+00</totfact>
</mgrwt>
</event>
<event>
 4    1  0.8287789E-007  0.9035112E+03  0.7818608E-02  0.9520418E-01
          2   -1    0    0  501    0  0.00000000000E+00  0.00000000000E+00  0.25150271810E+04  0.25150271810E+04  0.25500000000E-02 0. -1.
         -2   -1    0    0    0  501 -0.00000000000E+00 -0.00000000000E+00 -0.53638154786E+03  0.53638154787E+03  0.25500000000E-02 0.  1.
    8880023    1    1    2    0    0  0.26537071519E+03  0.55865966090E+03  0.21989084055E+04  0.23772948103E+04  0.65864270000E+03 0. -1.
    8880022    1    1    2    0    0 -0.26537071519E+03 -0.55865966090E+03 -0.22026277240E+03  0.67411391850E+03  0.15294330000E+03 0.  0.
<mgrwt>
<rscale>  0 0.82795052E+03</rscale>
<asrwt>0</asrwt>
<pdfrwt beam="1">  1        2 0.38692725E+00 0.90351117E+03</pdfrwt>
<pdfrwt beam="2">  1       -2 0.82520239E-01 0.90351117E+03</pdfrwt>
<totfact> 0.45035563E+00</totfact>
</mgrwt>
</event>
<event>
 4    1  0.8287789E-007  0.6697378E+03  0.7818608E-02  0.1015852E+00
         -2   -1    0    0    0  501 -0.00000000000E+00  0.00000000000E+00  0.20269475156E+04  0.20269475156E+04  0.25500000000E-02 0.  1.
          2   -1    0    0  501    0  0.00000000000E+00 -0.00000000000E+00 -0.12162397324E+04  0.12162397324E+04  0.25500000000E-02 0. -1.
    8880023    1    1    2    0    0 -0.11295144848E+03 -0.44502936088E+02 -0.11187367516E+04  0.13038867538E+04  0.65864270000E+03 0. -1.
    8880022    1    1    2    0    0  0.11295144848E+03  0.44502936088E+02  0.19294445348E+04  0.19393004942E+04  0.15294330000E+03 0.  0.
<mgrwt>
<rscale>  0 0.49213839E+03</rscale>
<asrwt>0</asrwt>
<pdfrwt beam="1">  1        2 0.18711381E+00 0.66973782E+03</pdfrwt>
<pdfrwt beam="2">  1       -2 0.31183808E+00 0.66973782E+03</pdfrwt>
<totfact> 0.53386311E-01</totfact>
</mgrwt>
</event>
<event>
 4    1  0.8287789E-007  0.9554472E+03  0.7818608E-02  0.9442320E-01
          2   -1    0    0  501    0  0.00000000000E+00  0.00000000000E+00  0.12833837187E+04  0.12833837187E+04  0.25500000000E-02 0. -1.
         -2   -1    0    0    0  501 -0.00000000000E+00 -0.00000000000E+00 -0.87287348340E+03  0.87287348340E+03  0.25500000000E-02 0.  1.
    8880023    1    1    2    0    0  0.30579051171E+03  0.62093581386E+03  0.88574095028E+03  0.13028493233E+04  0.65864270000E+03 0.  0.
    8880022    1    1    2    0    0 -0.30579051171E+03 -0.62093581386E+03 -0.47523071502E+03  0.85340787875E+03  0.15294330000E+03 0.  0.
<mgrwt>
<rscale>  0 0.88673282E+03</rscale>
<asrwt>0</asrwt>
<pdfrwt beam="1">  1        2 0.19744365E+00 0.95544719E+03</pdfrwt>
<pdfrwt beam="2">  1       -2 0.13428823E+00 0.95544719E+03</pdfrwt>
<totfact> 0.67382905E+00</totfact>
</mgrwt>
</event>
<event>
 4    1  0.8287789E-007  0.7607660E+03  0.7818608E-02  0.9803128E-01
         -2   -1    0    0    0  501 -0.00000000000E+00  0.00000000000E+00  0.45839549920E+03  0.45839549921E+03  0.25500000000E-02 0.  1.
          2   -1    0    0  501    0  0.00000000000E+00 -0.00000000000E+00 -0.43272036574E+04  0.43272036574E+04  0.25500000000E-02 0. -1.
    8880023    1    1    2    0    0 -0.20958304204E+03  0.31785162674E+03 -0.41937610869E+04  0.42622056460E+04  0.65864270000E+03 0. -1.
    8880022    1    1    2    0    0  0.20958304204E+03 -0.31785162674E+03  0.32495292869E+03  0.52339351067E+03  0.15294330000E+03 0.  0.
<mgrwt>
<rscale>  0 0.65194925E+03</rscale>
<asrwt>0</asrwt>
<pdfrwt beam="1">  1        2 0.66572361E+00 0.76076601E+03</pdfrwt>
<pdfrwt beam="2">  1       -2 0.70522387E-01 0.76076601E+03</pdfrwt>
<totfact> 0.37018268E-01</totfact>
</mgrwt>
</event>
<event>
 4    1  0.8287789E-007  0.1558047E+04  0.7818608E-02  0.8869698E-01
          2   -1    0    0  501    0  0.00000000000E+00  0.00000000000E+00  0.16950398766E+04  0.16950398766E+04  0.25500000000E-02 0. -1.
         -2   -1    0    0    0  501 -0.00000000000E+00 -0.00000000000E+00 -0.36415462079E+04  0.36415462079E+04  0.25500000000E-02 0.  1.
    8880023    1    1    2    0    0 -0.71752957206E+03 -0.12160802969E+04  0.11456160915E+04  0.19338941053E+04  0.65864270000E+03 0.  0.
    8880022    1    1    2    0    0  0.71752957206E+03  0.12160802969E+04 -0.30921224228E+04  0.34026919793E+04  0.15294330000E+03 0.  0.
<mgrwt>
<rscale>  0 0.15223906E+04</rscale>
<asrwt>0</asrwt>
<pdfrwt beam="1">  1        2 0.26077537E+00 0.15580469E+04</pdfrwt>
<pdfrwt beam="2">  1       -2 0.56023788E+00 0.15580469E+04</pdfrwt>
<totfact> 0.68119013E-03</totfact>
</mgrwt>
</event>
<event>
 4    1  0.8287789E-007  0.8544571E+03  0.7818608E-02  0.9603500E-01
          2   -1    0    0  501    0  0.00000000000E+00  0.00000000000E+00  0.11726703568E+04  0.11726703568E+04  0.25500000000E-02 0. -1.
         -2   -1    0    0    0  501 -0.00000000000E+00 -0.00000000000E+00 -0.70465279996E+03  0.70465279996E+03  0.25500000000E-02 0.  1.
    8880023    1    1    2    0    0  0.45730417517E+03 -0.29522819306E+03  0.84185616204E+03  0.11995077317E+04  0.65864270000E+03 0. -1.
    8880022    1    1    2    0    0 -0.45730417517E+03  0.29522819306E+03 -0.37383860523E+03  0.67781542501E+03  0.15294330000E+03 0.  0.
<mgrwt>
<rscale>  0 0.77064947E+03</rscale>
<asrwt>0</asrwt>
<pdfrwt beam="1">  1        2 0.18041082E+00 0.85445714E+03</pdfrwt>
<pdfrwt beam="2">  1       -2 0.10840812E+00 0.85445714E+03</pdfrwt>
<totfact> 0.13486803E+01</totfact>
</mgrwt>
</event>
<event>
 4    1  0.8287789E-007  0.9560154E+03  0.7818608E-02  0.9441512E-01
         -2   -1    0    0    0  501 -0.00000000000E+00  0.00000000000E+00  0.71365644215E+03  0.71365644215E+03  0.25500000000E-02 0.  1.
          2   -1    0    0  501    0  0.00000000000E+00 -0.00000000000E+00 -0.10366446205E+04  0.10366446205E+04  0.25500000000E-02 0. -1.
    8880023    1    1    2    0    0  0.40994158823E+03  0.55866190864E+03 -0.40040652220E+03  0.10364800158E+04  0.65864270000E+03 0.  0.
    8880022    1    1    2    0    0 -0.40994158823E+03 -0.55866190864E+03  0.77418343840E+02  0.71382104684E+03  0.15294330000E+03 0.  0.
<mgrwt>
<rscale>  0 0.88736778E+03</rscale>
<asrwt>0</asrwt>
<pdfrwt beam="1">  1        2 0.15948379E+00 0.95601540E+03</pdfrwt>
<pdfrwt beam="2">  1       -2 0.10979330E+00 0.95601540E+03</pdfrwt>
<totfact> 0.15705483E+01</totfact>
</mgrwt>
</event>
<event>
 4    1  0.8287789E-007  0.8258003E+03  0.7818608E-02  0.9657560E-01
          2   -1    0    0  501    0  0.00000000000E+00  0.00000000000E+00  0.76930368204E+03  0.76930368204E+03  0.25500000000E-02 0. -1.
         -2   -1    0    0    0  501 -0.00000000000E+00 -0.00000000000E+00 -0.10856748390E+04  0.10856748390E+04  0.25500000000E-02 0.  1.
    8880023    1    1    2    0    0  0.16901807318E+02 -0.49784568892E+03  0.44060402613E+03  0.93599044609E+03  0.65864270000E+03 0. -1.
    8880022    1    1    2    0    0 -0.16901807318E+02  0.49784568892E+03 -0.75697518305E+03  0.91898807491E+03  0.15294330000E+03 0.  0.
<mgrwt>
<rscale>  0 0.73600888E+03</rscale>
<asrwt>0</asrwt>
<pdfrwt beam="1">  1        2 0.11835441E+00 0.82580034E+03</pdfrwt>
<pdfrwt beam="2">  1       -2 0.16702690E+00 0.82580034E+03</pdfrwt>
<totfact> 0.81912607E+00</totfact>
</mgrwt>
</event>
<event>
 4    1  0.8287789E-007  0.8142987E+03  0.7818608E-02  0.9680691E-01
          2   -1    0    0  501    0  0.00000000000E+00  0.00000000000E+00  0.18642975359E+04  0.18642975359E+04  0.25500000000E-02 0. -1.
         -2   -1    0    0    0  501 -0.00000000000E+00 -0.00000000000E+00 -0.33981124655E+03  0.33981124656E+03  0.25500000000E-02 0.  1.
    8880023    1    1    2    0    0 -0.19633091983E+01  0.47881972945E+03  0.14928037922E+04  0.17004545146E+04  0.65864270000E+03 0. -1.
    8880022    1    1    2    0    0  0.19633091983E+01 -0.47881972945E+03  0.31682497128E+02  0.50365426785E+03  0.15294330000E+03 0.  0.
<mgrwt>
<rscale>  0 0.72178142E+03</rscale>
<asrwt>0</asrwt>
<pdfrwt beam="1">  1        2 0.28681501E+00 0.81429871E+03</pdfrwt>
<pdfrwt beam="2">  1       -2 0.52278653E-01 0.81429871E+03</pdfrwt>
<totfact> 0.28053489E+01</totfact>
</mgrwt>
</event>
<event>
 4    1  0.8287789E-007  0.9752947E+03  0.7818608E-02  0.9414618E-01
          2   -1    0    0  501    0  0.00000000000E+00  0.00000000000E+00  0.84216010969E+03  0.84216010969E+03  0.25500000000E-02 0. -1.
         -2   -1    0    0    0  501 -0.00000000000E+00 -0.00000000000E+00 -0.15600788285E+04  0.15600788285E+04  0.25500000000E-02 0.  1.
    8880023    1    1    2    0    0 -0.19411149479E+02  0.71903592740E+03 -0.11821873407E+04  0.15325686191E+04  0.65864270000E+03 0.  0.
    8880022    1    1    2    0    0  0.19411149479E+02 -0.71903592740E+03  0.46426862186E+03  0.86967031907E+03  0.15294330000E+03 0.  0.
<mgrwt>
<rscale>  0 0.90882355E+03</rscale>
<asrwt>0</asrwt>
<pdfrwt beam="1">  1        2 0.12956309E+00 0.97529465E+03</pdfrwt>
<pdfrwt beam="2">  1       -2 0.24001213E+00 0.97529465E+03</pdfrwt>
<totfact> 0.23782376E+00</totfact>
</mgrwt>
</event>
<event>
 4    1  0.1405800E-006  0.7679604E+03  0.7818608E-02  0.9784918E-01
          2   -1    0    0  501    0  0.00000000000E+00  0.00000000000E+00  0.15800301279E+04  0.15800301279E+04  0.25500000000E-02 0. -1.
         -2   -1    0    0    0  501 -0.00000000000E+00 -0.00000000000E+00 -0.12595921508E+04  0.12595921508E+04  0.25500000000E-02 0.  1.
    8880023    1    1    2    0    0 -0.18775546389E+02  0.39446214455E+03  0.14458622669E+04  0.16371563168E+04  0.65864270000E+03 0.  0.
    8880022    1    1    2    0    0  0.18775546389E+02 -0.39446214455E+03 -0.11254242897E+04  0.12024659619E+04  0.15294330000E+03 0.  0.
<mgrwt>
<rscale>  0 0.66178227E+03</rscale>
<asrwt>0</asrwt>
<pdfrwt beam="1">  1        2 0.24308156E+00 0.76796036E+03</pdfrwt>
<pdfrwt beam="2">  1       -2 0.19378341E+00 0.76796036E+03</pdfrwt>
<totfact> 0.17230000E+00</totfact>
</mgrwt>
</event>
<event>
 4    1  0.8287789E-007  0.1173092E+04  0.7818608E-02  0.9183733E-01
         -2   -1    0    0    0  501 -0.00000000000E+00  0.00000000000E+00  0.72214098572E+03  0.72214098573E+03  0.25500000000E-02 0.  1.
          2   -1    0    0  501    0  0.00000000000E+00 -0.00000000000E+00 -0.19644787894E+04  0.19644787894E+04  0.25500000000E-02 0. -1.
    8880023    1    1    2    0    0  0.20179607697E+03 -0.94953250298E+03 -0.96441635417E+02  0.11770492030E+04  0.65864270000E+03 0.  0.
    8880022    1    1    2    0    0 -0.20179607697E+03  0.94953250298E+03 -0.11458961682E+04  0.15095705722E+04  0.15294330000E+03 0.  0.
<mgrwt>
<rscale>  0 0.11222914E+04</rscale>
<asrwt>0</asrwt>
<pdfrwt beam="1">  1        2 0.30222750E+00 0.11730916E+04</pdfrwt>
<pdfrwt beam="2">  1       -2 0.11109861E+00 0.11730916E+04</pdfrwt>
<totfact> 0.43946581E+00</totfact>
</mgrwt>
</event>
<event>
 4    1  0.8287789E-007  0.7216784E+03  0.7818608E-02  0.9916947E-01
          2   -1    0    0  501    0  0.00000000000E+00  0.00000000000E+00  0.20089359265E+04  0.20089359265E+04  0.25500000000E-02 0. -1.
         -2   -1    0    0    0  501 -0.00000000000E+00 -0.00000000000E+00 -0.17282043093E+03  0.17282043095E+03  0.25500000000E-02 0.  1.
    8880023    1    1    2    0    0  0.16802754420E+03 -0.24243816260E+03  0.16499838076E+04  0.18009070742E+04  0.65864270000E+03 0. -1.
    8880022    1    1    2    0    0 -0.16802754420E+03  0.24243816260E+03  0.18613168804E+03  0.38084928332E+03  0.15294330000E+03 0.  0.
<mgrwt>
<rscale>  0 0.59446939E+03</rscale>
<asrwt>0</asrwt>
<pdfrwt beam="1">  1        2 0.30906705E+00 0.72167841E+03</pdfrwt>
<pdfrwt beam="2">  1       -2 0.26587760E-01 0.72167841E+03</pdfrwt>
<totfact> 0.87199243E+01</totfact>
</mgrwt>
</event>
<event>
 4    1  0.8287789E-007  0.1139752E+04  0.7818608E-02  0.9218036E-01
         -2   -1    0    0    0  501 -0.00000000000E+00  0.00000000000E+00  0.37461015314E+04  0.37461015314E+04  0.25500000000E-02 0.  1.
          2   -1    0    0  501    0  0.00000000000E+00 -0.00000000000E+00 -0.62001513772E+03  0.62001513772E+03  0.25500000000E-02 0. -1.
    8880023    1    1    2    0    0  0.44015647877E+03 -0.81944352057E+03  0.41287238214E+02  0.11405000007E+04  0.65864270000E+03 0.  0.
    8880022    1    1    2    0    0 -0.44015647877E+03  0.81944352057E+03  0.30847991555E+04  0.32256166685E+04  0.15294330000E+03 0.  0.
<mgrwt>
<rscale>  0 0.10869191E+04</rscale>
<asrwt>0</asrwt>
<pdfrwt beam="1">  1        2 0.95386945E-01 0.11397524E+04</pdfrwt>
<pdfrwt beam="2">  1       -2 0.57632331E+00 0.11397524E+04</pdfrwt>
<totfact> 0.29412459E-02</totfact>
</mgrwt>
</event>
<event>
 4    1  0.8287789E-007  0.8003279E+03  0.7818608E-02  0.9710088E-01
         -2   -1    0    0    0  501 -0.00000000000E+00  0.00000000000E+00  0.13225532602E+04  0.13225532602E+04  0.25500000000E-02 0.  1.
          2   -1    0    0  501    0  0.00000000000E+00 -0.00000000000E+00 -0.50061468340E+03  0.50061468340E+03  0.25500000000E-02 0. -1.
    8880023    1    1    2    0    0  0.29917743492E+03  0.34235564458E+03 -0.77230099978E+02  0.80404553326E+03  0.65864270000E+03 0.  0.
    8880022    1    1    2    0    0 -0.29917743492E+03 -0.34235564458E+03  0.89916867674E+03  0.10191224103E+04  0.15294330000E+03 0.  0.
<mgrwt>
<rscale>  0 0.70419348E+03</rscale>
<asrwt>0</asrwt>
<pdfrwt beam="1">  1        2 0.77017643E-01 0.80032789E+03</pdfrwt>
<pdfrwt beam="2">  1       -2 0.20346973E+00 0.80032789E+03</pdfrwt>
<totfact> 0.78733187E+00</totfact>
</mgrwt>
</event>
<event>
 4    1  0.8287789E-007  0.7365257E+03  0.7818608E-02  0.9870185E-01
         -2   -1    0    0    0  501 -0.00000000000E+00  0.00000000000E+00  0.77942166427E+03  0.77942166428E+03  0.25500000000E-02 0.  1.
          2   -1    0    0  501    0  0.00000000000E+00 -0.00000000000E+00 -0.58625014018E+03  0.58625014018E+03  0.25500000000E-02 0. -1.
    8880023    1    1    2    0    0 -0.13334909523E+02 -0.32936628262E+03 -0.26333916602E+03  0.78218775915E+03  0.65864270000E+03 0. -1.
    8880022    1    1    2    0    0  0.13334909523E+02  0.32936628262E+03  0.45651069011E+03  0.58348404532E+03  0.15294330000E+03 0.  0.
<mgrwt>
<rscale>  0 0.61728243E+03</rscale>
<asrwt>0</asrwt>
<pdfrwt beam="1">  1        2 0.90192330E-01 0.73652575E+03</pdfrwt>
<pdfrwt beam="2">  1       -2 0.11991102E+00 0.73652575E+03</pdfrwt>
<totfact> 0.27512638E+01</totfact>
</mgrwt>
</event>
<event>
 4    1  0.8287789E-007  0.6611621E+03  0.7818608E-02  0.1022996E+00
          2   -1    0    0  501    0  0.00000000000E+00  0.00000000000E+00  0.96050112141E+03  0.96050112141E+03  0.25500000000E-02 0. -1.
         -2   -1    0    0    0  501 -0.00000000000E+00 -0.00000000000E+00 -0.24300680800E+03  0.24300680802E+03  0.25500000000E-02 0.  1.
    8880023    1    1    2    0    0 -0.41198368467E+02  0.40345859685E+02  0.78528814959E+03  0.10265538360E+04  0.65864270000E+03 0. -1.
    8880022    1    1    2    0    0  0.41198368467E+02 -0.40345859685E+02 -0.67793836184E+02  0.17695409347E+03  0.15294330000E+03 0.  0.
<mgrwt>
<rscale>  0 0.46620712E+03</rscale>
<asrwt>0</asrwt>
<pdfrwt beam="1">  1        2 0.14776940E+00 0.66116208E+03</pdfrwt>
<pdfrwt beam="2">  1       -2 0.37385663E-01 0.66116208E+03</pdfrwt>
<totfact> 0.18319559E+02</totfact>
</mgrwt>
</event>
<event>
 4    1  0.8287789E-007  0.9167965E+03  0.7818608E-02  0.9499589E-01
          2   -1    0    0  501    0  0.00000000000E+00  0.00000000000E+00  0.14363722030E+04  0.14363722030E+04  0.25500000000E-02 0. -1.
         -2   -1    0    0    0  501 -0.00000000000E+00 -0.00000000000E+00 -0.82638479151E+03  0.82638479152E+03  0.25500000000E-02 0.  1.
    8880023    1    1    2    0    0 -0.33800407478E+03  0.54079462220E+03  0.11088458524E+04  0.14387685389E+04  0.65864270000E+03 0.  0.
    8880022    1    1    2    0    0  0.33800407478E+03 -0.54079462220E+03 -0.49885844087E+03  0.82398845563E+03  0.15294330000E+03 0.  0.
<mgrwt>
<rscale>  0 0.84314163E+03</rscale>
<asrwt>0</asrwt>
<pdfrwt beam="1">  1        2 0.22098034E+00 0.91679648E+03</pdfrwt>
<pdfrwt beam="2">  1       -2 0.12713612E+00 0.91679648E+03</pdfrwt>
<totfact> 0.63532819E+00</totfact>
</mgrwt>
</event>
<event>
 4    1  0.8287789E-007  0.7388033E+03  0.7818608E-02  0.9863447E-01
          2   -1    0    0  501    0  0.00000000000E+00  0.00000000000E+00  0.16768569244E+04  0.16768569244E+04  0.25500000000E-02 0. -1.
         -2   -1    0    0    0  501 -0.00000000000E+00 -0.00000000000E+00 -0.39396113394E+03  0.39396113395E+03  0.25500000000E-02 0.  1.
    8880023    1    1    2    0    0  0.18238558361E+03 -0.28063416940E+03  0.14794261163E+04  0.16536420042E+04  0.65864270000E+03 0.  0.
    8880022    1    1    2    0    0 -0.18238558361E+03  0.28063416940E+03 -0.19653032587E+03  0.41717605413E+03  0.15294330000E+03 0.  0.
<mgrwt>
<rscale>  0 0.62065980E+03</rscale>
<asrwt>0</asrwt>
<pdfrwt beam="1">  1        2 0.25797799E+00 0.73880325E+03</pdfrwt>
<pdfrwt beam="2">  1       -2 0.60609404E-01 0.73880325E+03</pdfrwt>
<totfact> 0.26330337E+01</totfact>
</mgrwt>
</event>
<event>
 4    1  0.8287789E-007  0.1042768E+04  0.7818608E-02  0.9327626E-01
         -2   -1    0    0    0  501 -0.00000000000E+00  0.00000000000E+00  0.16489226210E+04  0.16489226210E+04  0.25500000000E-02 0.  1.
          2   -1    0    0  501    0  0.00000000000E+00 -0.00000000000E+00 -0.10748605990E+04  0.10748605990E+04  0.25500000000E-02 0. -1.
    8880023    1    1    2    0    0  0.15667501441E+03 -0.79309973370E+03 -0.66475482110E+03  0.12366339095E+04  0.65864270000E+03 0.  0.
    8880022    1    1    2    0    0 -0.15667501441E+03  0.79309973370E+03  0.12388168431E+04  0.14871493105E+04  0.15294330000E+03 0.  0.
<mgrwt>
<rscale>  0 0.98278817E+03</rscale>
<asrwt>0</asrwt>
<pdfrwt beam="1">  1        2 0.16536317E+00 0.10427677E+04</pdfrwt>
<pdfrwt beam="2">  1       -2 0.25368040E+00 0.10427677E+04</pdfrwt>
<totfact> 0.13661837E+00</totfact>
</mgrwt>
</event>
<event>
 4    1  0.8287789E-007  0.7495997E+03  0.7818608E-02  0.9832817E-01
         -2   -1    0    0    0  501 -0.00000000000E+00  0.00000000000E+00  0.23879399498E+03  0.23879399499E+03  0.25500000000E-02 0.  1.
          2   -1    0    0  501    0  0.00000000000E+00 -0.00000000000E+00 -0.29396626296E+04  0.29396626296E+04  0.25500000000E-02 0. -1.
    8880023    1    1    2    0    0  0.35786670195E+03  0.45776122943E+01 -0.26863565552E+04  0.27889803296E+04  0.65864270000E+03 0.  0.
    8880022    1    1    2    0    0 -0.35786670195E+03 -0.45776122943E+01 -0.14512079412E+02  0.38947629500E+03  0.15294330000E+03 0.  0.
<mgrwt>
<rscale>  0 0.63630729E+03</rscale>
<asrwt>0</asrwt>
<pdfrwt beam="1">  1        2 0.45225576E+00 0.74959972E+03</pdfrwt>
<pdfrwt beam="2">  1       -2 0.36737540E-01 0.74959972E+03</pdfrwt>
<totfact> 0.14041208E+01</totfact>
</mgrwt>
</event>
<event>
 4    1  0.8287789E-007  0.9116963E+03  0.7818608E-02  0.9507510E-01
         -2   -1    0    0    0  501 -0.00000000000E+00  0.00000000000E+00  0.28298114560E+03  0.28298114561E+03  0.25500000000E-02 0.  1.
          2   -1    0    0  501    0  0.00000000000E+00 -0.00000000000E+00 -0.29441067840E+04  0.29441067840E+04  0.25500000000E-02 0. -1.
    8880023    1    1    2    0    0 -0.52986123236E+03 -0.34150703704E+03 -0.66568360964E+03  0.11288599808E+04  0.65864270000E+03 0.  1.
    8880022    1    1    2    0    0  0.52986123236E+03  0.34150703704E+03 -0.19954420288E+04  0.20982279488E+04  0.15294330000E+03 0.  0.
<mgrwt>
<rscale>  0 0.83732385E+03</rscale>
<asrwt>0</asrwt>
<pdfrwt beam="1">  1        2 0.45293948E+00 0.91169632E+03</pdfrwt>
<pdfrwt beam="2">  1       -2 0.43535563E-01 0.91169632E+03</pdfrwt>
<totfact> 0.97634000E+00</totfact>
</mgrwt>
</event>
<event>
 4    1  0.8287789E-007  0.1060949E+04  0.7818608E-02  0.9305833E-01
         -2   -1    0    0    0  501 -0.00000000000E+00  0.00000000000E+00  0.17532357834E+04  0.17532357834E+04  0.25500000000E-02 0.  1.
          2   -1    0    0  501    0  0.00000000000E+00 -0.00000000000E+00 -0.72762701673E+03  0.72762701673E+03  0.25500000000E-02 0. -1.
    8880023    1    1    2    0    0  0.77461309821E+03  0.30294807533E+03 -0.10813744319E+03  0.10664459204E+04  0.65864270000E+03 0. -1.
    8880022    1    1    2    0    0 -0.77461309821E+03 -0.30294807533E+03  0.11337462098E+04  0.14144168797E+04  0.15294330000E+03 0.  0.
<mgrwt>
<rscale>  0 0.10024760E+04</rscale>
<asrwt>0</asrwt>
<pdfrwt beam="1">  1        2 0.11194262E+00 0.10609492E+04</pdfrwt>
<pdfrwt beam="2">  1       -2 0.26972858E+00 0.10609492E+04</pdfrwt>
<totfact> 0.18849495E+00</totfact>
</mgrwt>
</event>
<event>
 4    1  0.8287789E-007  0.6607745E+03  0.7818608E-02  0.1023377E+00
         -2   -1    0    0    0  501 -0.00000000000E+00  0.00000000000E+00  0.18687832535E+03  0.18687832537E+03  0.25500000000E-02 0.  1.
          2   -1    0    0  501    0  0.00000000000E+00 -0.00000000000E+00 -0.91563506619E+03  0.91563506619E+03  0.25500000000E-02 0. -1.
    8880023    1    1    2    0    0 -0.39477886041E+02 -0.35414459818E+02 -0.53625071839E+03  0.85099220131E+03  0.65864270000E+03 0.  1.
    8880022    1    1    2    0    0  0.39477886041E+02  0.35414459818E+02 -0.19250602245E+03  0.25152119025E+03  0.15294330000E+03 0.  1.
<mgrwt>
<rscale>  0 0.46487543E+03</rscale>
<asrwt>0</asrwt>
<pdfrwt beam="1">  1        2 0.14086693E+00 0.66077447E+03</pdfrwt>
<pdfrwt beam="2">  1       -2 0.28750512E-01 0.66077447E+03</pdfrwt>
<totfact> 0.32121315E+02</totfact>
</mgrwt>
</event>
<event>
 4    1  0.8287789E-007  0.6610013E+03  0.7818608E-02  0.1023153E+00
         -2   -1    0    0    0  501 -0.00000000000E+00  0.00000000000E+00  0.58126332765E+03  0.58126332765E+03  0.25500000000E-02 0.  1.
          2   -1    0    0  501    0  0.00000000000E+00 -0.00000000000E+00 -0.58692322133E+03  0.58692322133E+03  0.25500000000E-02 0. -1.
    8880023    1    1    2    0    0  0.55366847923E+02  0.68556094122E+01 -0.37825505713E+03  0.76157703598E+03  0.65864270000E+03 0. -1.
    8880022    1    1    2    0    0 -0.55366847923E+02 -0.68556094122E+01  0.37259516344E+03  0.40660951300E+03  0.15294330000E+03 0.  0.
<mgrwt>
<rscale>  0 0.46565679E+03</rscale>
<asrwt>0</asrwt>
<pdfrwt beam="1">  1        2 0.90295880E-01 0.66100128E+03</pdfrwt>
<pdfrwt beam="2">  1       -2 0.89425127E-01 0.66100128E+03</pdfrwt>
<totfact> 0.55651530E+01</totfact>
</mgrwt>
</event>
<event>
 4    1  0.8287789E-007  0.6722618E+03  0.7818608E-02  0.1014091E+00
          2   -1    0    0  501    0  0.00000000000E+00  0.00000000000E+00  0.13291745924E+04  0.13291745924E+04  0.25500000000E-02 0. -1.
         -2   -1    0    0    0  501 -0.00000000000E+00 -0.00000000000E+00 -0.16547480902E+03  0.16547480904E+03  0.25500000000E-02 0.  1.
    8880023    1    1    2    0    0 -0.23798555568E+02  0.13251191735E+03  0.10846622276E+04  0.12760987946E+04  0.65864270000E+03 0. -1.
    8880022    1    1    2    0    0  0.23798555568E+02 -0.13251191735E+03  0.79037555797E+02  0.21855060679E+03  0.15294330000E+03 0.  0.
<mgrwt>
<rscale>  0 0.49880714E+03</rscale>
<asrwt>0</asrwt>
<pdfrwt beam="1">  1        2 0.20448839E+00 0.67226184E+03</pdfrwt>
<pdfrwt beam="2">  1       -2 0.25457664E-01 0.67226184E+03</pdfrwt>
<totfact> 0.22440299E+02</totfact>
</mgrwt>
</event>
<event>
 4    1  0.8287789E-007  0.8845294E+03  0.7818608E-02  0.9551338E-01
          2   -1    0    0  501    0  0.00000000000E+00  0.00000000000E+00  0.13256433733E+04  0.13256433733E+04  0.25500000000E-02 0. -1.
         -2   -1    0    0    0  501 -0.00000000000E+00 -0.00000000000E+00 -0.48171080372E+03  0.48171080372E+03  0.25500000000E-02 0.  1.
    8880023    1    1    2    0    0 -0.78873351543E+02 -0.58511620662E+03  0.80535409571E+03  0.11962388585E+04  0.65864270000E+03 0. -1.
    8880022    1    1    2    0    0  0.78873351543E+02  0.58511620662E+03  0.38578473821E+02  0.61111531848E+03  0.15294330000E+03 0. -1.
<mgrwt>
<rscale>  0 0.80602444E+03</rscale>
<asrwt>0</asrwt>
<pdfrwt beam="1">  1        2 0.20394513E+00 0.88452936E+03</pdfrwt>
<pdfrwt beam="2">  1       -2 0.74109355E-01 0.88452936E+03</pdfrwt>
<totfact> 0.26367644E+01</totfact>
</mgrwt>
</event>
<event>
 4    1  0.8287789E-007  0.7067972E+03  0.7818608E-02  0.9970092E-01
          2   -1    0    0  501    0  0.00000000000E+00  0.00000000000E+00  0.20865356543E+04  0.20865356543E+04  0.25500000000E-02 0. -1.
         -2   -1    0    0    0  501 -0.00000000000E+00 -0.00000000000E+00 -0.21217046032E+03  0.21217046034E+03  0.25500000000E-02 0.  1.
    8880023    1    1    2    0    0  0.25232072119E+03 -0.45677088096E+02  0.18710721943E+04  0.20001183728E+04  0.65864270000E+03 0. -1.
    8880022    1    1    2    0    0 -0.25232072119E+03  0.45677088096E+02  0.32929997031E+01  0.29858774185E+03  0.15294330000E+03 0.  0.
<mgrwt>
<rscale>  0 0.56981323E+03</rscale>
<asrwt>0</asrwt>
<pdfrwt beam="1">  1        2 0.32100549E+00 0.70679725E+03</pdfrwt>
<pdfrwt beam="2">  1       -2 0.32641609E-01 0.70679725E+03</pdfrwt>
<totfact> 0.54219269E+01</totfact>
</mgrwt>
</event>
<event>
 4    1  0.8287789E-007  0.7425969E+03  0.7818608E-02  0.9852446E-01
          2   -1    0    0  501    0  0.00000000000E+00  0.00000000000E+00  0.34121858475E+04  0.34121858475E+04  0.25500000000E-02 0. -1.
         -2   -1    0    0    0  501 -0.00000000000E+00 -0.00000000000E+00 -0.16842047469E+03  0.16842047471E+03  0.25500000000E-02 0.  1.
    8880023    1    1    2    0    0 -0.34226670980E+03  0.22214053064E+02  0.30845977470E+04  0.31727264981E+04  0.65864270000E+03 0. -1.
    8880022    1    1    2    0    0  0.34226670980E+03 -0.22214053064E+02  0.15916762584E+03  0.40787982411E+03  0.15294330000E+03 0.  0.
<mgrwt>
<rscale>  0 0.62622358E+03</rscale>
<asrwt>0</asrwt>
<pdfrwt beam="1">  1        2 0.52495162E+00 0.74259691E+03</pdfrwt>
<pdfrwt beam="2">  1       -2 0.25910845E-01 0.74259691E+03</pdfrwt>
<totfact> 0.13522853E+01</totfact>
</mgrwt>
</event>
<event>
 4    1  0.8287789E-007  0.8099018E+03  0.7818608E-02  0.9689781E-01
          2   -1    0    0  501    0  0.00000000000E+00  0.00000000000E+00  0.11012977437E+04  0.11012977437E+04  0.25500000000E-02 0. -1.
         -2   -1    0    0    0  501 -0.00000000000E+00 -0.00000000000E+00 -0.70268215717E+03  0.70268215718E+03  0.25500000000E-02 0.  1.
    8880023    1    1    2    0    0 -0.43260451037E+03 -0.18704045984E+03  0.82072918753E+03  0.11530556802E+04  0.65864270000E+03 0.  1.
    8880022    1    1    2    0    0  0.43260451037E+03  0.18704045984E+03 -0.42211360098E+03  0.65092422075E+03  0.15294330000E+03 0.  0.
<mgrwt>
<rscale>  0 0.71628473E+03</rscale>
<asrwt>0</asrwt>
<pdfrwt beam="1">  1        2 0.16943042E+00 0.80990185E+03</pdfrwt>
<pdfrwt beam="2">  1       -2 0.10810495E+00 0.80990185E+03</pdfrwt>
<totfact> 0.15070867E+01</totfact>
</mgrwt>
</event>
<event>
 4    1  0.8287789E-007  0.8058912E+03  0.7818608E-02  0.9698200E-01
          2   -1    0    0  501    0  0.00000000000E+00  0.00000000000E+00  0.22961768340E+04  0.22961768340E+04  0.25500000000E-02 0. -1.
         -2   -1    0    0    0  501 -0.00000000000E+00 -0.00000000000E+00 -0.22408618833E+03  0.22408618834E+03  0.25500000000E-02 0.  1.
    8880023    1    1    2    0    0 -0.31543164999E+03  0.34081259719E+03  0.17718558590E+04  0.19465183645E+04  0.65864270000E+03 0. -1.
    8880022    1    1    2    0    0  0.31543164999E+03 -0.34081259719E+03  0.30023478671E+03  0.57374465782E+03  0.15294330000E+03 0.  0.
<mgrwt>
<rscale>  0 0.71124065E+03</rscale>
<asrwt>0</asrwt>
<pdfrwt beam="1">  1        2 0.35325796E+00 0.80589116E+03</pdfrwt>
<pdfrwt beam="2">  1       -2 0.34474799E-01 0.80589116E+03</pdfrwt>
<totfact> 0.37008409E+01</totfact>
</mgrwt>
</event>
<event>
 4    1  0.8287789E-007  0.8388386E+03  0.7818608E-02  0.9632374E-01
         -2   -1    0    0    0  501 -0.00000000000E+00  0.00000000000E+00  0.67393066619E+03  0.67393066619E+03  0.25500000000E-02 0.  1.
          2   -1    0    0  501    0  0.00000000000E+00 -0.00000000000E+00 -0.19326525645E+04  0.19326525645E+04  0.25500000000E-02 0. -1.
    8880023    1    1    2    0    0  0.41401086248E+03  0.31374341297E+03 -0.17080601154E+04  0.19029239311E+04  0.65864270000E+03 0. -1.
    8880022    1    1    2    0    0 -0.41401086248E+03 -0.31374341297E+03  0.44933821715E+03  0.70365929954E+03  0.15294330000E+03 0.  0.
<mgrwt>
<rscale>  0 0.75190008E+03</rscale>
<asrwt>0</asrwt>
<pdfrwt beam="1">  1        2 0.29733116E+00 0.83883856E+03</pdfrwt>
<pdfrwt beam="2">  1       -2 0.10368164E+00 0.83883856E+03</pdfrwt>
<totfact> 0.56315921E+00</totfact>
</mgrwt>
</event>
<event>
 4    1  0.8287789E-007  0.7153787E+03  0.7818608E-02  0.9938545E-01
          2   -1    0    0  501    0  0.00000000000E+00  0.00000000000E+00  0.15053643301E+04  0.15053643301E+04  0.25500000000E-02 0. -1.
         -2   -1    0    0    0  501 -0.00000000000E+00 -0.00000000000E+00 -0.49497982516E+03  0.49497982517E+03  0.25500000000E-02 0.  1.
    8880023    1    1    2    0    0  0.45758582717E+01  0.27916939616E+03  0.13543431855E+04  0.15316697296E+04  0.65864270000E+03 0. -1.
    8880022    1    1    2    0    0 -0.45758582717E+01 -0.27916939616E+03 -0.34395868062E+03  0.46867442561E+03  0.15294330000E+03 0.  0.
<mgrwt>
<rscale>  0 0.58429071E+03</rscale>
<asrwt>0</asrwt>
<pdfrwt beam="1">  1        2 0.23159451E+00 0.71537871E+03</pdfrwt>
<pdfrwt beam="2">  1       -2 0.76150742E-01 0.71537871E+03</pdfrwt>
<totfact> 0.20013385E+01</totfact>
</mgrwt>
</event>
<event>
 4    1  0.8287789E-007  0.8366309E+03  0.7818608E-02  0.9636566E-01
          2   -1    0    0  501    0  0.00000000000E+00  0.00000000000E+00  0.35724606674E+04  0.35724606674E+04  0.25500000000E-02 0. -1.
         -2   -1    0    0    0  501 -0.00000000000E+00 -0.00000000000E+00 -0.14680378794E+03  0.14680378797E+03  0.25500000000E-02 0.  1.
    8880023    1    1    2    0    0  0.91322318457E+02 -0.50774139629E+03  0.26208750524E+04  0.27511701761E+04  0.65864270000E+03 0.  0.
    8880022    1    1    2    0    0 -0.91322318457E+02  0.50774139629E+03  0.80478182704E+03  0.96809427924E+03  0.15294330000E+03 0.  0.
<mgrwt>
<rscale>  0 0.74922566E+03</rscale>
<asrwt>0</asrwt>
<pdfrwt beam="1">  1        2 0.54960937E+00 0.83663092E+03</pdfrwt>
<pdfrwt beam="2">  1       -2 0.22585197E-01 0.83663092E+03</pdfrwt>
<totfact> 0.13238339E+01</totfact>
</mgrwt>
</event>
<event>
 4    1  0.8287789E-007  0.7284305E+03  0.7818608E-02  0.9895028E-01
          2   -1    0    0  501    0  0.00000000000E+00  0.00000000000E+00  0.43074164053E+03  0.43074164054E+03  0.25500000000E-02 0. -1.
         -2   -1    0    0    0  501 -0.00000000000E+00 -0.00000000000E+00 -0.32776106370E+04  0.32776106370E+04  0.25500000000E-02 0.  1.
    8880023    1    1    2    0    0  0.59434747720E+02  0.30539863367E+03  0.10520691190E+03  0.73598880104E+03  0.65864270000E+03 0. -1.
    8880022    1    1    2    0    0 -0.59434747720E+02 -0.30539863367E+03 -0.29520759084E+04  0.29723634765E+04  0.15294330000E+03 0.  0.
<mgrwt>
<rscale>  0 0.60502839E+03</rscale>
<asrwt>0</asrwt>
<pdfrwt beam="1">  1        2 0.66267947E-01 0.72843052E+03</pdfrwt>
<pdfrwt beam="2">  1       -2 0.50424777E+00 0.72843052E+03</pdfrwt>
<totfact> 0.12043740E-01</totfact>
</mgrwt>
</event>
<event>
 4    1  0.8287789E-007  0.8210438E+03  0.7818608E-02  0.9667016E-01
          2   -1    0    0  501    0  0.00000000000E+00  0.00000000000E+00  0.14138171003E+04  0.14138171003E+04  0.25500000000E-02 0. -1.
         -2   -1    0    0    0  501 -0.00000000000E+00 -0.00000000000E+00 -0.54742420703E+03  0.54742420704E+03  0.25500000000E-02 0.  1.
    8880023    1    1    2    0    0 -0.98120009753E+02 -0.48028654598E+03  0.11198477821E+04  0.13885863185E+04  0.65864270000E+03 0. -1.
    8880022    1    1    2    0    0  0.98120009753E+02  0.48028654598E+03 -0.25345488884E+03  0.57265498885E+03  0.15294330000E+03 0.  0.
<mgrwt>
<rscale>  0 0.73015043E+03</rscale>
<asrwt>0</asrwt>
<pdfrwt beam="1">  1        2 0.21751032E+00 0.82104379E+03</pdfrwt>
<pdfrwt beam="2">  1       -2 0.84219109E-01 0.82104379E+03</pdfrwt>
<totfact> 0.17733089E+01</totfact>
</mgrwt>
</event>
<event>
 4    1  0.8287789E-007  0.8137166E+03  0.7818608E-02  0.9681887E-01
          2   -1    0    0  501    0  0.00000000000E+00  0.00000000000E+00  0.16831407180E+04  0.16831407180E+04  0.25500000000E-02 0. -1.
         -2   -1    0    0    0  501 -0.00000000000E+00 -0.00000000000E+00 -0.39443351847E+03  0.39443351848E+03  0.25500000000E-02 0.  1.
    8880023    1    1    2    0    0 -0.26568827360E+03  0.39715770172E+03  0.14213414741E+03  0.82603681570E+03  0.65864270000E+03 0.  1.
    8880022    1    1    2    0    0  0.26568827360E+03 -0.39715770172E+03  0.11465730521E+04  0.12515374208E+04  0.15294330000E+03 0.  0.
<mgrwt>
<rscale>  0 0.72105562E+03</rscale>
<asrwt>0</asrwt>
<pdfrwt beam="1">  1        2 0.25894472E+00 0.81371660E+03</pdfrwt>
<pdfrwt beam="2">  1       -2 0.60682080E-01 0.81371660E+03</pdfrwt>
<totfact> 0.25825324E+01</totfact>
</mgrwt>
</event>
<event>
 4    1  0.8287789E-007  0.9204199E+03  0.7818608E-02  0.9494015E-01
         -2   -1    0    0    0  501 -0.00000000000E+00  0.00000000000E+00  0.16032144475E+04  0.16032144475E+04  0.25500000000E-02 0.  1.
          2   -1    0    0  501    0  0.00000000000E+00 -0.00000000000E+00 -0.83149596349E+03  0.83149596349E+03  0.25500000000E-02 0. -1.
    8880023    1    1    2    0    0  0.16695105318E+03  0.62087836109E+03 -0.46595735880E+03  0.10316438629E+04  0.65864270000E+03 0.  0.
    8880022    1    1    2    0    0 -0.16695105318E+03 -0.62087836109E+03  0.12376758428E+04  0.14030665480E+04  0.15294330000E+03 0.  0.
<mgrwt>
<rscale>  0 0.84726476E+03</rscale>
<asrwt>0</asrwt>
<pdfrwt beam="1">  1        2 0.12792246E+00 0.92041990E+03</pdfrwt>
<pdfrwt beam="2">  1       -2 0.24664838E+00 0.92041990E+03</pdfrwt>
<totfact> 0.22187123E+00</totfact>
</mgrwt>
</event>
<event>
 4    1  0.8287789E-007  0.7330193E+03  0.7818608E-02  0.9880768E-01
         -2   -1    0    0    0  501 -0.00000000000E+00  0.00000000000E+00  0.22165323041E+03  0.22165323043E+03  0.25500000000E-02 0.  1.
          2   -1    0    0  501    0  0.00000000000E+00 -0.00000000000E+00 -0.16219490943E+04  0.16219490943E+04  0.25500000000E-02 0. -1.
    8880023    1    1    2    0    0  0.89501556923E+02 -0.30902529185E+03 -0.12660022044E+04  0.14629008673E+04  0.65864270000E+03 0. -1.
    8880022    1    1    2    0    0 -0.89501556923E+02  0.30902529185E+03 -0.13429365945E+03  0.38070145741E+03  0.15294330000E+03 0.  0.
<mgrwt>
<rscale>  0 0.61202445E+03</rscale>
<asrwt>0</asrwt>
<pdfrwt beam="1">  1        2 0.24953062E+00 0.73301935E+03</pdfrwt>
<pdfrwt beam="2">  1       -2 0.34100498E-01 0.73301935E+03</pdfrwt>
<totfact> 0.89219081E+01</totfact>
</mgrwt>
</event>
<event>
 4    1  0.8287789E-007  0.8357768E+03  0.7818608E-02  0.9638195E-01
         -2   -1    0    0    0  501 -0.00000000000E+00  0.00000000000E+00  0.56283330195E+03  0.56283330195E+03  0.25500000000E-02 0.  1.
          2   -1    0    0  501    0  0.00000000000E+00 -0.00000000000E+00 -0.19731979525E+04  0.19731979525E+04  0.25500000000E-02 0. -1.
    8880023    1    1    2    0    0  0.45278817321E+03 -0.24432669022E+03 -0.17229001182E+04  0.19149171483E+04  0.65864270000E+03 0.  0.
    8880022    1    1    2    0    0 -0.45278817321E+03  0.24432669022E+03  0.31253546762E+03  0.62111410617E+03  0.15294330000E+03 0.  0.
<mgrwt>
<rscale>  0 0.74818924E+03</rscale>
<asrwt>0</asrwt>
<pdfrwt beam="1">  1        2 0.30356891E+00 0.83577680E+03</pdfrwt>
<pdfrwt beam="2">  1       -2 0.86589740E-01 0.83577680E+03</pdfrwt>
<totfact> 0.81625158E+00</totfact>
</mgrwt>
</event>
<event>
 4    1  0.8287789E-007  0.6979032E+03  0.7818608E-02  0.1000601E+00
         -2   -1    0    0    0  501 -0.00000000000E+00  0.00000000000E+00  0.28865496649E+03  0.28865496650E+03  0.25500000000E-02 0.  1.
          2   -1    0    0  501    0  0.00000000000E+00 -0.00000000000E+00 -0.11564891911E+04  0.11564891911E+04  0.25500000000E-02 0. -1.
    8880023    1    1    2    0    0 -0.21670148171E+01  0.23076810469E+03 -0.92867270750E+03  0.11616806007E+04  0.65864270000E+03 0. -1.
    8880022    1    1    2    0    0  0.21670148171E+01 -0.23076810469E+03  0.60838482880E+02  0.28346355693E+03  0.15294330000E+03 0.  0.
<mgrwt>
<rscale>  0 0.55387349E+03</rscale>
<asrwt>0</asrwt>
<pdfrwt beam="1">  1        2 0.17792141E+00 0.69790316E+03</pdfrwt>
<pdfrwt beam="2">  1       -2 0.44408457E-01 0.69790316E+03</pdfrwt>
<totfact> 0.98605168E+01</totfact>
</mgrwt>
</event>
<event>
 4    1  0.8287789E-007  0.7847709E+03  0.7818608E-02  0.9744747E-01
          2   -1    0    0  501    0  0.00000000000E+00  0.00000000000E+00  0.22371940862E+04  0.22371940862E+04  0.25500000000E-02 0. -1.
         -2   -1    0    0    0  501 -0.00000000000E+00 -0.00000000000E+00 -0.26233388802E+03  0.26233388803E+03  0.25500000000E-02 0.  1.
    8880023    1    1    2    0    0  0.41300511542E+03 -0.10715351986E+03  0.18789197969E+04  0.20362231979E+04  0.65864270000E+03 0.  0.
    8880022    1    1    2    0    0 -0.41300511542E+03  0.10715351986E+03  0.95940401295E+02  0.46330477636E+03  0.15294330000E+03 0.  0.
<mgrwt>
<rscale>  0 0.68413934E+03</rscale>
<asrwt>0</asrwt>
<pdfrwt beam="1">  1        2 0.34418371E+00 0.78477086E+03</pdfrwt>
<pdfrwt beam="2">  1       -2 0.40359059E-01 0.78477086E+03</pdfrwt>
<totfact> 0.29530859E+01</totfact>
</mgrwt>
</event>
<event>
 4    1  0.8287789E-007  0.8381126E+03  0.7818608E-02  0.9633749E-01
          2   -1    0    0  501    0  0.00000000000E+00  0.00000000000E+00  0.26048050748E+04  0.26048050748E+04  0.25500000000E-02 0. -1.
         -2   -1    0    0    0  501 -0.00000000000E+00 -0.00000000000E+00 -0.44337553224E+03  0.44337553225E+03  0.25500000000E-02 0.  1.
    8880023    1    1    2    0    0  0.91690427611E+02 -0.51011311608E+03  0.23347977150E+04  0.24806678742E+04  0.65864270000E+03 0. -1.
    8880022    1    1    2    0    0 -0.91690427611E+02  0.51011311608E+03 -0.17336817246E+03  0.56751273286E+03  0.15294330000E+03 0.  0.
<mgrwt>
<rscale>  0 0.75102133E+03</rscale>
<asrwt>0</asrwt>
<pdfrwt beam="1">  1        2 0.40073924E+00 0.83811260E+03</pdfrwt>
<pdfrwt beam="2">  1       -2 0.68211621E-01 0.83811260E+03</pdfrwt>
<totfact> 0.61680898E+00</totfact>
</mgrwt>
</event>
<event>
 4    1  0.8287789E-007  0.1029828E+04  0.7818608E-02  0.9343533E-01
          2   -1    0    0  501    0  0.00000000000E+00  0.00000000000E+00  0.21359108582E+04  0.21359108582E+04  0.25500000000E-02 0. -1.
         -2   -1    0    0    0  501 -0.00000000000E+00 -0.00000000000E+00 -0.74947914296E+03  0.74947914296E+03  0.25500000000E-02 0.  1.
    8880023    1    1    2    0    0  0.72164097755E+03 -0.32553022587E+03  0.17264956532E+04  0.20103067117E+04  0.65864270000E+03 0.  0.
    8880022    1    1    2    0    0 -0.72164097755E+03  0.32553022587E+03 -0.34006393799E+03  0.87508328939E+03  0.15294330000E+03 0.  1.
<mgrwt>
<rscale>  0 0.96872016E+03</rscale>
<asrwt>0</asrwt>
<pdfrwt beam="1">  1        2 0.32860167E+00 0.10298281E+04</pdfrwt>
<pdfrwt beam="2">  1       -2 0.11530448E+00 0.10298281E+04</pdfrwt>
<totfact> 0.32781076E+00</totfact>
</mgrwt>
</event>
<event>
 4    1  0.8287789E-007  0.7652959E+03  0.7818608E-02  0.9791585E-01
         -2   -1    0    0    0  501 -0.00000000000E+00  0.00000000000E+00  0.11707995917E+04  0.11707995917E+04  0.25500000000E-02 0.  1.
          2   -1    0    0  501    0  0.00000000000E+00 -0.00000000000E+00 -0.78078620034E+03  0.78078620035E+03  0.25500000000E-02 0. -1.
    8880023    1    1    2    0    0  0.38286952011E+03  0.72653702132E+02 -0.53667807287E+03  0.93471984574E+03  0.65864270000E+03 0. -1.
    8880022    1    1    2    0    0 -0.38286952011E+03 -0.72653702132E+02  0.92669146418E+03  0.10168659463E+04  0.15294330000E+03 0.  0.
<mgrwt>
<rscale>  0 0.65816105E+03</rscale>
<asrwt>0</asrwt>
<pdfrwt beam="1">  1        2 0.12012095E+00 0.76529591E+03</pdfrwt>
<pdfrwt beam="2">  1       -2 0.18012301E+00 0.76529591E+03</pdfrwt>
<totfact> 0.65477135E+00</totfact>
</mgrwt>
</event>
<event>
 4    1  0.8287789E-007  0.9040841E+03  0.7818608E-02  0.9519507E-01
          2   -1    0    0  501    0  0.00000000000E+00  0.00000000000E+00  0.38578349046E+04  0.38578349046E+04  0.25500000000E-02 0. -1.
         -2   -1    0    0    0  501 -0.00000000000E+00 -0.00000000000E+00 -0.83890938742E+03  0.83890938743E+03  0.25500000000E-02 0.  1.
    8880023    1    1    2    0    0  0.18421002296E+03 -0.59129060747E+03  0.36732724753E+04  0.37828955575E+04  0.65864270000E+03 0. -1.
    8880022    1    1    2    0    0 -0.18421002296E+03  0.59129060747E+03 -0.65434695809E+03  0.91384873454E+03  0.15294330000E+03 0.  0.
<mgrwt>
<rscale>  0 0.82860817E+03</rscale>
<asrwt>0</asrwt>
<pdfrwt beam="1">  1        2 0.59351307E+00 0.90408413E+03</pdfrwt>
<pdfrwt beam="2">  1       -2 0.12906298E+00 0.90408413E+03</pdfrwt>
<totfact> 0.20894984E-01</totfact>
</mgrwt>
</event>
<event>
 4    1  0.8287789E-007  0.1002799E+04  0.7818608E-02  0.9377904E-01
         -2   -1    0    0    0  501 -0.00000000000E+00  0.00000000000E+00  0.43211697224E+03  0.43211697225E+03  0.25500000000E-02 0.  1.
          2   -1    0    0  501    0  0.00000000000E+00 -0.00000000000E+00 -0.23377014493E+04  0.23377014493E+04  0.25500000000E-02 0. -1.
    8880023    1    1    2    0    0 -0.74553919200E+03 -0.12636392707E+03 -0.16961461932E+04  0.19704107805E+04  0.65864270000E+03 0. -1.
    8880022    1    1    2    0    0  0.74553919200E+03  0.12636392707E+03 -0.20943828389E+03  0.79940764110E+03  0.15294330000E+03 0.  0.
<mgrwt>
<rscale>  0 0.93916598E+03</rscale>
<asrwt>0</asrwt>
<pdfrwt beam="1">  1        2 0.35964637E+00 0.10027994E+04</pdfrwt>
<pdfrwt beam="2">  1       -2 0.66479535E-01 0.10027994E+04</pdfrwt>
<totfact> 0.90463439E+00</totfact>
</mgrwt>
</event>
<event>
 4    1  0.8287789E-007  0.8049958E+03  0.7818608E-02  0.9700096E-01
          2   -1    0    0  501    0  0.00000000000E+00  0.00000000000E+00  0.99183612093E+03  0.99183612094E+03  0.25500000000E-02 0. -1.
         -2   -1    0    0    0  501 -0.00000000000E+00 -0.00000000000E+00 -0.42245894009E+03  0.42245894010E+03  0.25500000000E-02 0.  1.
    8880023    1    1    2    0    0  0.23188074910E+03  0.40054876244E+03  0.39418658437E+03  0.89632653785E+03  0.65864270000E+03 0.  0.
    8880022    1    1    2    0    0 -0.23188074910E+03 -0.40054876244E+03  0.17519059647E+03  0.51796852318E+03  0.15294330000E+03 0. -1.
<mgrwt>
<rscale>  0 0.71011048E+03</rscale>
<asrwt>0</asrwt>
<pdfrwt beam="1">  1        2 0.15259017E+00 0.80499578E+03</pdfrwt>
<pdfrwt beam="2">  1       -2 0.64993684E-01 0.80499578E+03</pdfrwt>
<totfact> 0.56264218E+01</totfact>
</mgrwt>
</event>
<event>
 4    1  0.8287789E-007  0.6691041E+03  0.7818608E-02  0.1016313E+00
          2   -1    0    0  501    0  0.00000000000E+00  0.00000000000E+00  0.18210497167E+04  0.18210497167E+04  0.25500000000E-02 0. -1.
         -2   -1    0    0    0  501 -0.00000000000E+00 -0.00000000000E+00 -0.19577846077E+03  0.19577846078E+03  0.25500000000E-02 0.  1.
    8880023    1    1    2    0    0 -0.71275703007E+02 -0.93860745109E+02  0.16864072246E+04  0.18142958961E+04  0.65864270000E+03 0. -1.
    8880022    1    1    2    0    0  0.71275703007E+02  0.93860745109E+02 -0.61135968655E+02  0.20253228135E+03  0.15294330000E+03 0.  0.
<mgrwt>
<rscale>  0 0.49040766E+03</rscale>
<asrwt>0</asrwt>
<pdfrwt beam="1">  1        2 0.28016150E+00 0.66910408E+03</pdfrwt>
<pdfrwt beam="2">  1       -2 0.30119763E-01 0.66910408E+03</pdfrwt>
<totfact> 0.88267827E+01</totfact>
</mgrwt>
</event>
<event>
 4    1  0.8287789E-007  0.6832761E+03  0.7818608E-02  0.1007528E+00
          2   -1    0    0  501    0  0.00000000000E+00  0.00000000000E+00  0.33736809942E+04  0.33736809942E+04  0.25500000000E-02 0. -1.
         -2   -1    0    0    0  501 -0.00000000000E+00 -0.00000000000E+00 -0.76360797629E+02  0.76360797672E+02  0.25500000000E-02 0.  1.
    8880023    1    1    2    0    0  0.10557068722E+03  0.14802298753E+03  0.29574983581E+04  0.30354015746E+04  0.65864270000E+03 0.  1.
    8880022    1    1    2    0    0 -0.10557068722E+03 -0.14802298753E+03  0.33982183847E+03  0.41464021724E+03  0.15294330000E+03 0.  0.
<mgrwt>
<rscale>  0 0.52469010E+03</rscale>
<asrwt>0</asrwt>
<pdfrwt beam="1">  1        2 0.51902769E+00 0.68327607E+03</pdfrwt>
<pdfrwt beam="2">  1       -2 0.11747819E-01 0.68327607E+03</pdfrwt>
<totfact> 0.56636834E+01</totfact>
</mgrwt>
</event>
<event>
 4    1  0.8287789E-007  0.1026372E+04  0.7818608E-02  0.9347840E-01
         -2   -1    0    0    0  501 -0.00000000000E+00  0.00000000000E+00  0.33724158599E+03  0.33724158600E+03  0.25500000000E-02 0.  1.
          2   -1    0    0  501    0  0.00000000000E+00 -0.00000000000E+00 -0.32906277393E+04  0.32906277393E+04  0.25500000000E-02 0. -1.
    8880023    1    1    2    0    0  0.41245059538E+03 -0.67045837808E+03 -0.25096019570E+04  0.27113727371E+04  0.65864270000E+03 0.  0.
    8880022    1    1    2    0    0 -0.41245059538E+03  0.67045837808E+03 -0.44378419631E+03  0.91649658825E+03  0.15294330000E+03 0.  0.
<mgrwt>
<rscale>  0 0.96495462E+03</rscale>
<asrwt>0</asrwt>
<pdfrwt beam="1">  1        2 0.50625040E+00 0.10263723E+04</pdfrwt>
<pdfrwt beam="2">  1       -2 0.51883323E-01 0.10263723E+04</pdfrwt>
<totfact> 0.40701169E+00</totfact>
</mgrwt>
</event>
<event>
 4    1  0.8287789E-007  0.8642847E+03  0.7818608E-02  0.9585987E-01
          2   -1    0    0  501    0  0.00000000000E+00  0.00000000000E+00  0.15849086830E+04  0.15849086830E+04  0.25500000000E-02 0. -1.
         -2   -1    0    0    0  501 -0.00000000000E+00 -0.00000000000E+00 -0.44342277876E+03  0.44342277876E+03  0.25500000000E-02 0.  1.
    8880023    1    1    2    0    0  0.54890003169E+03  0.10902600534E+03  0.11615704917E+04  0.14478377423E+04  0.65864270000E+03 0.  0.
    8880022    1    1    2    0    0 -0.54890003169E+03 -0.10902600534E+03 -0.20084587469E+02  0.58049371943E+03  0.15294330000E+03 0.  0.
<mgrwt>
<rscale>  0 0.78230659E+03</rscale>
<asrwt>0</asrwt>
<pdfrwt beam="1">  1        2 0.24383211E+00 0.86428475E+03</pdfrwt>
<pdfrwt beam="2">  1       -2 0.68218887E-01 0.86428475E+03</pdfrwt>
<totfact> 0.22629109E+01</totfact>
</mgrwt>
</event>
<event>
 4    1  0.8287789E-007  0.1025451E+04  0.7818608E-02  0.9348993E-01
          2   -1    0    0  501    0  0.00000000000E+00  0.00000000000E+00  0.83709591631E+03  0.83709591631E+03  0.25500000000E-02 0. -1.
         -2   -1    0    0    0  501 -0.00000000000E+00 -0.00000000000E+00 -0.11626373895E+04  0.11626373895E+04  0.25500000000E-02 0.  1.
    8880023    1    1    2    0    0  0.11351942252E+03 -0.77772241268E+03  0.19618799194E+03  0.10440492062E+04  0.65864270000E+03 0.  0.
    8880022    1    1    2    0    0 -0.11351942252E+03  0.77772241268E+03 -0.52172946508E+03  0.95568409960E+03  0.15294330000E+03 0.  0.
<mgrwt>
<rscale>  0 0.96394970E+03</rscale>
<asrwt>0</asrwt>
<pdfrwt beam="1">  1        2 0.12878399E+00 0.10254506E+04</pdfrwt>
<pdfrwt beam="2">  1       -2 0.17886729E+00 0.10254506E+04</pdfrwt>
<totfact> 0.59203882E+00</totfact>
</mgrwt>
</event>
<event>
 4    1  0.9370462E-007  0.6952299E+03  0.7818608E-02  0.1001760E+00
          2   -1    0    0  501    0  0.00000000000E+00  0.00000000000E+00  0.12983228357E+04  0.12983228357E+04  0.25500000000E-02 0. -1.
         -2   -1    0    0    0  501 -0.00000000000E+00 -0.00000000000E+00 -0.54512883269E+03  0.54512883270E+03  0.25500000000E-02 0.  1.
    8880023    1    1    2    0    0 -0.22245977863E+03 -0.67891267449E+01  0.11616475976E+04  0.13537982836E+04  0.65864270000E+03 0. -1.
    8880022    1    1    2    0    0  0.22245977863E+03  0.67891267449E+01 -0.40845359457E+03  0.48965338484E+03  0.15294330000E+03 0.  0.
<mgrwt>
<rscale>  0 0.54885385E+03</rscale>
<asrwt>0</asrwt>
<pdfrwt beam="1">  1        2 0.19974197E+00 0.69522993E+03</pdfrwt>
<pdfrwt beam="2">  1       -2 0.83865976E-01 0.69522993E+03</pdfrwt>
<totfact> 0.21143309E+01</totfact>
</mgrwt>
</event>
<event>
 4    1  0.8287789E-007  0.9064168E+03  0.7818608E-02  0.9515808E-01
          2   -1    0    0  501    0  0.00000000000E+00  0.00000000000E+00  0.22720213016E+04  0.22720213016E+04  0.25500000000E-02 0. -1.
         -2   -1    0    0    0  501 -0.00000000000E+00 -0.00000000000E+00 -0.52574516287E+03  0.52574516288E+03  0.25500000000E-02 0.  1.
    8880023    1    1    2    0    0 -0.56414303884E+03 -0.26367390640E+03  0.19287176902E+04  0.21310897287E+04  0.65864270000E+03 0.  0.
    8880022    1    1    2    0    0  0.56414303884E+03  0.26367390640E+03 -0.18244155151E+03  0.66667673570E+03  0.15294330000E+03 0.  0.
<mgrwt>
<rscale>  0 0.83128328E+03</rscale>
<asrwt>0</asrwt>
<pdfrwt beam="1">  1        2 0.34954174E+00 0.90641685E+03</pdfrwt>
<pdfrwt beam="2">  1       -2 0.80883871E-01 0.90641685E+03</pdfrwt>
<totfact> 0.64581379E+00</totfact>
</mgrwt>
</event>
<event>
 4    1  0.8287789E-007  0.8239088E+03  0.7818608E-02  0.9661302E-01
          2   -1    0    0  501    0  0.00000000000E+00  0.00000000000E+00  0.30587081040E+04  0.30587081040E+04  0.25500000000E-02 0. -1.
         -2   -1    0    0    0  501 -0.00000000000E+00 -0.00000000000E+00 -0.31000461335E+03  0.31000461336E+03  0.25500000000E-02 0.  1.
    8880023    1    1    2    0    0  0.14667120125E+03 -0.47276113816E+03  0.27285615656E+04  0.28502410352E+04  0.65864270000E+03 0.  0.
    8880022    1    1    2    0    0 -0.14667120125E+03  0.47276113816E+03  0.20141925008E+02  0.51847168215E+03  0.15294330000E+03 0.  0.
<mgrwt>
<rscale>  0 0.73368330E+03</rscale>
<asrwt>0</asrwt>
<pdfrwt beam="1">  1        2 0.47057050E+00 0.82390882E+03</pdfrwt>
<pdfrwt beam="2">  1       -2 0.47693015E-01 0.82390882E+03</pdfrwt>
<totfact> 0.70116381E+00</totfact>
</mgrwt>
</event>
<event>
 4    1  0.8287789E-007  0.1034893E+04  0.7818608E-02  0.9337267E-01
         -2   -1    0    0    0  501 -0.00000000000E+00  0.00000000000E+00  0.61044411380E+03  0.61044411380E+03  0.25500000000E-02 0.  1.
          2   -1    0    0  501    0  0.00000000000E+00 -0.00000000000E+00 -0.20992052823E+04  0.20992052823E+04  0.25500000000E-02 0. -1.
    8880023    1    1    2    0    0  0.59090070638E+03 -0.53668329326E+03 -0.15831823030E+04  0.18914198405E+04  0.65864270000E+03 0. -1.
    8880022    1    1    2    0    0 -0.59090070638E+03  0.53668329326E+03  0.94421134507E+02  0.81822955564E+03  0.15294330000E+03 0. -1.
<mgrwt>
<rscale>  0 0.97423226E+03</rscale>
<asrwt>0</asrwt>
<pdfrwt beam="1">  1        2 0.32295466E+00 0.10348927E+04</pdfrwt>
<pdfrwt beam="2">  1       -2 0.93914480E-01 0.10348927E+04</pdfrwt>
<totfact> 0.56207375E+00</totfact>
</mgrwt>
</event>
<event>
 4    1  0.8287789E-007  0.6817039E+03  0.7818608E-02  0.1008376E+00
         -2   -1    0    0    0  501 -0.00000000000E+00  0.00000000000E+00  0.16069587881E+03  0.16069587883E+03  0.25500000000E-02 0.  1.
          2   -1    0    0  501    0  0.00000000000E+00 -0.00000000000E+00 -0.17412549655E+04  0.17412549655E+04  0.25500000000E-02 0. -1.
    8880023    1    1    2    0    0  0.80729010891E+02  0.15618192534E+03 -0.15127524903E+04  0.16592589521E+04  0.65864270000E+03 0. -1.
    8880022    1    1    2    0    0 -0.80729010891E+02 -0.15618192534E+03 -0.67806596336E+02  0.24269189217E+03  0.15294330000E+03 0. -1.
<mgrwt>
<rscale>  0 0.52125282E+03</rscale>
<asrwt>0</asrwt>
<pdfrwt beam="1">  1        2 0.26788537E+00 0.68170388E+03</pdfrwt>
<pdfrwt beam="2">  1       -2 0.24722444E-01 0.68170388E+03</pdfrwt>
<totfact> 0.13968927E+02</totfact>
</mgrwt>
</event>
<event>
 4    1  0.8287789E-007  0.8241796E+03  0.7818608E-02  0.9660765E-01
         -2   -1    0    0    0  501 -0.00000000000E+00  0.00000000000E+00  0.17988648428E+04  0.17988648428E+04  0.25500000000E-02 0.  1.
          2   -1    0    0  501    0  0.00000000000E+00 -0.00000000000E+00 -0.62986170735E+03  0.62986170735E+03  0.25500000000E-02 0. -1.
    8880023    1    1    2    0    0  0.45383252717E+03  0.19874055565E+03 -0.29517980015E+03  0.87544451101E+03  0.65864270000E+03 0. -1.
    8880022    1    1    2    0    0 -0.45383252717E+03 -0.19874055565E+03  0.14641829356E+04  0.15532820391E+04  0.15294330000E+03 0.  0.
<mgrwt>
<rscale>  0 0.73401652E+03</rscale>
<asrwt>0</asrwt>
<pdfrwt beam="1">  1        2 0.96901802E-01 0.82417958E+03</pdfrwt>
<pdfrwt beam="2">  1       -2 0.27674844E+00 0.82417958E+03</pdfrwt>
<totfact> 0.21123665E+00</totfact>
</mgrwt>
</event>
<event>
 4    1  0.8287789E-007  0.7672415E+03  0.7818608E-02  0.9786708E-01
          2   -1    0    0  501    0  0.00000000000E+00  0.00000000000E+00  0.11991717835E+04  0.11991717835E+04  0.25500000000E-02 0. -1.
         -2   -1    0    0    0  501 -0.00000000000E+00 -0.00000000000E+00 -0.51888496099E+03  0.51888496099E+03  0.25500000000E-02 0.  1.
    8880023    1    1    2    0    0 -0.39195062212E+03  0.34985105558E+02  0.94691026675E+03  0.12187282336E+04  0.65864270000E+03 0. -1.
    8880022    1    1    2    0    0  0.39195062212E+03 -0.34985105558E+02 -0.26662344423E+03  0.49932851092E+03  0.15294330000E+03 0.  0.
<mgrwt>
<rscale>  0 0.66080751E+03</rscale>
<asrwt>0</asrwt>
<pdfrwt beam="1">  1        2 0.18448796E+00 0.76724146E+03</pdfrwt>
<pdfrwt beam="2">  1       -2 0.79828457E-01 0.76724146E+03</pdfrwt>
<totfact> 0.26785386E+01</totfact>
</mgrwt>
</event>
<event>
 4    1  0.8287789E-007  0.9649090E+03  0.7818608E-02  0.9428980E-01
          2   -1    0    0  501    0  0.00000000000E+00  0.00000000000E+00  0.45607122450E+04  0.45607122450E+04  0.25500000000E-02 0. -1.
         -2   -1    0    0    0  501 -0.00000000000E+00 -0.00000000000E+00 -0.33728472693E+03  0.33728472694E+03  0.25500000000E-02 0.  1.
    8880023    1    1    2    0    0  0.87699341492E+02 -0.69967709364E+03  0.40398190559E+04  0.41534548776E+04  0.65864270000E+03 0.  0.
    8880022    1    1    2    0    0 -0.87699341492E+02  0.69967709364E+03  0.18360846222E+03  0.74454209436E+03  0.15294330000E+03 0.  0.
<mgrwt>
<rscale>  0 0.89728625E+03</rscale>
<asrwt>0</asrwt>
<pdfrwt beam="1">  1        2 0.70164808E+00 0.96490902E+03</pdfrwt>
<pdfrwt beam="2">  1       -2 0.51889955E-01 0.96490902E+03</pdfrwt>
<totfact> 0.40859349E-01</totfact>
</mgrwt>
</event>
<event>
 4    1  0.8287789E-007  0.8419368E+03  0.7818608E-02  0.9626539E-01
         -2   -1    0    0    0  501 -0.00000000000E+00  0.00000000000E+00  0.65017766148E+03  0.65017766148E+03  0.25500000000E-02 0.  1.
          2   -1    0    0  501    0  0.00000000000E+00 -0.00000000000E+00 -0.10954245425E+04  0.10954245425E+04  0.25500000000E-02 0. -1.
    8880023    1    1    2    0    0  0.51607601216E+03  0.93343066784E+02 -0.74346541675E+03  0.11232089790E+04  0.65864270000E+03 0. -1.
    8880022    1    1    2    0    0 -0.51607601216E+03 -0.93343066784E+02  0.29821853570E+03  0.62239322497E+03  0.15294330000E+03 0.  0.
<mgrwt>
<rscale>  0 0.75564284E+03</rscale>
<asrwt>0</asrwt>
<pdfrwt beam="1">  1        2 0.16852685E+00 0.84193681E+03</pdfrwt>
<pdfrwt beam="2">  1       -2 0.10002733E+00 0.84193681E+03</pdfrwt>
<totfact> 0.18248602E+01</totfact>
</mgrwt>
</event>
<event>
 4    1  0.8287789E-007  0.8668266E+03  0.7818608E-02  0.9581534E-01
          2   -1    0    0  501    0  0.00000000000E+00  0.00000000000E+00  0.29497365370E+04  0.29497365370E+04  0.25500000000E-02 0. -1.
         -2   -1    0    0    0  501 -0.00000000000E+00 -0.00000000000E+00 -0.29750228700E+03  0.29750228701E+03  0.25500000000E-02 0.  1.
    8880023    1    1    2    0    0 -0.30187470297E+03 -0.47586749896E+03  0.24967836220E+04  0.26429750044E+04  0.65864270000E+03 0. -1.
    8880022    1    1    2    0    0  0.30187470297E+03  0.47586749896E+03  0.15545062802E+03  0.60426381956E+03  0.15294330000E+03 0.  1.
<mgrwt>
<rscale>  0 0.78530559E+03</rscale>
<asrwt>0</asrwt>
<pdfrwt beam="1">  1        2 0.45380561E+00 0.86682664E+03</pdfrwt>
<pdfrwt beam="2">  1       -2 0.45769584E-01 0.86682664E+03</pdfrwt>
<totfact> 0.88243485E+00</totfact>
</mgrwt>
</event>
<event>
 4    1  0.8287789E-007  0.6851353E+03  0.7818608E-02  0.1006556E+00
          2   -1    0    0  501    0  0.00000000000E+00  0.00000000000E+00  0.19035499538E+04  0.19035499538E+04  0.25500000000E-02 0. -1.
         -2   -1    0    0    0  501 -0.00000000000E+00 -0.00000000000E+00 -0.17743987721E+03  0.17743987723E+03  0.25500000000E-02 0.  1.
    8880023    1    1    2    0    0  0.18457566866E+03 -0.39140909332E+02  0.17046238947E+04  0.18371589526E+04  0.65864270000E+03 0.  0.
    8880022    1    1    2    0    0 -0.18457566866E+03  0.39140909332E+02  0.21486181797E+02  0.24383087841E+03  0.15294330000E+03 0.  0.
<mgrwt>
<rscale>  0 0.52866585E+03</rscale>
<asrwt>0</asrwt>
<pdfrwt beam="1">  1        2 0.29285384E+00 0.68513531E+03</pdfrwt>
<pdfrwt beam="2">  1       -2 0.27298443E-01 0.68513531E+03</pdfrwt>
<totfact> 0.95233180E+01</totfact>
</mgrwt>
</event>
<event>
 4    1  0.8287789E-007  0.6787270E+03  0.7818608E-02  0.1010053E+00
         -2   -1    0    0    0  501 -0.00000000000E+00  0.00000000000E+00  0.57422956832E+03  0.57422956832E+03  0.25500000000E-02 0.  1.
          2   -1    0    0  501    0  0.00000000000E+00 -0.00000000000E+00 -0.14102376676E+04  0.14102376676E+04  0.25500000000E-02 0. -1.
    8880023    1    1    2    0    0  0.14893077625E+03 -0.68408679255E+02 -0.13014798437E+04  0.14678283665E+04  0.65864270000E+03 0. -1.
    8880022    1    1    2    0    0 -0.14893077625E+03  0.68408679255E+02  0.46547174446E+03  0.51663886944E+03  0.15294330000E+03 0.  0.
<mgrwt>
<rscale>  0 0.51453541E+03</rscale>
<asrwt>0</asrwt>
<pdfrwt beam="1">  1        2 0.21695964E+00 0.67872699E+03</pdfrwt>
<pdfrwt beam="2">  1       -2 0.88343011E-01 0.67872699E+03</pdfrwt>
<totfact> 0.16254124E+01</totfact>
</mgrwt>
</event>
<event>
 4    1  0.8287789E-007  0.7107342E+03  0.7818608E-02  0.9955285E-01
         -2   -1    0    0    0  501 -0.00000000000E+00  0.00000000000E+00  0.73826945149E+03  0.73826945150E+03  0.25500000000E-02 0.  1.
          2   -1    0    0  501    0  0.00000000000E+00 -0.00000000000E+00 -0.88374773645E+03  0.88374773645E+03  0.25500000000E-02 0. -1.
    8880023    1    1    2    0    0  0.22586989159E+03 -0.14253328046E+03 -0.69379732342E+03  0.99322599453E+03  0.65864270000E+03 0. -1.
    8880022    1    1    2    0    0 -0.22586989159E+03  0.14253328046E+03  0.54831903846E+03  0.62879119342E+03  0.15294330000E+03 0.  0.
<mgrwt>
<rscale>  0 0.57655172E+03</rscale>
<asrwt>0</asrwt>
<pdfrwt beam="1">  1        2 0.13596119E+00 0.71073423E+03</pdfrwt>
<pdfrwt beam="2">  1       -2 0.11357992E+00 0.71073423E+03</pdfrwt>
<totfact> 0.18639683E+01</totfact>
</mgrwt>
</event>
<event>
 4    1  0.8287789E-007  0.8202417E+03  0.7818608E-02  0.9668626E-01
         -2   -1    0    0    0  501 -0.00000000000E+00  0.00000000000E+00  0.17760318598E+03  0.17760318600E+03  0.25500000000E-02 0.  1.
          2   -1    0    0  501    0  0.00000000000E+00 -0.00000000000E+00 -0.30543056574E+04  0.30543056574E+04  0.25500000000E-02 0. -1.
    8880023    1    1    2    0    0  0.47402154911E+03 -0.11953984532E+03 -0.10367465932E+04  0.13219833238E+04  0.65864270000E+03 0.  0.
    8880022    1    1    2    0    0 -0.47402154911E+03  0.11953984532E+03 -0.18399558782E+04  0.19099255196E+04  0.15294330000E+03 0.  0.
<mgrwt>
<rscale>  0 0.72915905E+03</rscale>
<asrwt>0</asrwt>
<pdfrwt beam="1">  1        2 0.46989314E+00 0.82024168E+03</pdfrwt>
<pdfrwt beam="2">  1       -2 0.27323569E-01 0.82024168E+03</pdfrwt>
<totfact> 0.20574911E+01</totfact>
</mgrwt>
</event>
<event>
 4    1  0.8287789E-007  0.7721085E+03  0.7818608E-02  0.9774712E-01
          2   -1    0    0  501    0  0.00000000000E+00  0.00000000000E+00  0.31966696982E+03  0.31966696983E+03  0.25500000000E-02 0. -1.
         -2   -1    0    0    0  501 -0.00000000000E+00 -0.00000000000E+00 -0.12779174941E+04  0.12779174941E+04  0.25500000000E-02 0.  1.
    8880023    1    1    2    0    0  0.33874592786E+03 -0.21815693703E+03 -0.33929346424E+03  0.84336914454E+03  0.65864270000E+03 0. -1.
    8880022    1    1    2    0    0 -0.33874592786E+03  0.21815693703E+03 -0.61895706006E+03  0.75421531941E+03  0.15294330000E+03 0.  0.
<mgrwt>
<rscale>  0 0.66737485E+03</rscale>
<asrwt>0</asrwt>
<pdfrwt beam="1">  1        2 0.49179534E-01 0.77210845E+03</pdfrwt>
<pdfrwt beam="2">  1       -2 0.19660269E+00 0.77210845E+03</pdfrwt>
<totfact> 0.14540842E+01</totfact>
</mgrwt>
</event>
<event>
 4    1  0.8287789E-007  0.8046939E+03  0.7818608E-02  0.9700737E-01
          2   -1    0    0  501    0  0.00000000000E+00  0.00000000000E+00  0.12927988033E+04  0.12927988033E+04  0.25500000000E-02 0. -1.
         -2   -1    0    0    0  501 -0.00000000000E+00 -0.00000000000E+00 -0.56121847060E+03  0.56121847060E+03  0.25500000000E-02 0.  1.
    8880023    1    1    2    0    0  0.37510390528E+03  0.27022051419E+03  0.10113511505E+04  0.12924254029E+04  0.65864270000E+03 0. -1.
    8880022    1    1    2    0    0 -0.37510390528E+03 -0.27022051419E+03 -0.27977081785E+03  0.56159187101E+03  0.15294330000E+03 0.  0.
<mgrwt>
<rscale>  0 0.70972911E+03</rscale>
<asrwt>0</asrwt>
<pdfrwt beam="1">  1        2 0.19889212E+00 0.80469390E+03</pdfrwt>
<pdfrwt beam="2">  1       -2 0.86341304E-01 0.80469390E+03</pdfrwt>
<totfact> 0.19684402E+01</totfact>
</mgrwt>
</event>
<event>
 4    1  0.8287789E-007  0.6658436E+03  0.7818608E-02  0.1018836E+00
         -2   -1    0    0    0  501 -0.00000000000E+00  0.00000000000E+00  0.38833883269E+03  0.38833883270E+03  0.25500000000E-02 0.  1.
          2   -1    0    0  501    0  0.00000000000E+00 -0.00000000000E+00 -0.12780282167E+04  0.12780282167E+04  0.25500000000E-02 0. -1.
    8880023    1    1    2    0    0 -0.53233112182E+02 -0.81876641472E+02 -0.11619307702E+04  0.13391903784E+04  0.65864270000E+03 0.  0.
    8880022    1    1    2    0    0  0.53233112182E+02  0.81876641472E+02  0.27224138620E+03  0.32717667097E+03  0.15294330000E+03 0.  1.
<mgrwt>
<rscale>  0 0.48109057E+03</rscale>
<asrwt>0</asrwt>
<pdfrwt beam="1">  1        2 0.19661972E+00 0.66584364E+03</pdfrwt>
<pdfrwt beam="2">  1       -2 0.59744437E-01 0.66584364E+03</pdfrwt>
<totfact> 0.45748378E+01</totfact>
</mgrwt>
</event>
<event>
 4    1  0.8287789E-007  0.6919276E+03  0.7818608E-02  0.1003250E+00
          2   -1    0    0  501    0  0.00000000000E+00  0.00000000000E+00  0.30819149364E+04  0.30819149364E+04  0.25500000000E-02 0. -1.
         -2   -1    0    0    0  501 -0.00000000000E+00 -0.00000000000E+00 -0.30901212225E+03  0.30901212226E+03  0.25500000000E-02 0.  1.
    8880023    1    1    2    0    0 -0.15042572185E+03 -0.14941793459E+03  0.29788290819E+04  0.30581344841E+04  0.65864270000E+03 0.  0.
    8880022    1    1    2    0    0  0.15042572185E+03  0.14941793459E+03 -0.20592626774E+03  0.33279257464E+03  0.15294330000E+03 0.  0.
<mgrwt>
<rscale>  0 0.54248040E+03</rscale>
<asrwt>0</asrwt>
<pdfrwt beam="1">  1        2 0.47414074E+00 0.69192761E+03</pdfrwt>
<pdfrwt beam="2">  1       -2 0.47540328E-01 0.69192761E+03</pdfrwt>
<totfact> 0.69976759E+00</totfact>
</mgrwt>
</event>
<event>
 4    1  0.8287789E-007  0.7789933E+03  0.7818608E-02  0.9758207E-01
         -2   -1    0    0    0  501 -0.00000000000E+00  0.00000000000E+00  0.15510521725E+04  0.15510521725E+04  0.25500000000E-02 0.  1.
          2   -1    0    0  501    0  0.00000000000E+00 -0.00000000000E+00 -0.10000392939E+04  0.10000392939E+04  0.25500000000E-02 0. -1.
    8880023    1    1    2    0    0 -0.14062521870E+03  0.39146507157E+03 -0.80756903696E+03  0.11220509392E+04  0.65864270000E+03 0.  0.
    8880022    1    1    2    0    0  0.14062521870E+03 -0.39146507157E+03  0.13585819155E+04  0.14290405273E+04  0.15294330000E+03 0.  0.
<mgrwt>
<rscale>  0 0.67654439E+03</rscale>
<asrwt>0</asrwt>
<pdfrwt beam="1">  1        2 0.15385220E+00 0.77899330E+03</pdfrwt>
<pdfrwt beam="2">  1       -2 0.23862341E+00 0.77899330E+03</pdfrwt>
<totfact> 0.19535055E+00</totfact>
</mgrwt>
</event>
<event>
 4    1  0.8345570E-007  0.6635537E+03  0.7818608E-02  0.1020779E+00
          2   -1    0    0  501    0  0.00000000000E+00  0.00000000000E+00  0.33874360190E+04  0.33874360190E+04  0.25500000000E-02 0. -1.
         -2   -1    0    0    0  501 -0.00000000000E+00 -0.00000000000E+00 -0.97364253974E+03  0.97364253974E+03  0.25500000000E-02 0.  1.
    8880023    1    1    2    0    0  0.34493457530E+02  0.72825178884E+02  0.33469252605E+04  0.34120686117E+04  0.65864270000E+03 0. -1.
    8880022    1    1    2    0    0 -0.34493457530E+02 -0.72825178884E+02 -0.93313178127E+03  0.94900994701E+03  0.15294330000E+03 0.  0.
<mgrwt>
<rscale>  0 0.47406581E+03</rscale>
<asrwt>0</asrwt>
<pdfrwt beam="1">  1        2 0.52114400E+00 0.66355370E+03</pdfrwt>
<pdfrwt beam="2">  1       -2 0.14979116E+00 0.66355370E+03</pdfrwt>
<totfact> 0.32524116E-01</totfact>
</mgrwt>
</event>
<event>
 4    1  0.1266825E-006  0.7537515E+03  0.7818608E-02  0.9821561E-01
          2   -1    0    0  501    0  0.00000000000E+00  0.00000000000E+00  0.12524339714E+04  0.12524339714E+04  0.25500000000E-02 0. -1.
         -2   -1    0    0    0  501 -0.00000000000E+00 -0.00000000000E+00 -0.16724035865E+04  0.16724035865E+04  0.25500000000E-02 0.  1.
    8880023    1    1    2    0    0 -0.21047800752E+03 -0.30005021063E+03  0.11113551281E+04  0.13428520199E+04  0.65864270000E+03 0. -1.
    8880022    1    1    2    0    0  0.21047800752E+03  0.30005021063E+03 -0.15313247431E+04  0.15819855380E+04  0.15294330000E+03 0.  0.
<mgrwt>
<rscale>  0 0.64218173E+03</rscale>
<asrwt>0</asrwt>
<pdfrwt beam="1">  1        2 0.19268215E+00 0.75375150E+03</pdfrwt>
<pdfrwt beam="2">  1       -2 0.25729286E+00 0.75375150E+03</pdfrwt>
<totfact> 0.10614680E+00</totfact>
</mgrwt>
</event>
<event>
 4    1  0.8287789E-007  0.8509861E+03  0.7818608E-02  0.9609803E-01
          2   -1    0    0  501    0  0.00000000000E+00  0.00000000000E+00  0.15452870919E+04  0.15452870919E+04  0.25500000000E-02 0. -1.
         -2   -1    0    0    0  501 -0.00000000000E+00 -0.00000000000E+00 -0.58157945620E+03  0.58157945621E+03  0.25500000000E-02 0.  1.
    8880023    1    1    2    0    0  0.46007140959E+03  0.28053776124E+03  0.12387116199E+04  0.15028585499E+04  0.65864270000E+03 0. -1.
    8880022    1    1    2    0    0 -0.46007140959E+03 -0.28053776124E+03 -0.27500398426E+03  0.62400799817E+03  0.15294330000E+03 0.  0.
<mgrwt>
<rscale>  0 0.76650738E+03</rscale>
<asrwt>0</asrwt>
<pdfrwt beam="1">  1        2 0.23773647E+00 0.85098610E+03</pdfrwt>
<pdfrwt beam="2">  1       -2 0.89473763E-01 0.85098610E+03</pdfrwt>
<totfact> 0.12982165E+01</totfact>
</mgrwt>
</event>
<event>
 4    1  0.8287789E-007  0.7843669E+03  0.7818608E-02  0.9745677E-01
         -2   -1    0    0    0  501 -0.00000000000E+00  0.00000000000E+00  0.12879720964E+04  0.12879720964E+04  0.25500000000E-02 0.  1.
          2   -1    0    0  501    0  0.00000000000E+00 -0.00000000000E+00 -0.42471051221E+03  0.42471051222E+03  0.25500000000E-02 0. -1.
    8880023    1    1    2    0    0 -0.19698150382E+03 -0.37764993593E+03  0.54933817007E+02  0.78628818983E+03  0.65864270000E+03 0. -1.
    8880022    1    1    2    0    0  0.19698150382E+03  0.37764993593E+03  0.80832776718E+03  0.92639441879E+03  0.15294330000E+03 0.  0.
<mgrwt>
<rscale>  0 0.68361106E+03</rscale>
<asrwt>0</asrwt>
<pdfrwt beam="1">  1        2 0.65340080E-01 0.78436687E+03</pdfrwt>
<pdfrwt beam="2">  1       -2 0.19814955E+00 0.78436687E+03</pdfrwt>
<totfact> 0.10314778E+01</totfact>
</mgrwt>
</event>
<event>
 4    1  0.8287789E-007  0.7092422E+03  0.7818608E-02  0.9960826E-01
          2   -1    0    0  501    0  0.00000000000E+00  0.00000000000E+00  0.23895909306E+04  0.23895909306E+04  0.25500000000E-02 0. -1.
         -2   -1    0    0    0  501 -0.00000000000E+00 -0.00000000000E+00 -0.27928933304E+03  0.27928933305E+03  0.25500000000E-02 0.  1.
    8880023    1    1    2    0    0  0.25173045747E+03  0.76459771359E+02  0.22313656219E+04  0.23413707662E+04  0.65864270000E+03 0.  0.
    8880022    1    1    2    0    0 -0.25173045747E+03 -0.76459771359E+02 -0.12106402442E+03  0.32750949739E+03  0.15294330000E+03 0.  1.
<mgrwt>
<rscale>  0 0.57401840E+03</rscale>
<asrwt>0</asrwt>
<pdfrwt beam="1">  1        2 0.36762937E+00 0.70924222E+03</pdfrwt>
<pdfrwt beam="2">  1       -2 0.42967590E-01 0.70924222E+03</pdfrwt>
<totfact> 0.21715028E+01</totfact>
</mgrwt>
</event>
<event>
 4    1  0.8287789E-007  0.9123513E+03  0.7818608E-02  0.9506488E-01
         -2   -1    0    0    0  501 -0.00000000000E+00  0.00000000000E+00  0.54036572459E+03  0.54036572460E+03  0.25500000000E-02 0.  1.
          2   -1    0    0  501    0  0.00000000000E+00 -0.00000000000E+00 -0.15538688769E+04  0.15538688769E+04  0.25500000000E-02 0. -1.
    8880023    1    1    2    0    0  0.62421142990E+03 -0.94524185090E+02 -0.26606498309E+02  0.91273919758E+03  0.65864270000E+03 0.  0.
    8880022    1    1    2    0    0 -0.62421142990E+03  0.94524185090E+02 -0.98689665399E+03  0.11814954039E+04  0.15294330000E+03 0.  0.
<mgrwt>
<rscale>  0 0.83807196E+03</rscale>
<asrwt>0</asrwt>
<pdfrwt beam="1">  1        2 0.23905675E+00 0.91235132E+03</pdfrwt>
<pdfrwt beam="2">  1       -2 0.83133189E-01 0.91235132E+03</pdfrwt>
<totfact> 0.15091705E+01</totfact>
</mgrwt>
</event>
<event>
 4    1  0.8287789E-007  0.7110514E+03  0.7818608E-02  0.9954117E-01
          2   -1    0    0  501    0  0.00000000000E+00  0.00000000000E+00  0.88218776144E+03  0.88218776144E+03  0.25500000000E-02 0. -1.
         -2   -1    0    0    0  501 -0.00000000000E+00 -0.00000000000E+00 -0.48250355984E+03  0.48250355985E+03  0.25500000000E-02 0.  1.
    8880023    1    1    2    0    0  0.10593447078E+03 -0.24609310391E+03  0.65308273721E+03  0.96545905962E+03  0.65864270000E+03 0. -1.
    8880022    1    1    2    0    0 -0.10593447078E+03  0.24609310391E+03 -0.25339853562E+03  0.39923226167E+03  0.15294330000E+03 0.  0.
<mgrwt>
<rscale>  0 0.57708721E+03</rscale>
<asrwt>0</asrwt>
<pdfrwt beam="1">  1        2 0.13572119E+00 0.71105143E+03</pdfrwt>
<pdfrwt beam="2">  1       -2 0.74231318E-01 0.71105143E+03</pdfrwt>
<totfact> 0.50131552E+01</totfact>
</mgrwt>
</event>
<event>
 4    1  0.8287789E-007  0.6773209E+03  0.7818608E-02  0.1010882E+00
         -2   -1    0    0    0  501 -0.00000000000E+00  0.00000000000E+00  0.12052128370E+04  0.12052128370E+04  0.25500000000E-02 0.  1.
          2   -1    0    0  501    0  0.00000000000E+00 -0.00000000000E+00 -0.56619096196E+03  0.56619096197E+03  0.25500000000E-02 0. -1.
    8880023    1    1    2    0    0  0.65246203927E+02 -0.14386221667E+03 -0.34709093176E+03  0.76107537451E+03  0.65864270000E+03 0. -1.
    8880022    1    1    2    0    0 -0.65246203927E+02  0.14386221667E+03  0.98611280679E+03  0.10103284244E+04  0.15294330000E+03 0.  0.
<mgrwt>
<rscale>  0 0.51125771E+03</rscale>
<asrwt>0</asrwt>
<pdfrwt beam="1">  1        2 0.87106303E-01 0.67732091E+03</pdfrwt>
<pdfrwt beam="2">  1       -2 0.18541736E+00 0.67732091E+03</pdfrwt>
<totfact> 0.90859024E+00</totfact>
</mgrwt>
</event>
<event>
 4    1  0.8287789E-007  0.7195187E+03  0.7818608E-02  0.9924218E-01
         -2   -1    0    0    0  501 -0.00000000000E+00  0.00000000000E+00  0.26935206848E+03  0.26935206850E+03  0.25500000000E-02 0.  1.
          2   -1    0    0  501    0  0.00000000000E+00 -0.00000000000E+00 -0.12901739783E+04  0.12901739783E+04  0.25500000000E-02 0. -1.
    8880023    1    1    2    0    0 -0.72680901645E+02  0.28038260086E+03 -0.99914710174E+03  0.12312603516E+04  0.65864270000E+03 0.  0.
    8880022    1    1    2    0    0  0.72680901645E+02 -0.28038260086E+03 -0.21674808118E+02  0.32826569521E+03  0.15294330000E+03 0.  0.
<mgrwt>
<rscale>  0 0.59101804E+03</rscale>
<asrwt>0</asrwt>
<pdfrwt beam="1">  1        2 0.19848830E+00 0.71951867E+03</pdfrwt>
<pdfrwt beam="2">  1       -2 0.41438780E-01 0.71951867E+03</pdfrwt>
<totfact> 0.94173718E+01</totfact>
</mgrwt>
</event>
<event>
 4    1  0.8287789E-007  0.1019600E+04  0.7818608E-02  0.9356352E-01
          2   -1    0    0  501    0  0.00000000000E+00  0.00000000000E+00  0.29942821080E+04  0.29942821080E+04  0.25500000000E-02 0. -1.
         -2   -1    0    0    0  501 -0.00000000000E+00 -0.00000000000E+00 -0.33189914227E+03  0.33189914228E+03  0.25500000000E-02 0.  1.
    8880023    1    1    2    0    0 -0.72860990425E+03  0.27368240426E+03  0.21565114144E+04  0.23853985281E+04  0.65864270000E+03 0. -1.
    8880022    1    1    2    0    0  0.72860990425E+03 -0.27368240426E+03  0.50587155131E+03  0.94078272221E+03  0.15294330000E+03 0.  0.
<mgrwt>
<rscale>  0 0.95756467E+03</rscale>
<asrwt>0</asrwt>
<pdfrwt beam="1">  1        2 0.46065878E+00 0.10196002E+04</pdfrwt>
<pdfrwt beam="2">  1       -2 0.51061407E-01 0.10196002E+04</pdfrwt>
<totfact> 0.64925471E+00</totfact>
</mgrwt>
</event>
<event>
 4    1  0.8287789E-007  0.6647805E+03  0.7818608E-02  0.1019718E+00
         -2   -1    0    0    0  501 -0.00000000000E+00  0.00000000000E+00  0.11987278931E+03  0.11987278934E+03  0.25500000000E-02 0.  1.
          2   -1    0    0  501    0  0.00000000000E+00 -0.00000000000E+00 -0.23124984915E+04  0.23124984915E+04  0.25500000000E-02 0. -1.
    8880023    1    1    2    0    0  0.61814268764E+02  0.65589115223E+02 -0.21491279638E+04  0.22495964409E+04  0.65864270000E+03 0. -1.
    8880022    1    1    2    0    0 -0.61814268764E+02 -0.65589115223E+02 -0.43497738406E+02  0.18277483995E+03  0.15294330000E+03 0.  0.
<mgrwt>
<rscale>  0 0.47788420E+03</rscale>
<asrwt>0</asrwt>
<pdfrwt beam="1">  1        2 0.35576897E+00 0.66478052E+03</pdfrwt>
<pdfrwt beam="2">  1       -2 0.18441969E-01 0.66478052E+03</pdfrwt>
<totfact> 0.11440426E+02</totfact>
</mgrwt>
</event>
<event>
 4    1  0.8287789E-007  0.6916957E+03  0.7818608E-02  0.1003357E+00
          2   -1    0    0  501    0  0.00000000000E+00  0.00000000000E+00  0.14950542144E+04  0.14950542144E+04  0.25500000000E-02 0. -1.
         -2   -1    0    0    0  501 -0.00000000000E+00 -0.00000000000E+00 -0.26076447709E+03  0.26076447711E+03  0.25500000000E-02 0.  1.
    8880023    1    1    2    0    0 -0.85530385690E+02  0.19317687930E+03  0.13124313731E+04  0.14835494831E+04  0.65864270000E+03 0. -1.
    8880022    1    1    2    0    0  0.85530385690E+02 -0.19317687930E+03 -0.78141635781E+02  0.27226920838E+03  0.15294330000E+03 0.  0.
<mgrwt>
<rscale>  0 0.54202511E+03</rscale>
<asrwt>0</asrwt>
<pdfrwt beam="1">  1        2 0.23000834E+00 0.69169571E+03</pdfrwt>
<pdfrwt beam="2">  1       -2 0.40117612E-01 0.69169571E+03</pdfrwt>
<totfact> 0.77049718E+01</totfact>
</mgrwt>
</event>
<event>
 4    1  0.8287789E-007  0.1402391E+04  0.7818608E-02  0.8981827E-01
          2   -1    0    0  501    0  0.00000000000E+00  0.00000000000E+00  0.21113359192E+04  0.21113359192E+04  0.25500000000E-02 0. -1.
         -2   -1    0    0    0  501 -0.00000000000E+00 -0.00000000000E+00 -0.10673620820E+04  0.10673620820E+04  0.25500000000E-02 0.  1.
    8880023    1    1    2    0    0  0.15822356959E+03  0.12279477427E+04 -0.20043692267E+03  0.14166423412E+04  0.65864270000E+03 0.  0.
    8880022    1    1    2    0    0 -0.15822356959E+03 -0.12279477427E+04  0.12444107598E+04  0.17620556600E+04  0.15294330000E+03 0.  0.
<mgrwt>
<rscale>  0 0.13619554E+04</rscale>
<asrwt>0</asrwt>
<pdfrwt beam="1">  1        2 0.32482091E+00 0.14023910E+04</pdfrwt>
<pdfrwt beam="2">  1       -2 0.16420955E+00 0.14023910E+04</pdfrwt>
<totfact> 0.12928464E+00</totfact>
</mgrwt>
</event>
<event>
 4    1  0.8287789E-007  0.6657439E+03  0.7818608E-02  0.1018917E+00
         -2   -1    0    0    0  501 -0.00000000000E+00  0.00000000000E+00  0.15257820261E+03  0.15257820263E+03  0.25500000000E-02 0.  1.
          2   -1    0    0  501    0  0.00000000000E+00 -0.00000000000E+00 -0.20160199984E+04  0.20160199984E+04  0.25500000000E-02 0. -1.
    8880023    1    1    2    0    0 -0.91281694248E+02 -0.32748086574E+02 -0.18724458412E+04  0.19872766338E+04  0.65864270000E+03 0. -1.
    8880022    1    1    2    0    0  0.91281694248E+02  0.32748086574E+02  0.90040454163E+01  0.18132156719E+03  0.15294330000E+03 0.  0.
<mgrwt>
<rscale>  0 0.48079368E+03</rscale>
<asrwt>0</asrwt>
<pdfrwt beam="1">  1        2 0.31015690E+00 0.66574394E+03</pdfrwt>
<pdfrwt beam="2">  1       -2 0.23473571E-01 0.66574394E+03</pdfrwt>
<totfact> 0.10887828E+02</totfact>
</mgrwt>
</event>
<event>
 4    1  0.8287789E-007  0.9660918E+03  0.7818608E-02  0.9427330E-01
          2   -1    0    0  501    0  0.00000000000E+00  0.00000000000E+00  0.96780549660E+03  0.96780549661E+03  0.25500000000E-02 0. -1.
         -2   -1    0    0    0  501 -0.00000000000E+00 -0.00000000000E+00 -0.82218413241E+03  0.82218413242E+03  0.25500000000E-02 0.  1.
    8880023    1    1    2    0    0  0.41846115515E+03 -0.56957299518E+03  0.36743477810E+03  0.10336061424E+04  0.65864270000E+03 0.  0.
    8880022    1    1    2    0    0 -0.41846115515E+03  0.56957299518E+03 -0.22181341391E+03  0.75638348661E+03  0.15294330000E+03 0.  0.
<mgrwt>
<rscale>  0 0.89860257E+03</rscale>
<asrwt>0</asrwt>
<pdfrwt beam="1">  1        2 0.14889315E+00 0.96609179E+03</pdfrwt>
<pdfrwt beam="2">  1       -2 0.12648987E+00 0.96609179E+03</pdfrwt>
<totfact> 0.12240808E+01</totfact>
</mgrwt>
</event>
<event>
 4    1  0.8320973E-007  0.9612818E+03  0.7818608E-02  0.9434064E-01
          2   -1    0    0  501    0  0.00000000000E+00  0.00000000000E+00  0.28614140538E+04  0.28614140538E+04  0.25500000000E-02 0. -1.
         -2   -1    0    0    0  501 -0.00000000000E+00 -0.00000000000E+00 -0.94305777327E+03  0.94305777328E+03  0.25500000000E-02 0.  1.
    8880023    1    1    2    0    0  0.36405836184E+03 -0.59809204482E+03  0.26265361735E+04  0.27969188515E+04  0.65864270000E+03 0. -1.
    8880022    1    1    2    0    0 -0.36405836184E+03  0.59809204482E+03 -0.70817989294E+03  0.10075529756E+04  0.15294330000E+03 0.  0.
<mgrwt>
<rscale>  0 0.89324554E+03</rscale>
<asrwt>0</asrwt>
<pdfrwt beam="1">  1        2 0.44021754E+00 0.96128185E+03</pdfrwt>
<pdfrwt beam="2">  1       -2 0.14508581E+00 0.96128185E+03</pdfrwt>
<totfact> 0.70827414E-01</totfact>
</mgrwt>
</event>
<event>
 4    1  0.8287789E-007  0.7209289E+03  0.7818608E-02  0.9919455E-01
          2   -1    0    0  501    0  0.00000000000E+00  0.00000000000E+00  0.27146339565E+03  0.27146339566E+03  0.25500000000E-02 0. -1.
         -2   -1    0    0    0  501 -0.00000000000E+00 -0.00000000000E+00 -0.11992733184E+04  0.11992733184E+04  0.25500000000E-02 0.  1.
    8880023    1    1    2    0    0 -0.19183576975E+03 -0.22164691057E+03 -0.34171945913E+03  0.79781621351E+03  0.65864270000E+03 0. -1.
    8880022    1    1    2    0    0  0.19183576975E+03  0.22164691057E+03 -0.58609046365E+03  0.67292050059E+03  0.15294330000E+03 0.  0.
<mgrwt>
<rscale>  0 0.59327600E+03</rscale>
<asrwt>0</asrwt>
<pdfrwt beam="1">  1        2 0.41763600E-01 0.72092893E+03</pdfrwt>
<pdfrwt beam="2">  1       -2 0.18450359E+00 0.72092893E+03</pdfrwt>
<totfact> 0.21085060E+01</totfact>
</mgrwt>
</event>
<event>
 4    1  0.8287789E-007  0.6782984E+03  0.7818608E-02  0.1010303E+00
         -2   -1    0    0    0  501 -0.00000000000E+00  0.00000000000E+00  0.27040386231E+03  0.27040386232E+03  0.25500000000E-02 0.  1.
          2   -1    0    0  501    0  0.00000000000E+00 -0.00000000000E+00 -0.20835218004E+04  0.20835218004E+04  0.25500000000E-02 0. -1.
    8880023    1    1    2    0    0  0.90236011954E+02  0.13466970175E+03 -0.19686009375E+04  0.20821811457E+04  0.65864270000E+03 0. -1.
    8880022    1    1    2    0    0 -0.90236011954E+02 -0.13466970175E+03  0.15548299935E+03  0.27174451701E+03  0.15294330000E+03 0.  0.
<mgrwt>
<rscale>  0 0.51354379E+03</rscale>
<asrwt>0</asrwt>
<pdfrwt beam="1">  1        2 0.32054181E+00 0.67829837E+03</pdfrwt>
<pdfrwt beam="2">  1       -2 0.41600596E-01 0.67829837E+03</pdfrwt>
<totfact> 0.34300098E+01</totfact>
</mgrwt>
</event>
<event>
 4    1  0.8287789E-007  0.7336506E+03  0.7818608E-02  0.9878844E-01
          2   -1    0    0  501    0  0.00000000000E+00  0.00000000000E+00  0.80065774530E+03  0.80065774531E+03  0.25500000000E-02 0. -1.
         -2   -1    0    0    0  501 -0.00000000000E+00 -0.00000000000E+00 -0.47025649644E+03  0.47025649645E+03  0.25500000000E-02 0.  1.
    8880023    1    1    2    0    0 -0.39643134779E+02 -0.32072012970E+03  0.48702280105E+03  0.88058752815E+03  0.65864270000E+03 0. -1.
    8880022    1    1    2    0    0  0.39643134779E+02  0.32072012970E+03 -0.15662155219E+03  0.39032671360E+03  0.15294330000E+03 0.  0.
<mgrwt>
<rscale>  0 0.61297642E+03</rscale>
<asrwt>0</asrwt>
<pdfrwt beam="1">  1        2 0.12317811E+00 0.73365059E+03</pdfrwt>
<pdfrwt beam="2">  1       -2 0.72347154E-01 0.73365059E+03</pdfrwt>
<totfact> 0.60370352E+01</totfact>
</mgrwt>
</event>
<event>
 4    1  0.8287789E-007  0.9631121E+03  0.7818608E-02  0.9431494E-01
         -2   -1    0    0    0  501 -0.00000000000E+00  0.00000000000E+00  0.11198351699E+04  0.11198351699E+04  0.25500000000E-02 0.  1.
          2   -1    0    0  501    0  0.00000000000E+00 -0.00000000000E+00 -0.74440431441E+03  0.74440431441E+03  0.25500000000E-02 0. -1.
    8880023    1    1    2    0    0  0.68694913452E+03 -0.14790396645E+03 -0.14848363677E+03  0.97449078670E+03  0.65864270000E+03 0. -1.
    8880022    1    1    2    0    0 -0.68694913452E+03  0.14790396645E+03  0.52391449227E+03  0.88974869763E+03  0.15294330000E+03 0.  0.
<mgrwt>
<rscale>  0 0.89528521E+03</rscale>
<asrwt>0</asrwt>
<pdfrwt beam="1">  1        2 0.11452374E+00 0.96311209E+03</pdfrwt>
<pdfrwt beam="2">  1       -2 0.17228233E+00 0.96311209E+03</pdfrwt>
<totfact> 0.77402244E+00</totfact>
</mgrwt>
</event>
<event>
 4    1  0.8287789E-007  0.7348621E+03  0.7818608E-02  0.9875174E-01
          2   -1    0    0  501    0  0.00000000000E+00  0.00000000000E+00  0.97783159214E+03  0.97783159215E+03  0.25500000000E-02 0. -1.
         -2   -1    0    0    0  501 -0.00000000000E+00 -0.00000000000E+00 -0.61884813880E+03  0.61884813881E+03  0.25500000000E-02 0.  1.
    8880023    1    1    2    0    0  0.15531944094E+03  0.28651003527E+03  0.76040911269E+03  0.10574707343E+04  0.65864270000E+03 0. -1.
    8880022    1    1    2    0    0 -0.15531944094E+03 -0.28651003527E+03 -0.40142565934E+03  0.53920899662E+03  0.15294330000E+03 0.  0.
<mgrwt>
<rscale>  0 0.61479681E+03</rscale>
<asrwt>0</asrwt>
<pdfrwt beam="1">  1        2 0.15043563E+00 0.73486212E+03</pdfrwt>
<pdfrwt beam="2">  1       -2 0.95207406E-01 0.73486212E+03</pdfrwt>
<totfact> 0.24566059E+01</totfact>
</mgrwt>
</event>
<event>
 4    1  0.8287789E-007  0.7077174E+03  0.7818608E-02  0.9966577E-01
          2   -1    0    0  501    0  0.00000000000E+00  0.00000000000E+00  0.68899601015E+03  0.68899601015E+03  0.25500000000E-02 0. -1.
         -2   -1    0    0    0  501 -0.00000000000E+00 -0.00000000000E+00 -0.56875752442E+03  0.56875752443E+03  0.25500000000E-02 0.  1.
    8880023    1    1    2    0    0  0.25509331411E+03 -0.44509309955E+02  0.42830539789E+03  0.82722995455E+03  0.65864270000E+03 0. -1.
    8880022    1    1    2    0    0 -0.25509331411E+03  0.44509309955E+02 -0.30806691216E+03  0.43052358003E+03  0.15294330000E+03 0.  0.
<mgrwt>
<rscale>  0 0.57140385E+03</rscale>
<asrwt>0</asrwt>
<pdfrwt beam="1">  1        2 0.10599939E+00 0.70771738E+03</pdfrwt>
<pdfrwt beam="2">  1       -2 0.87501157E-01 0.70771738E+03</pdfrwt>
<totfact> 0.47901071E+01</totfact>
</mgrwt>
</event>
<event>
 4    1  0.8287789E-007  0.8455370E+03  0.7818608E-02  0.9619827E-01
         -2   -1    0    0    0  501 -0.00000000000E+00  0.00000000000E+00  0.70666833649E+03  0.70666833649E+03  0.25500000000E-02 0.  1.
          2   -1    0    0  501    0  0.00000000000E+00 -0.00000000000E+00 -0.14604825177E+04  0.14604825177E+04  0.25500000000E-02 0. -1.
    8880023    1    1    2    0    0  0.48563041492E+03 -0.21280439288E+03 -0.11927453783E+04  0.14620445798E+04  0.65864270000E+03 0.  0.
    8880022    1    1    2    0    0 -0.48563041492E+03  0.21280439288E+03  0.43893119705E+03  0.70510627446E+03  0.15294330000E+03 0.  0.
<mgrwt>
<rscale>  0 0.75997694E+03</rscale>
<asrwt>0</asrwt>
<pdfrwt beam="1">  1        2 0.22468962E+00 0.84553700E+03</pdfrwt>
<pdfrwt beam="2">  1       -2 0.10871821E+00 0.84553700E+03</pdfrwt>
<totfact> 0.91390342E+00</totfact>
</mgrwt>
</event>
<event>
 4    1  0.8287789E-007  0.9025859E+03  0.7818608E-02  0.9521893E-01
          2   -1    0    0  501    0  0.00000000000E+00  0.00000000000E+00  0.19473519649E+04  0.19473519649E+04  0.25500000000E-02 0. -1.
         -2   -1    0    0    0  501 -0.00000000000E+00 -0.00000000000E+00 -0.60567265088E+03  0.60567265089E+03  0.25500000000E-02 0.  1.
    8880023    1    1    2    0    0  0.16391584654E+03  0.59496439205E+03  0.16235273987E+04  0.18575528130E+04  0.65864270000E+03 0. -1.
    8880022    1    1    2    0    0 -0.16391584654E+03 -0.59496439205E+03 -0.28184808471E+03  0.69547180275E+03  0.15294330000E+03 0.  0.
<mgrwt>
<rscale>  0 0.82688796E+03</rscale>
<asrwt>0</asrwt>
<pdfrwt beam="1">  1        2 0.29959261E+00 0.90258586E+03</pdfrwt>
<pdfrwt beam="2">  1       -2 0.93180407E-01 0.90258586E+03</pdfrwt>
<totfact> 0.70547484E+00</totfact>
</mgrwt>
</event>
<event>
 4    1  0.8287789E-007  0.8426979E+03  0.7818608E-02  0.9625114E-01
          2   -1    0    0  501    0  0.00000000000E+00  0.00000000000E+00  0.21847143495E+04  0.21847143495E+04  0.25500000000E-02 0. -1.
         -2   -1    0    0    0  501 -0.00000000000E+00 -0.00000000000E+00 -0.46167922499E+03  0.46167922500E+03  0.25500000000E-02 0.  1.
    8880023    1    1    2    0    0  0.43447258142E+03 -0.29591061719E+03  0.18938683893E+04  0.20728910245E+04  0.65864270000E+03 0. -1.
    8880022    1    1    2    0    0 -0.43447258142E+03  0.29591061719E+03 -0.17083326483E+03  0.57350254992E+03  0.15294330000E+03 0.  0.
<mgrwt>
<rscale>  0 0.75656040E+03</rscale>
<asrwt>0</asrwt>
<pdfrwt beam="1">  1        2 0.33610989E+00 0.84269788E+03</pdfrwt>
<pdfrwt beam="2">  1       -2 0.71027575E-01 0.84269788E+03</pdfrwt>
<totfact> 0.97287265E+00</totfact>
</mgrwt>
</event>
<event>
 4    1  0.8287789E-007  0.7378957E+03  0.7818608E-02  0.9866120E-01
          2   -1    0    0  501    0  0.00000000000E+00  0.00000000000E+00  0.18807678730E+04  0.18807678730E+04  0.25500000000E-02 0. -1.
         -2   -1    0    0    0  501 -0.00000000000E+00 -0.00000000000E+00 -0.41676206074E+03  0.41676206074E+03  0.25500000000E-02 0.  1.
    8880023    1    1    2    0    0  0.25734667080E+03  0.21083778868E+03  0.17059233164E+04  0.18586727657E+04  0.65864270000E+03 0. -1.
    8880022    1    1    2    0    0 -0.25734667080E+03 -0.21083778868E+03 -0.24191750418E+03  0.43885716805E+03  0.15294330000E+03 0.  0.
<mgrwt>
<rscale>  0 0.61931745E+03</rscale>
<asrwt>0</asrwt>
<pdfrwt beam="1">  1        2 0.28934890E+00 0.73789572E+03</pdfrwt>
<pdfrwt beam="2">  1       -2 0.64117241E-01 0.73789572E+03</pdfrwt>
<totfact> 0.18081411E+01</totfact>
</mgrwt>
</event>
<event>
 4    1  0.8287789E-007  0.9842190E+03  0.7818608E-02  0.9402502E-01
         -2   -1    0    0    0  501 -0.00000000000E+00  0.00000000000E+00  0.10013717633E+04  0.10013717633E+04  0.25500000000E-02 0.  1.
          2   -1    0    0  501    0  0.00000000000E+00 -0.00000000000E+00 -0.14861906319E+04  0.14861906319E+04  0.25500000000E-02 0. -1.
    8880023    1    1    2    0    0  0.55130287933E+03 -0.48056417646E+03 -0.11313156536E+04  0.14995206256E+04  0.65864270000E+03 0. -1.
    8880022    1    1    2    0    0 -0.55130287933E+03  0.48056417646E+03  0.64649678495E+03  0.98804176957E+03  0.15294330000E+03 0.  0.
<mgrwt>
<rscale>  0 0.91870099E+03</rscale>
<asrwt>0</asrwt>
<pdfrwt beam="1">  1        2 0.22864471E+00 0.98421898E+03</pdfrwt>
<pdfrwt beam="2">  1       -2 0.15405719E+00 0.98421898E+03</pdfrwt>
<totfact> 0.35862618E+00</totfact>
</mgrwt>
</event>
<event>
 4    1  0.8287789E-007  0.1126198E+04  0.7818608E-02  0.9232434E-01
         -2   -1    0    0    0  501 -0.00000000000E+00  0.00000000000E+00  0.52555518491E+03  0.52555518492E+03  0.25500000000E-02 0.  1.
          2   -1    0    0  501    0  0.00000000000E+00 -0.00000000000E+00 -0.29423204011E+04  0.29423204011E+04  0.25500000000E-02 0. -1.
    8880023    1    1    2    0    0  0.48377886525E+03 -0.77489946854E+03 -0.31245252911E+03  0.11687377661E+04  0.65864270000E+03 0.  0.
    8880022    1    1    2    0    0 -0.48377886525E+03  0.77489946854E+03 -0.21043126870E+04  0.22991378199E+04  0.15294330000E+03 0.  0.
<mgrwt>
<rscale>  0 0.10724838E+04</rscale>
<asrwt>0</asrwt>
<pdfrwt beam="1">  1        2 0.45266467E+00 0.11261978E+04</pdfrwt>
<pdfrwt beam="2">  1       -2 0.80854645E-01 0.11261978E+04</pdfrwt>
<totfact> 0.25575192E+00</totfact>
</mgrwt>
</event>
<event>
 4    1  0.8287789E-007  0.6653719E+03  0.7818608E-02  0.1019223E+00
          2   -1    0    0  501    0  0.00000000000E+00  0.00000000000E+00  0.34098003349E+04  0.34098003349E+04  0.25500000000E-02 0. -1.
         -2   -1    0    0    0  501 -0.00000000000E+00 -0.00000000000E+00 -0.12030612148E+03  0.12030612150E+03  0.25500000000E-02 0.  1.
    8880023    1    1    2    0    0  0.89314512531E+02  0.30535730692E+02  0.32835461244E+04  0.33502828045E+04  0.65864270000E+03 0. -1.
    8880022    1    1    2    0    0 -0.89314512531E+02 -0.30535730692E+02  0.59480890296E+01  0.17982365188E+03  0.15294330000E+03 0.  0.
<mgrwt>
<rscale>  0 0.47967888E+03</rscale>
<asrwt>0</asrwt>
<pdfrwt beam="1">  1        2 0.52458470E+00 0.66537187E+03</pdfrwt>
<pdfrwt beam="2">  1       -2 0.18508633E-01 0.66537187E+03</pdfrwt>
<totfact> 0.24981889E+01</totfact>
</mgrwt>
</event>
<event>
 4    1  0.8287789E-007  0.9112127E+03  0.7818608E-02  0.9508266E-01
         -2   -1    0    0    0  501 -0.00000000000E+00  0.00000000000E+00  0.18724579794E+03  0.18724579796E+03  0.25500000000E-02 0.  1.
          2   -1    0    0  501    0  0.00000000000E+00 -0.00000000000E+00 -0.35084078396E+04  0.35084078396E+04  0.25500000000E-02 0. -1.
    8880023    1    1    2    0    0 -0.62377421069E+03 -0.86046761508E+02 -0.14211833398E+04  0.16882152122E+04  0.65864270000E+03 0.  1.
    8880022    1    1    2    0    0  0.62377421069E+03  0.86046761508E+02 -0.18999787019E+04  0.20074384254E+04  0.15294330000E+03 0.  0.
<mgrwt>
<rscale>  0 0.83677124E+03</rscale>
<asrwt>0</asrwt>
<pdfrwt beam="1">  1        2 0.53975501E+00 0.91121266E+03</pdfrwt>
<pdfrwt beam="2">  1       -2 0.28807048E-01 0.91121266E+03</pdfrwt>
<totfact> 0.93146701E+00</totfact>
</mgrwt>
</event>
<event>
 4    1  0.8287789E-007  0.1019493E+04  0.7818608E-02  0.9356487E-01
          2   -1    0    0  501    0  0.00000000000E+00  0.00000000000E+00  0.12306133865E+04  0.12306133865E+04  0.25500000000E-02 0. -1.
         -2   -1    0    0    0  501 -0.00000000000E+00 -0.00000000000E+00 -0.24370587133E+04  0.24370587134E+04  0.25500000000E-02 0.  1.
    8880023    1    1    2    0    0 -0.67449393178E+03  0.38809089223E+03  0.93547467758E+03  0.13836472395E+04  0.65864270000E+03 0. -1.
    8880022    1    1    2    0    0  0.67449393178E+03 -0.38809089223E+03 -0.21419200044E+04  0.22840248604E+04  0.15294330000E+03 0.  0.
<mgrwt>
<rscale>  0 0.95744797E+03</rscale>
<asrwt>0</asrwt>
<pdfrwt beam="1">  1        2 0.18932514E+00 0.10194934E+04</pdfrwt>
<pdfrwt beam="2">  1       -2 0.37493211E+00 0.10194934E+04</pdfrwt>
<totfact> 0.19824194E-01</totfact>
</mgrwt>
</event>
<event>
 4    1  0.8287789E-007  0.8218307E+03  0.7818608E-02  0.9665441E-01
         -2   -1    0    0    0  501 -0.00000000000E+00  0.00000000000E+00  0.89279553914E+03  0.89279553915E+03  0.25500000000E-02 0.  1.
          2   -1    0    0  501    0  0.00000000000E+00 -0.00000000000E+00 -0.87923400658E+03  0.87923400659E+03  0.25500000000E-02 0. -1.
    8880023    1    1    2    0    0  0.45527008468E+03  0.18526922472E+03 -0.56522947019E+03  0.99744177568E+03  0.65864270000E+03 0. -1.
    8880022    1    1    2    0    0 -0.45527008468E+03 -0.18526922472E+03  0.57879100275E+03  0.77458777005E+03  0.15294330000E+03 0.  0.
<mgrwt>
<rscale>  0 0.73112206E+03</rscale>
<asrwt>0</asrwt>
<pdfrwt beam="1">  1        2 0.13526677E+00 0.82183073E+03</pdfrwt>
<pdfrwt beam="2">  1       -2 0.13735316E+00 0.82183073E+03</pdfrwt>
<totfact> 0.11528804E+01</totfact>
</mgrwt>
</event>
<event>
 4    1  0.8287789E-007  0.1437145E+04  0.7818608E-02  0.8955345E-01
          2   -1    0    0  501    0  0.00000000000E+00  0.00000000000E+00  0.34306506688E+04  0.34306506688E+04  0.25500000000E-02 0. -1.
         -2   -1    0    0    0  501 -0.00000000000E+00 -0.00000000000E+00 -0.58423206535E+03  0.58423206536E+03  0.25500000000E-02 0.  1.
    8880023    1    1    2    0    0 -0.65425628399E+03 -0.10970522777E+04  0.20440883210E+04  0.24987361316E+04  0.65864270000E+03 0.  0.
    8880022    1    1    2    0    0  0.65425628399E+03  0.10970522777E+04  0.80233028242E+03  0.15161466025E+04  0.15294330000E+03 0.  0.
<mgrwt>
<rscale>  0 0.13978934E+04</rscale>
<asrwt>0</asrwt>
<pdfrwt beam="1">  1        2 0.52779241E+00 0.14371448E+04</pdfrwt>
<pdfrwt beam="2">  1       -2 0.89881856E-01 0.14371448E+04</pdfrwt>
<totfact> 0.93423986E-01</totfact>
</mgrwt>
</event>
<event>
 4    1  0.8287789E-007  0.1060883E+04  0.7818608E-02  0.9305912E-01
         -2   -1    0    0    0  501 -0.00000000000E+00  0.00000000000E+00  0.20852680914E+03  0.20852680916E+03  0.25500000000E-02 0.  1.
          2   -1    0    0  501    0  0.00000000000E+00 -0.00000000000E+00 -0.44242543436E+04  0.44242543436E+04  0.25500000000E-02 0. -1.
    8880023    1    1    2    0    0  0.75951058767E+03 -0.33882925356E+03 -0.20597660174E+04  0.23169177474E+04  0.65864270000E+03 0.  0.
    8880022    1    1    2    0    0 -0.75951058767E+03  0.33882925356E+03 -0.21559615171E+04  0.23158634053E+04  0.15294330000E+03 0.  0.
<mgrwt>
<rscale>  0 0.10024040E+04</rscale>
<asrwt>0</asrwt>
<pdfrwt beam="1">  1        2 0.68065444E+00 0.10608826E+04</pdfrwt>
<pdfrwt beam="2">  1       -2 0.32081051E-01 0.10608826E+04</pdfrwt>
<totfact> 0.13956428E+00</totfact>
</mgrwt>
</event>
<event>
 4    1  0.8836047E-007  0.7112912E+03  0.7818608E-02  0.9953237E-01
          2   -1    0    0  501    0  0.00000000000E+00  0.00000000000E+00  0.15407644583E+04  0.15407644583E+04  0.25500000000E-02 0. -1.
         -2   -1    0    0    0  501 -0.00000000000E+00 -0.00000000000E+00 -0.21322445292E+04  0.21322445292E+04  0.25500000000E-02 0.  1.
    8880023    1    1    2    0    0  0.26464143542E+02  0.26725376764E+03  0.14463963376E+04  0.16118304808E+04  0.65864270000E+03 0. -1.
    8880022    1    1    2    0    0 -0.26464143542E+02 -0.26725376764E+03 -0.20378764085E+04  0.20611785067E+04  0.15294330000E+03 0.  0.
<mgrwt>
<rscale>  0 0.57749125E+03</rscale>
<asrwt>0</asrwt>
<pdfrwt beam="1">  1        2 0.23704069E+00 0.71129117E+03</pdfrwt>
<pdfrwt beam="2">  1       -2 0.32803762E+00 0.71129117E+03</pdfrwt>
<totfact> 0.27581112E-01</totfact>
</mgrwt>
</event>
<event>
 4    1  0.8287789E-007  0.7738733E+03  0.7818608E-02  0.9770431E-01
         -2   -1    0    0    0  501 -0.00000000000E+00  0.00000000000E+00  0.14225267329E+03  0.14225267331E+03  0.25500000000E-02 0.  1.
          2   -1    0    0  501    0  0.00000000000E+00 -0.00000000000E+00 -0.36665245953E+04  0.36665245953E+04  0.25500000000E-02 0. -1.
    8880023    1    1    2    0    0  0.28307637038E+03 -0.29144034071E+03 -0.31235296172E+04  0.32179678649E+04  0.65864270000E+03 0.  0.
    8880022    1    1    2    0    0 -0.28307637038E+03  0.29144034071E+03 -0.40074230487E+03  0.59080940378E+03  0.15294330000E+03 0.  0.
<mgrwt>
<rscale>  0 0.66973839E+03</rscale>
<asrwt>0</asrwt>
<pdfrwt beam="1">  1        2 0.56408064E+00 0.77387332E+03</pdfrwt>
<pdfrwt beam="2">  1       -2 0.21885029E-01 0.77387332E+03</pdfrwt>
<totfact> 0.12150638E+01</totfact>
</mgrwt>
</event>
<event>
 4    1  0.8287789E-007  0.9007252E+03  0.7818608E-02  0.9524868E-01
         -2   -1    0    0    0  501 -0.00000000000E+00  0.00000000000E+00  0.49787472944E+03  0.49787472945E+03  0.25500000000E-02 0.  1.
          2   -1    0    0  501    0  0.00000000000E+00 -0.00000000000E+00 -0.22302454328E+04  0.22302454328E+04  0.25500000000E-02 0. -1.
    8880023    1    1    2    0    0 -0.41954485419E+03  0.44886269833E+03 -0.18740806538E+04  0.20792989467E+04  0.65864270000E+03 0. -1.
    8880022    1    1    2    0    0  0.41954485419E+03 -0.44886269833E+03  0.14170995046E+03  0.64882121551E+03  0.15294330000E+03 0.  0.
<mgrwt>
<rscale>  0 0.82474939E+03</rscale>
<asrwt>0</asrwt>
<pdfrwt beam="1">  1        2 0.34311468E+00 0.90072516E+03</pdfrwt>
<pdfrwt beam="2">  1       -2 0.76596114E-01 0.90072516E+03</pdfrwt>
<totfact> 0.77060384E+00</totfact>
</mgrwt>
</event>
<event>
 4    1  0.8287789E-007  0.7255448E+03  0.7818608E-02  0.9904252E-01
         -2   -1    0    0    0  501 -0.00000000000E+00  0.00000000000E+00  0.38000741087E+03  0.38000741088E+03  0.25500000000E-02 0.  1.
          2   -1    0    0  501    0  0.00000000000E+00 -0.00000000000E+00 -0.91120424935E+03  0.91120424935E+03  0.25500000000E-02 0. -1.
    8880023    1    1    2    0    0  0.17597564666E+03  0.24826925910E+03 -0.60268181210E+03  0.94320762620E+03  0.65864270000E+03 0. -1.
    8880022    1    1    2    0    0 -0.17597564666E+03 -0.24826925910E+03  0.71484973620E+02  0.34800403403E+03  0.15294330000E+03 0.  0.
<mgrwt>
<rscale>  0 0.60055652E+03</rscale>
<asrwt>0</asrwt>
<pdfrwt beam="1">  1        2 0.14018527E+00 0.72554480E+03</pdfrwt>
<pdfrwt beam="2">  1       -2 0.58462679E-01 0.72554480E+03</pdfrwt>
<totfact> 0.80057097E+01</totfact>
</mgrwt>
</event>
<event>
 4    1  0.8287789E-007  0.6760361E+03  0.7818608E-02  0.1011661E+00
          2   -1    0    0  501    0  0.00000000000E+00  0.00000000000E+00  0.16346757378E+04  0.16346757378E+04  0.25500000000E-02 0. -1.
         -2   -1    0    0    0  501 -0.00000000000E+00 -0.00000000000E+00 -0.12166382076E+03  0.12166382079E+03  0.25500000000E-02 0.  1.
    8880023    1    1    2    0    0  0.90759148846E+02 -0.12238237026E+03  0.11472576207E+04  0.13316249179E+04  0.65864270000E+03 0.  0.
    8880022    1    1    2    0    0 -0.90759148846E+02  0.12238237026E+03  0.36575429641E+03  0.42471464068E+03  0.15294330000E+03 0.  1.
<mgrwt>
<rscale>  0 0.50819811E+03</rscale>
<asrwt>0</asrwt>
<pdfrwt beam="1">  1        2 0.25148856E+00 0.67603615E+03</pdfrwt>
<pdfrwt beam="2">  1       -2 0.18717512E-01 0.67603615E+03</pdfrwt>
<totfact> 0.26110001E+02</totfact>
</mgrwt>
</event>
<event>
 4    1  0.8287789E-007  0.6857786E+03  0.7818608E-02  0.1006227E+00
         -2   -1    0    0    0  501 -0.00000000000E+00  0.00000000000E+00  0.28241238100E+03  0.28241238101E+03  0.25500000000E-02 0.  1.
          2   -1    0    0  501    0  0.00000000000E+00 -0.00000000000E+00 -0.23874891673E+04  0.23874891673E+04  0.25500000000E-02 0. -1.
    8880023    1    1    2    0    0 -0.77344110813E+02  0.17464225865E+03 -0.22722993898E+04  0.23735283341E+04  0.65864270000E+03 0. -1.
    8880022    1    1    2    0    0  0.77344110813E+02 -0.17464225865E+03  0.16722260343E+03  0.29637321420E+03  0.15294330000E+03 0.  0.
<mgrwt>
<rscale>  0 0.53002020E+03</rscale>
<asrwt>0</asrwt>
<pdfrwt beam="1">  1        2 0.36730601E+00 0.68577856E+03</pdfrwt>
<pdfrwt beam="2">  1       -2 0.43448060E-01 0.68577856E+03</pdfrwt>
<totfact> 0.21381338E+01</totfact>
</mgrwt>
</event>
<event>
 4    1  0.8287789E-007  0.7021680E+03  0.7818608E-02  0.9988324E-01
          2   -1    0    0  501    0  0.00000000000E+00  0.00000000000E+00  0.12594011523E+04  0.12594011523E+04  0.25500000000E-02 0. -1.
         -2   -1    0    0    0  501 -0.00000000000E+00 -0.00000000000E+00 -0.47454171835E+03  0.47454171835E+03  0.25500000000E-02 0.  1.
    8880023    1    1    2    0    0  0.13281979142E+03  0.20393287397E+03  0.11015156424E+04  0.13062835185E+04  0.65864270000E+03 0. -1.
    8880022    1    1    2    0    0 -0.13281979142E+03 -0.20393287397E+03 -0.31665620846E+03  0.42765935211E+03  0.15294330000E+03 0.  0.
<mgrwt>
<rscale>  0 0.56165202E+03</rscale>
<asrwt>0</asrwt>
<pdfrwt beam="1">  1        2 0.19375402E+00 0.70216801E+03</pdfrwt>
<pdfrwt beam="2">  1       -2 0.73006420E-01 0.70216801E+03</pdfrwt>
<totfact> 0.30334331E+01</totfact>
</mgrwt>
</event>
<event>
 4    1  0.8287789E-007  0.1377701E+04  0.7818608E-02  0.9001207E-01
          2   -1    0    0  501    0  0.00000000000E+00  0.00000000000E+00  0.24313884535E+04  0.24313884535E+04  0.25500000000E-02 0. -1.
         -2   -1    0    0    0  501 -0.00000000000E+00 -0.00000000000E+00 -0.14266041972E+04  0.14266041972E+04  0.25500000000E-02 0.  1.
    8880023    1    1    2    0    0  0.49435101666E+03 -0.11044752772E+04  0.18986480706E+04  0.23458310399E+04  0.65864270000E+03 0.  0.
    8880022    1    1    2    0    0 -0.49435101666E+03  0.11044752772E+04 -0.89386381422E+03  0.15121616108E+04  0.15294330000E+03 0.  0.
<mgrwt>
<rscale>  0 0.13363751E+04</rscale>
<asrwt>0</asrwt>
<pdfrwt beam="1">  1        2 0.37405976E+00 0.13777005E+04</pdfrwt>
<pdfrwt beam="2">  1       -2 0.21947757E+00 0.13777005E+04</pdfrwt>
<totfact> 0.36169582E-01</totfact>
</mgrwt>
</event>
<event>
 4    1  0.8287789E-007  0.6722747E+03  0.7818608E-02  0.1014082E+00
          2   -1    0    0  501    0  0.00000000000E+00  0.00000000000E+00  0.22949902201E+03  0.22949902203E+03  0.25500000000E-02 0. -1.
         -2   -1    0    0    0  501 -0.00000000000E+00 -0.00000000000E+00 -0.10572574290E+04  0.10572574290E+04  0.25500000000E-02 0.  1.
    8880023    1    1    2    0    0  0.63540547892E+02  0.11876700329E+03 -0.84777232220E+03  0.10819755630E+04  0.65864270000E+03 0.  1.
    8880022    1    1    2    0    0 -0.63540547892E+02 -0.11876700329E+03  0.20013915225E+02  0.20478088806E+03  0.15294330000E+03 0.  0.
<mgrwt>
<rscale>  0 0.49884012E+03</rscale>
<asrwt>0</asrwt>
<pdfrwt beam="1">  1        2 0.35307543E-01 0.67227465E+03</pdfrwt>
<pdfrwt beam="2">  1       -2 0.16265499E+00 0.67227465E+03</pdfrwt>
<totfact> 0.36286310E+01</totfact>
</mgrwt>
</event>
<event>
 4    1  0.8287789E-007  0.8572664E+03  0.7818608E-02  0.9598445E-01
         -2   -1    0    0    0  501 -0.00000000000E+00  0.00000000000E+00  0.18195869304E+03  0.18195869306E+03  0.25500000000E-02 0.  1.
          2   -1    0    0  501    0  0.00000000000E+00 -0.00000000000E+00 -0.38472752455E+04  0.38472752455E+04  0.25500000000E-02 0. -1.
    8880023    1    1    2    0    0 -0.34539862021E+03 -0.42637463850E+03 -0.31380075132E+04  0.32529981399E+04  0.65864270000E+03 0. -1.
    8880022    1    1    2    0    0  0.34539862021E+03  0.42637463850E+03 -0.52730903931E+03  0.77623579868E+03  0.15294330000E+03 0.  1.
<mgrwt>
<rscale>  0 0.77399216E+03</rscale>
<asrwt>0</asrwt>
<pdfrwt beam="1">  1        2 0.59188844E+00 0.85726644E+03</pdfrwt>
<pdfrwt beam="2">  1       -2 0.27993648E-01 0.85726644E+03</pdfrwt>
<totfact> 0.56549425E+00</totfact>
</mgrwt>
</event>
<event>
 4    1  0.8287789E-007  0.6630781E+03  0.7818608E-02  0.1021203E+00
          2   -1    0    0  501    0  0.00000000000E+00  0.00000000000E+00  0.15673936013E+04  0.15673936013E+04  0.25500000000E-02 0. -1.
         -2   -1    0    0    0  501 -0.00000000000E+00 -0.00000000000E+00 -0.27095878920E+03  0.27095878921E+03  0.25500000000E-02 0.  1.
    8880023    1    1    2    0    0  0.72789419259E+02 -0.23749981359E+02  0.14588592039E+04  0.16024801853E+04  0.65864270000E+03 0. -1.
    8880022    1    1    2    0    0 -0.72789419259E+02  0.23749981359E+02 -0.16242439175E+03  0.23587220527E+03  0.15294330000E+03 0.  0.
<mgrwt>
<rscale>  0 0.47254884E+03</rscale>
<asrwt>0</asrwt>
<pdfrwt beam="1">  1        2 0.24113748E+00 0.66307810E+03</pdfrwt>
<pdfrwt beam="2">  1       -2 0.41685968E-01 0.66307810E+03</pdfrwt>
<totfact> 0.65398146E+01</totfact>
</mgrwt>
</event>
<event>
 4    1  0.8287789E-007  0.6828948E+03  0.7818608E-02  0.1007731E+00
         -2   -1    0    0    0  501 -0.00000000000E+00  0.00000000000E+00  0.98649511859E+02  0.98649511892E+02  0.25500000000E-02 0.  1.
          2   -1    0    0  501    0  0.00000000000E+00 -0.00000000000E+00 -0.37852200384E+04  0.37852200384E+04  0.25500000000E-02 0. -1.
    8880023    1    1    2    0    0  0.17686264704E+03  0.35421926003E+02 -0.35408270257E+04  0.36060783881E+04  0.65864270000E+03 0. -1.
    8880022    1    1    2    0    0 -0.17686264704E+03 -0.35421926003E+02 -0.14574350087E+03  0.27779116224E+03  0.15294330000E+03 0.  0.
<mgrwt>
<rscale>  0 0.52386311E+03</rscale>
<asrwt>0</asrwt>
<pdfrwt beam="1">  1        2 0.58234143E+00 0.68289481E+03</pdfrwt>
<pdfrwt beam="2">  1       -2 0.15176851E-01 0.68289481E+03</pdfrwt>
<totfact> 0.19107889E+01</totfact>
</mgrwt>
</event>
<event>
 4    1  0.8287789E-007  0.7530561E+03  0.7818608E-02  0.9823428E-01
          2   -1    0    0  501    0  0.00000000000E+00  0.00000000000E+00  0.24927111882E+04  0.24927111882E+04  0.25500000000E-02 0. -1.
         -2   -1    0    0    0  501 -0.00000000000E+00 -0.00000000000E+00 -0.25785880772E+03  0.25785880773E+03  0.25500000000E-02 0.  1.
    8880023    1    1    2    0    0  0.19779166724E+03  0.30685788891E+03  0.22310669945E+04  0.23547300159E+04  0.65864270000E+03 0. -1.
    8880022    1    1    2    0    0 -0.19779166724E+03 -0.30685788891E+03  0.37853859804E+01  0.39583998002E+03  0.15294330000E+03 0.  0.
<mgrwt>
<rscale>  0 0.64120287E+03</rscale>
<asrwt>0</asrwt>
<pdfrwt beam="1">  1        2 0.38349404E+00 0.75305612E+03</pdfrwt>
<pdfrwt beam="2">  1       -2 0.39670585E-01 0.75305612E+03</pdfrwt>
<totfact> 0.22070678E+01</totfact>
</mgrwt>
</event>
<event>
 4    1  0.8287789E-007  0.7041169E+03  0.7818608E-02  0.9980533E-01
          2   -1    0    0  501    0  0.00000000000E+00  0.00000000000E+00  0.36246225132E+04  0.36246225132E+04  0.25500000000E-02 0. -1.
         -2   -1    0    0    0  501 -0.00000000000E+00 -0.00000000000E+00 -0.23688410056E+03  0.23688410058E+03  0.25500000000E-02 0.  1.
    8880023    1    1    2    0    0 -0.15324170822E+02  0.24846649703E+03  0.34835747354E+04  0.35540221684E+04  0.65864270000E+03 0. -1.
    8880022    1    1    2    0    0  0.15324170822E+02 -0.24846649703E+03 -0.95836322754E+02  0.30748444535E+03  0.15294330000E+03 0.  0.
<mgrwt>
<rscale>  0 0.56512134E+03</rscale>
<asrwt>0</asrwt>
<pdfrwt beam="1">  1        2 0.55763415E+00 0.70411692E+03</pdfrwt>
<pdfrwt beam="2">  1       -2 0.36443713E-01 0.70411692E+03</pdfrwt>
<totfact> 0.51633188E+00</totfact>
</mgrwt>
</event>
<event>
 4    1  0.8287789E-007  0.7063306E+03  0.7818608E-02  0.9971888E-01
         -2   -1    0    0    0  501 -0.00000000000E+00  0.00000000000E+00  0.96017542683E+03  0.96017542684E+03  0.25500000000E-02 0.  1.
          2   -1    0    0  501    0  0.00000000000E+00 -0.00000000000E+00 -0.99060458055E+03  0.99060458055E+03  0.25500000000E-02 0. -1.
    8880023    1    1    2    0    0  0.41364962070E+02 -0.25175706114E+03 -0.83459150002E+03  0.10933644663E+04  0.65864270000E+03 0. -1.
    8880022    1    1    2    0    0 -0.41364962070E+02  0.25175706114E+03  0.80416234631E+03  0.85741554112E+03  0.15294330000E+03 0.  0.
<mgrwt>
<rscale>  0 0.56900267E+03</rscale>
<asrwt>0</asrwt>
<pdfrwt beam="1">  1        2 0.15240070E+00 0.70633058E+03</pdfrwt>
<pdfrwt beam="2">  1       -2 0.14771930E+00 0.70633058E+03</pdfrwt>
<totfact> 0.81600634E+00</totfact>
</mgrwt>
</event>
<event>
 4    1  0.8287789E-007  0.7290484E+03  0.7818608E-02  0.9893080E-01
          2   -1    0    0  501    0  0.00000000000E+00  0.00000000000E+00  0.16351045536E+04  0.16351045536E+04  0.25500000000E-02 0. -1.
         -2   -1    0    0    0  501 -0.00000000000E+00 -0.00000000000E+00 -0.48863003720E+03  0.48863003721E+03  0.25500000000E-02 0.  1.
    8880023    1    1    2    0    0  0.90539657605E+02  0.29917209645E+03  0.14748953237E+04  0.16452439925E+04  0.65864270000E+03 0. -1.
    8880022    1    1    2    0    0 -0.90539657605E+02 -0.29917209645E+03 -0.32842080733E+03  0.47849059823E+03  0.15294330000E+03 0.  0.
<mgrwt>
<rscale>  0 0.60597843E+03</rscale>
<asrwt>0</asrwt>
<pdfrwt beam="1">  1        2 0.25155455E+00 0.72904841E+03</pdfrwt>
<pdfrwt beam="2">  1       -2 0.75173852E-01 0.72904841E+03</pdfrwt>
<totfact> 0.17432673E+01</totfact>
</mgrwt>
</event>
<event>
 4    1  0.8287789E-007  0.8508692E+03  0.7818608E-02  0.9610016E-01
          2   -1    0    0  501    0  0.00000000000E+00  0.00000000000E+00  0.12303818423E+04  0.12303818423E+04  0.25500000000E-02 0. -1.
         -2   -1    0    0    0  501 -0.00000000000E+00 -0.00000000000E+00 -0.16207308230E+04  0.16207308230E+04  0.25500000000E-02 0.  1.
    8880023    1    1    2    0    0  0.48252458487E+03 -0.23945393098E+03 -0.14335947626E+04  0.16670849737E+04  0.65864270000E+03 0.  1.
    8880022    1    1    2    0    0 -0.48252458487E+03  0.23945393098E+03  0.10432457819E+04  0.11840276916E+04  0.15294330000E+03 0.  0.
<mgrwt>
<rscale>  0 0.76636762E+03</rscale>
<asrwt>0</asrwt>
<pdfrwt beam="1">  1        2 0.18928951E+00 0.85086918E+03</pdfrwt>
<pdfrwt beam="2">  1       -2 0.24934320E+00 0.85086918E+03</pdfrwt>
<totfact> 0.12010805E+00</totfact>
</mgrwt>
</event>
<event>
 4    1  0.8287789E-007  0.9109001E+03  0.7818608E-02  0.9508755E-01
          2   -1    0    0  501    0  0.00000000000E+00  0.00000000000E+00  0.24412643978E+04  0.24412643978E+04  0.25500000000E-02 0. -1.
         -2   -1    0    0    0  501 -0.00000000000E+00 -0.00000000000E+00 -0.71365177021E+03  0.71365177021E+03  0.25500000000E-02 0.  1.
    8880023    1    1    2    0    0 -0.45976979800E+02  0.62754677766E+03  0.21815642694E+04  0.23640984981E+04  0.65864270000E+03 0. -1.
    8880022    1    1    2    0    0  0.45976979800E+02 -0.62754677766E+03 -0.45395164187E+03  0.79081766988E+03  0.15294330000E+03 0.  0.
<mgrwt>
<rscale>  0 0.83641408E+03</rscale>
<asrwt>0</asrwt>
<pdfrwt beam="1">  1        2 0.37557915E+00 0.91090013E+03</pdfrwt>
<pdfrwt beam="2">  1       -2 0.10979258E+00 0.91090013E+03</pdfrwt>
<totfact> 0.25344681E+00</totfact>
</mgrwt>
</event>
<event>
 4    1  0.8287789E-007  0.7980717E+03  0.7818608E-02  0.9714981E-01
         -2   -1    0    0    0  501 -0.00000000000E+00  0.00000000000E+00  0.91565714963E+03  0.91565714963E+03  0.25500000000E-02 0.  1.
          2   -1    0    0  501    0  0.00000000000E+00 -0.00000000000E+00 -0.48735140325E+03  0.48735140326E+03  0.25500000000E-02 0. -1.
    8880023    1    1    2    0    0  0.11930753769E+03 -0.43459626381E+03  0.58336633206E+02  0.80020095608E+03  0.65864270000E+03 0.  0.
    8880022    1    1    2    0    0 -0.11930753769E+03  0.43459626381E+03  0.36996911317E+03  0.60280759682E+03  0.15294330000E+03 0.  0.
<mgrwt>
<rscale>  0 0.70131789E+03</rscale>
<asrwt>0</asrwt>
<pdfrwt beam="1">  1        2 0.74977140E-01 0.79807168E+03</pdfrwt>
<pdfrwt beam="2">  1       -2 0.14087033E+00 0.79807168E+03</pdfrwt>
<totfact> 0.22623980E+01</totfact>
</mgrwt>
</event>
<event>
 4    1  0.8287789E-007  0.7766304E+03  0.7818608E-02  0.9763813E-01
         -2   -1    0    0    0  501 -0.00000000000E+00  0.00000000000E+00  0.11075269526E+04  0.11075269526E+04  0.25500000000E-02 0.  1.
          2   -1    0    0  501    0  0.00000000000E+00 -0.00000000000E+00 -0.47617420343E+03  0.47617420344E+03  0.25500000000E-02 0. -1.
    8880023    1    1    2    0    0 -0.51230730048E+02  0.40831356292E+03 -0.44358356285E+02  0.77789615207E+03  0.65864270000E+03 0. -1.
    8880022    1    1    2    0    0  0.51230730048E+02 -0.40831356292E+03  0.67571110546E+03  0.80580500397E+03  0.15294330000E+03 0.  0.
<mgrwt>
<rscale>  0 0.67341254E+03</rscale>
<asrwt>0</asrwt>
<pdfrwt beam="1">  1        2 0.73257571E-01 0.77663039E+03</pdfrwt>
<pdfrwt beam="2">  1       -2 0.17038876E+00 0.77663039E+03</pdfrwt>
<totfact> 0.13977684E+01</totfact>
</mgrwt>
</event>
<event>
 4    1  0.8287789E-007  0.7772570E+03  0.7818608E-02  0.9762320E-01
         -2   -1    0    0    0  501 -0.00000000000E+00  0.00000000000E+00  0.31324981631E+03  0.31324981632E+03  0.25500000000E-02 0.  1.
          2   -1    0    0  501    0  0.00000000000E+00 -0.00000000000E+00 -0.15672084894E+04  0.15672084894E+04  0.25500000000E-02 0. -1.
    8880023    1    1    2    0    0 -0.11807925744E+03  0.39544338865E+03 -0.12100135584E+04  0.14381450561E+04  0.65864270000E+03 0.  0.
    8880022    1    1    2    0    0  0.11807925744E+03 -0.39544338865E+03 -0.43945114705E+02  0.44231324962E+03  0.15294330000E+03 0.  0.
<mgrwt>
<rscale>  0 0.67424452E+03</rscale>
<asrwt>0</asrwt>
<pdfrwt beam="1">  1        2 0.24110899E+00 0.77725697E+03</pdfrwt>
<pdfrwt beam="2">  1       -2 0.48192280E-01 0.77725697E+03</pdfrwt>
<totfact> 0.48398877E+01</totfact>
</mgrwt>
</event>
<event>
 4    1  0.9011645E-007  0.7509062E+03  0.7818608E-02  0.9829246E-01
          2   -1    0    0  501    0  0.00000000000E+00  0.00000000000E+00  0.23483181030E+04  0.23483181030E+04  0.25500000000E-02 0. -1.
         -2   -1    0    0    0  501 -0.00000000000E+00 -0.00000000000E+00 -0.63226111341E+03  0.63226111341E+03  0.25500000000E-02 0.  1.
    8880023    1    1    2    0    0 -0.50148416603E+02 -0.35712046910E+03  0.22192761948E+04  0.23428715134E+04  0.65864270000E+03 0. -1.
    8880022    1    1    2    0    0  0.50148416603E+02  0.35712046910E+03 -0.50321920515E+03  0.63770770309E+03  0.15294330000E+03 0.  0.
<mgrwt>
<rscale>  0 0.63816375E+03</rscale>
<asrwt>0</asrwt>
<pdfrwt beam="1">  1        2 0.36127971E+00 0.75090619E+03</pdfrwt>
<pdfrwt beam="2">  1       -2 0.97270940E-01 0.75090619E+03</pdfrwt>
<totfact> 0.39227954E+00</totfact>
</mgrwt>
</event>
<event>
 4    1  0.8287789E-007  0.1511623E+04  0.7818608E-02  0.8901472E-01
          2   -1    0    0  501    0  0.00000000000E+00  0.00000000000E+00  0.19965962742E+04  0.19965962742E+04  0.25500000000E-02 0. -1.
         -2   -1    0    0    0  501 -0.00000000000E+00 -0.00000000000E+00 -0.12464803633E+04  0.12464803633E+04  0.25500000000E-02 0.  1.
    8880023    1    1    2    0    0 -0.12676743949E+04  0.49416232768E+03 -0.27016437478E+03  0.15355760395E+04  0.65864270000E+03 0.  0.
    8880022    1    1    2    0    0  0.12676743949E+04 -0.49416232768E+03  0.10202802857E+04  0.17075005979E+04  0.15294330000E+03 0.  0.
<mgrwt>
<rscale>  0 0.14746735E+04</rscale>
<asrwt>0</asrwt>
<pdfrwt beam="1">  1        2 0.30716865E+00 0.15116233E+04</pdfrwt>
<pdfrwt beam="2">  1       -2 0.19176621E+00 0.15116233E+04</pdfrwt>
<totfact> 0.95036355E-01</totfact>
</mgrwt>
</event>
<event>
 4    1  0.8287789E-007  0.1018269E+04  0.7818608E-02  0.9358037E-01
          2   -1    0    0  501    0  0.00000000000E+00  0.00000000000E+00  0.10808110294E+04  0.10808110294E+04  0.25500000000E-02 0. -1.
         -2   -1    0    0    0  501 -0.00000000000E+00 -0.00000000000E+00 -0.88240290338E+03  0.88240290338E+03  0.25500000000E-02 0.  1.
    8880023    1    1    2    0    0  0.44440649056E+03 -0.63683990075E+03  0.47656435138E+03  0.11242713086E+04  0.65864270000E+03 0. -1.
    8880022    1    1    2    0    0 -0.44440649056E+03  0.63683990075E+03 -0.27815622533E+03  0.83894262423E+03  0.15294330000E+03 0.  1.
<mgrwt>
<rscale>  0 0.95611059E+03</rscale>
<asrwt>0</asrwt>
<pdfrwt beam="1">  1        2 0.16627862E+00 0.10182693E+04</pdfrwt>
<pdfrwt beam="2">  1       -2 0.13575429E+00 0.10182693E+04</pdfrwt>
<totfact> 0.86218185E+00</totfact>
</mgrwt>
</event>
<event>
 4    1  0.8287789E-007  0.7939833E+03  0.7818608E-02  0.9723960E-01
         -2   -1    0    0    0  501 -0.00000000000E+00  0.00000000000E+00  0.35220472511E+03  0.35220472512E+03  0.25500000000E-02 0.  1.
          2   -1    0    0  501    0  0.00000000000E+00 -0.00000000000E+00 -0.19319397220E+04  0.19319397220E+04  0.25500000000E-02 0. -1.
    8880023    1    1    2    0    0 -0.31852664697E+03 -0.30844772491E+03 -0.16293362275E+04  0.18124971648E+04  0.65864270000E+03 0. -1.
    8880022    1    1    2    0    0  0.31852664697E+03  0.30844772491E+03  0.49601230629E+02  0.47164728233E+03  0.15294330000E+03 0.  0.
<mgrwt>
<rscale>  0 0.69607991E+03</rscale>
<asrwt>0</asrwt>
<pdfrwt beam="1">  1        2 0.29722149E+00 0.79398327E+03</pdfrwt>
<pdfrwt beam="2">  1       -2 0.54185343E-01 0.79398327E+03</pdfrwt>
<totfact> 0.23988790E+01</totfact>
</mgrwt>
</event>
<event>
 4    1  0.8520730E-007  0.8305178E+03  0.7818608E-02  0.9648326E-01
         -2   -1    0    0    0  501 -0.00000000000E+00  0.00000000000E+00  0.80318995211E+03  0.80318995211E+03  0.25500000000E-02 0.  1.
          2   -1    0    0  501    0  0.00000000000E+00 -0.00000000000E+00 -0.16813060811E+04  0.16813060811E+04  0.25500000000E-02 0. -1.
    8880023    1    1    2    0    0 -0.11468144392E+03  0.49274517395E+03 -0.14716017471E+04  0.16897844680E+04  0.65864270000E+03 0. -1.
    8880022    1    1    2    0    0  0.11468144392E+03 -0.49274517395E+03  0.59348561808E+03  0.79471156523E+03  0.15294330000E+03 0.  0.
<mgrwt>
<rscale>  0 0.74178596E+03</rscale>
<asrwt>0</asrwt>
<pdfrwt beam="1">  1        2 0.25866247E+00 0.83051782E+03</pdfrwt>
<pdfrwt beam="2">  1       -2 0.12356769E+00 0.83051782E+03</pdfrwt>
<totfact> 0.50410836E+00</totfact>
</mgrwt>
</event>
<event>
 4    1  0.8287789E-007  0.7716332E+03  0.7818608E-02  0.9775871E-01
          2   -1    0    0  501    0  0.00000000000E+00  0.00000000000E+00  0.16992761705E+04  0.16992761705E+04  0.25500000000E-02 0. -1.
         -2   -1    0    0    0  501 -0.00000000000E+00 -0.00000000000E+00 -0.49752278769E+03  0.49752278770E+03  0.25500000000E-02 0.  1.
    8880023    1    1    2    0    0  0.23263192532E+03 -0.32785661473E+03  0.14907465253E+04  0.16786134104E+04  0.65864270000E+03 0. -1.
    8880022    1    1    2    0    0 -0.23263192532E+03  0.32785661473E+03 -0.28899314253E+03  0.51818554780E+03  0.15294330000E+03 0.  0.
<mgrwt>
<rscale>  0 0.66673678E+03</rscale>
<asrwt>0</asrwt>
<pdfrwt beam="1">  1        2 0.26142710E+00 0.77163319E+03</pdfrwt>
<pdfrwt beam="2">  1       -2 0.76541968E-01 0.77163319E+03</pdfrwt>
<totfact> 0.15358281E+01</totfact>
</mgrwt>
</event>
<event>
 4    1  0.8287789E-007  0.8073756E+03  0.7818608E-02  0.9695070E-01
          2   -1    0    0  501    0  0.00000000000E+00  0.00000000000E+00  0.14791253265E+04  0.14791253265E+04  0.25500000000E-02 0. -1.
         -2   -1    0    0    0  501 -0.00000000000E+00 -0.00000000000E+00 -0.43526367687E+03  0.43526367688E+03  0.25500000000E-02 0.  1.
    8880023    1    1    2    0    0  0.33409336577E+03  0.32623107875E+03  0.53876978608E+02  0.80917119875E+03  0.65864270000E+03 0.  0.
    8880022    1    1    2    0    0 -0.33409336577E+03 -0.32623107875E+03  0.98998467100E+03  0.11052178046E+04  0.15294330000E+03 0.  0.
<mgrwt>
<rscale>  0 0.71311098E+03</rscale>
<asrwt>0</asrwt>
<pdfrwt beam="1">  1        2 0.22755774E+00 0.80737556E+03</pdfrwt>
<pdfrwt beam="2">  1       -2 0.66963644E-01 0.80737556E+03</pdfrwt>
<totfact> 0.27147727E+01</totfact>
</mgrwt>
</event>
<event>
 4    1  0.8287789E-007  0.9442150E+03  0.7818608E-02  0.9458487E-01
         -2   -1    0    0    0  501 -0.00000000000E+00  0.00000000000E+00  0.71838207254E+03  0.71838207254E+03  0.25500000000E-02 0.  1.
          2   -1    0    0  501    0  0.00000000000E+00 -0.00000000000E+00 -0.12336225570E+04  0.12336225570E+04  0.25500000000E-02 0. -1.
    8880023    1    1    2    0    0 -0.19851195629E+02  0.67626745065E+03 -0.76454017401E+03  0.12149335861E+04  0.65864270000E+03 0.  0.
    8880022    1    1    2    0    0  0.19851195629E+02 -0.67626745065E+03  0.24929968957E+03  0.73707104339E+03  0.15294330000E+03 0.  0.
<mgrwt>
<rscale>  0 0.87414852E+03</rscale>
<asrwt>0</asrwt>
<pdfrwt beam="1">  1        2 0.18978809E+00 0.94421499E+03</pdfrwt>
<pdfrwt beam="2">  1       -2 0.11052032E+00 0.94421499E+03</pdfrwt>
<totfact> 0.11732872E+01</totfact>
</mgrwt>
</event>
<event>
 4    1  0.8287789E-007  0.6699772E+03  0.7818608E-02  0.1015679E+00
         -2   -1    0    0    0  501 -0.00000000000E+00  0.00000000000E+00  0.39522665050E+03  0.39522665051E+03  0.25500000000E-02 0.  1.
          2   -1    0    0  501    0  0.00000000000E+00 -0.00000000000E+00 -0.78604084251E+03  0.78604084251E+03  0.25500000000E-02 0. -1.
    8880023    1    1    2    0    0 -0.10264284223E+03 -0.67258251343E+02 -0.59653476848E+03  0.89706363303E+03  0.65864270000E+03 0. -1.
    8880022    1    1    2    0    0  0.10264284223E+03  0.67258251343E+02  0.20572057648E+03  0.28420385999E+03  0.15294330000E+03 0.  0.
<mgrwt>
<rscale>  0 0.49278592E+03</rscale>
<asrwt>0</asrwt>
<pdfrwt beam="1">  1        2 0.12092936E+00 0.66997719E+03</pdfrwt>
<pdfrwt beam="2">  1       -2 0.60804100E-01 0.66997719E+03</pdfrwt>
<totfact> 0.90408438E+01</totfact>
</mgrwt>
</event>
<event>
 4    1  0.8287789E-007  0.7667282E+03  0.7818608E-02  0.9787990E-01
         -2   -1    0    0    0  501 -0.00000000000E+00  0.00000000000E+00  0.59926914927E+03  0.59926914928E+03  0.25500000000E-02 0.  1.
          2   -1    0    0  501    0  0.00000000000E+00 -0.00000000000E+00 -0.62327518055E+03  0.62327518055E+03  0.25500000000E-02 0. -1.
    8880023    1    1    2    0    0 -0.38750940011E+03  0.62437675429E+02  0.12268492870E+03  0.77648167814E+03  0.65864270000E+03 0.  0.
    8880022    1    1    2    0    0  0.38750940011E+03 -0.62437675429E+02 -0.14669095997E+03  0.44606265170E+03  0.15294330000E+03 0.  0.
<mgrwt>
<rscale>  0 0.66011061E+03</rscale>
<asrwt>0</asrwt>
<pdfrwt beam="1">  1        2 0.95888490E-01 0.76672825E+03</pdfrwt>
<pdfrwt beam="2">  1       -2 0.92195253E-01 0.76672825E+03</pdfrwt>
<totfact> 0.47854872E+01</totfact>
</mgrwt>
</event>
<event>
 4    1  0.8287789E-007  0.7564214E+03  0.7818608E-02  0.9814462E-01
          2   -1    0    0  501    0  0.00000000000E+00  0.00000000000E+00  0.66434061465E+03  0.66434061465E+03  0.25500000000E-02 0. -1.
         -2   -1    0    0    0  501 -0.00000000000E+00 -0.00000000000E+00 -0.62544785185E+03  0.62544785186E+03  0.25500000000E-02 0.  1.
    8880023    1    1    2    0    0  0.34033847399E+03 -0.15010970672E+03 -0.24768971778E+03  0.79594195987E+03  0.65864270000E+03 0.  1.
    8880022    1    1    2    0    0 -0.34033847399E+03  0.15010970672E+03  0.28658248058E+03  0.49384650664E+03  0.15294330000E+03 0.  0.
<mgrwt>
<rscale>  0 0.64592195E+03</rscale>
<asrwt>0</asrwt>
<pdfrwt beam="1">  1        2 0.10220625E+00 0.75642145E+03</pdfrwt>
<pdfrwt beam="2">  1       -2 0.96222746E-01 0.75642145E+03</pdfrwt>
<totfact> 0.40069811E+01</totfact>
</mgrwt>
</event>
<event>
 4    1  0.8287789E-007  0.6890483E+03  0.7818608E-02  0.1004608E+00
         -2   -1    0    0    0  501 -0.00000000000E+00  0.00000000000E+00  0.43792757739E+03  0.43792757740E+03  0.25500000000E-02 0.  1.
          2   -1    0    0  501    0  0.00000000000E+00 -0.00000000000E+00 -0.18077545852E+04  0.18077545852E+04  0.25500000000E-02 0. -1.
    8880023    1    1    2    0    0  0.19746471563E+03 -0.44553810203E+02 -0.16970629416E+04  0.18316140942E+04  0.65864270000E+03 0. -1.
    8880022    1    1    2    0    0 -0.19746471563E+03  0.44553810203E+02  0.32723593379E+03  0.41406806844E+03  0.15294330000E+03 0.  0.
<mgrwt>
<rscale>  0 0.53674975E+03</rscale>
<asrwt>0</asrwt>
<pdfrwt beam="1">  1        2 0.27811609E+00 0.68904830E+03</pdfrwt>
<pdfrwt beam="2">  1       -2 0.67373474E-01 0.68904830E+03</pdfrwt>
<totfact> 0.17935187E+01</totfact>
</mgrwt>
</event>
<event>
 4    1  0.8287789E-007  0.7140627E+03  0.7818608E-02  0.9943213E-01
          2   -1    0    0  501    0  0.00000000000E+00  0.00000000000E+00  0.72709616079E+03  0.72709616079E+03  0.25500000000E-02 0. -1.
         -2   -1    0    0    0  501 -0.00000000000E+00 -0.00000000000E+00 -0.49232437340E+03  0.49232437341E+03  0.25500000000E-02 0.  1.
    8880023    1    1    2    0    0 -0.12748415340E+03  0.24458772398E+03  0.44409214477E+03  0.84089440681E+03  0.65864270000E+03 0. -1.
    8880022    1    1    2    0    0  0.12748415340E+03 -0.24458772398E+03 -0.20932035738E+03  0.37852612739E+03  0.15294330000E+03 0.  0.
<mgrwt>
<rscale>  0 0.58211951E+03</rscale>
<asrwt>0</asrwt>
<pdfrwt beam="1">  1        2 0.11186095E+00 0.71406272E+03</pdfrwt>
<pdfrwt beam="2">  1       -2 0.75742212E-01 0.71406272E+03</pdfrwt>
<totfact> 0.61928911E+01</totfact>
</mgrwt>
</event>
<event>
 4    1  0.8287789E-007  0.8843276E+03  0.7818608E-02  0.9551674E-01
          2   -1    0    0  501    0  0.00000000000E+00  0.00000000000E+00  0.58668100713E+03  0.58668100713E+03  0.25500000000E-02 0. -1.
         -2   -1    0    0    0  501 -0.00000000000E+00 -0.00000000000E+00 -0.12126361711E+04  0.12126361711E+04  0.25500000000E-02 0.  1.
    8880023    1    1    2    0    0  0.52786658808E+03  0.26378394983E+03 -0.77039438373E+03  0.11728353762E+04  0.65864270000E+03 0.  1.
    8880022    1    1    2    0    0 -0.52786658808E+03 -0.26378394983E+03  0.14443921977E+03  0.62648180199E+03  0.15294330000E+03 0.  0.
<mgrwt>
<rscale>  0 0.80578986E+03</rscale>
<asrwt>0</asrwt>
<pdfrwt beam="1">  1        2 0.90258617E-01 0.88432761E+03</pdfrwt>
<pdfrwt beam="2">  1       -2 0.18655941E+00 0.88432761E+03</pdfrwt>
<totfact> 0.83668703E+00</totfact>
</mgrwt>
</event>
<event>
 4    1  0.8287789E-007  0.8160522E+03  0.7818608E-02  0.9677106E-01
         -2   -1    0    0    0  501 -0.00000000000E+00  0.00000000000E+00  0.28119636271E+03  0.28119636272E+03  0.25500000000E-02 0.  1.
          2   -1    0    0  501    0  0.00000000000E+00 -0.00000000000E+00 -0.25678541128E+04  0.25678541128E+04  0.25500000000E-02 0. -1.
    8880023    1    1    2    0    0 -0.48178633026E+03 -0.36028125126E+01 -0.21863777431E+04  0.23337071132E+04  0.65864270000E+03 0.  0.
    8880022    1    1    2    0    0  0.48178633026E+03  0.36028125126E+01 -0.10028000697E+03  0.51534336233E+03  0.15294330000E+03 0.  1.
<mgrwt>
<rscale>  0 0.72396431E+03</rscale>
<asrwt>0</asrwt>
<pdfrwt beam="1">  1        2 0.39505446E+00 0.81605224E+03</pdfrwt>
<pdfrwt beam="2">  1       -2 0.43260980E-01 0.81605224E+03</pdfrwt>
<totfact> 0.16713303E+01</totfact>
</mgrwt>
</event>
<event>
 4    1  0.8287789E-007  0.1190718E+04  0.7818608E-02  0.9166198E-01
         -2   -1    0    0    0  501 -0.00000000000E+00  0.00000000000E+00  0.10294366204E+04  0.10294366204E+04  0.25500000000E-02 0.  1.
          2   -1    0    0  501    0  0.00000000000E+00 -0.00000000000E+00 -0.13157079833E+04  0.13157079833E+04  0.25500000000E-02 0. -1.
    8880023    1    1    2    0    0 -0.99015005308E+03  0.60024826819E+02  0.23572971527E+03  0.12138281643E+04  0.65864270000E+03 0.  0.
    8880022    1    1    2    0    0  0.99015005308E+03 -0.60024826819E+02 -0.52200107822E+03  0.11313164394E+04  0.15294330000E+03 0.  0.
<mgrwt>
<rscale>  0 0.11409237E+04</rscale>
<asrwt>0</asrwt>
<pdfrwt beam="1">  1        2 0.20241661E+00 0.11907184E+04</pdfrwt>
<pdfrwt beam="2">  1       -2 0.15837486E+00 0.11907184E+04</pdfrwt>
<totfact> 0.40777025E+00</totfact>
</mgrwt>
</event>
<event>
 4    1  0.8287789E-007  0.7260478E+03  0.7818608E-02  0.9902629E-01
          2   -1    0    0  501    0  0.00000000000E+00  0.00000000000E+00  0.68260831432E+03  0.68260831433E+03  0.25500000000E-02 0. -1.
         -2   -1    0    0    0  501 -0.00000000000E+00 -0.00000000000E+00 -0.10987850874E+04  0.10987850874E+04  0.25500000000E-02 0.  1.
    8880023    1    1    2    0    0 -0.14691193810E+02 -0.30515471137E+03  0.44730585377E+03  0.85277661913E+03  0.65864270000E+03 0.  1.
    8880022    1    1    2    0    0  0.14691193810E+02  0.30515471137E+03 -0.86348262681E+03  0.92861678257E+03  0.15294330000E+03 0.  0.
<mgrwt>
<rscale>  0 0.60134026E+03</rscale>
<asrwt>0</asrwt>
<pdfrwt beam="1">  1        2 0.10501666E+00 0.72604782E+03</pdfrwt>
<pdfrwt beam="2">  1       -2 0.16904386E+00 0.72604782E+03</pdfrwt>
<totfact> 0.93363338E+00</totfact>
</mgrwt>
</event>
<event>
 4    1  0.1402082E-006  0.7270195E+03  0.7818608E-02  0.9899513E-01
          2   -1    0    0  501    0  0.00000000000E+00  0.00000000000E+00  0.21647896012E+04  0.21647896012E+04  0.25500000000E-02 0. -1.
         -2   -1    0    0    0  501 -0.00000000000E+00 -0.00000000000E+00 -0.81548059213E+03  0.81548059214E+03  0.25500000000E-02 0.  1.
    8880023    1    1    2    0    0 -0.18735583882E+03  0.24422321431E+03  0.20634170895E+04  0.21877494098E+04  0.65864270000E+03 0. -1.
    8880022    1    1    2    0    0  0.18735583882E+03 -0.24422321431E+03 -0.71410808042E+03  0.79252078351E+03  0.15294330000E+03 0.  0.
<mgrwt>
<rscale>  0 0.60284914E+03</rscale>
<asrwt>0</asrwt>
<pdfrwt beam="1">  1        2 0.33304455E+00 0.72701953E+03</pdfrwt>
<pdfrwt beam="2">  1       -2 0.12545855E+00 0.72701953E+03</pdfrwt>
<totfact> 0.26844537E+00</totfact>
</mgrwt>
</event>
<event>
 4    1  0.8287789E-007  0.1058082E+04  0.7818608E-02  0.9309228E-01
          2   -1    0    0  501    0  0.00000000000E+00  0.00000000000E+00  0.27899661348E+04  0.27899661348E+04  0.25500000000E-02 0. -1.
         -2   -1    0    0    0  501 -0.00000000000E+00 -0.00000000000E+00 -0.68651412341E+03  0.68651412341E+03  0.25500000000E-02 0.  1.
    8880023    1    1    2    0    0 -0.51366256293E+03  0.64952171459E+03  0.23681420585E+04  0.25937684364E+04  0.65864270000E+03 0.  0.
    8880022    1    1    2    0    0  0.51366256293E+03 -0.64952171459E+03 -0.26469004711E+03  0.88271182179E+03  0.15294330000E+03 0.  0.
<mgrwt>
<rscale>  0 0.99937726E+03</rscale>
<asrwt>0</asrwt>
<pdfrwt beam="1">  1        2 0.42922555E+00 0.10580822E+04</pdfrwt>
<pdfrwt beam="2">  1       -2 0.10561756E+00 0.10580822E+04</pdfrwt>
<totfact> 0.17088130E+00</totfact>
</mgrwt>
</event>
<event>
 4    1  0.8287789E-007  0.1397439E+04  0.7818608E-02  0.8985675E-01
         -2   -1    0    0    0  501 -0.00000000000E+00  0.00000000000E+00  0.76763359398E+03  0.76763359398E+03  0.25500000000E-02 0.  1.
          2   -1    0    0  501    0  0.00000000000E+00 -0.00000000000E+00 -0.36831704379E+04  0.36831704379E+04  0.25500000000E-02 0. -1.
    8880023    1    1    2    0    0  0.96677532273E+03  0.76444192801E+03 -0.28882595365E+04  0.32085634391E+04  0.65864270000E+03 0.  0.
    8880022    1    1    2    0    0 -0.96677532273E+03 -0.76444192801E+03 -0.27277307407E+02  0.12422405928E+04  0.15294330000E+03 0.  0.
<mgrwt>
<rscale>  0 0.13568284E+04</rscale>
<asrwt>0</asrwt>
<pdfrwt beam="1">  1        2 0.56664160E+00 0.13974392E+04</pdfrwt>
<pdfrwt beam="2">  1       -2 0.11809748E+00 0.13974392E+04</pdfrwt>
<totfact> 0.32318753E-01</totfact>
</mgrwt>
</event>
<event>
 4    1  0.8287789E-007  0.9636471E+03  0.7818608E-02  0.9430745E-01
          2   -1    0    0  501    0  0.00000000000E+00  0.00000000000E+00  0.25175619640E+03  0.25175619641E+03  0.25500000000E-02 0. -1.
         -2   -1    0    0    0  501 -0.00000000000E+00 -0.00000000000E+00 -0.32893424832E+04  0.32893424832E+04  0.25500000000E-02 0.  1.
    8880023    1    1    2    0    0  0.32331611990E+03  0.62471769822E+03 -0.10402716596E+04  0.14180200450E+04  0.65864270000E+03 0.  0.
    8880022    1    1    2    0    0 -0.32331611990E+03 -0.62471769822E+03 -0.19973146272E+04  0.21230786346E+04  0.15294330000E+03 0.  0.
<mgrwt>
<rscale>  0 0.89588114E+03</rscale>
<asrwt>0</asrwt>
<pdfrwt beam="1">  1        2 0.38731725E-01 0.96364709E+03</pdfrwt>
<pdfrwt beam="2">  1       -2 0.50605266E+00 0.96364709E+03</pdfrwt>
<totfact> 0.20603713E-01</totfact>
</mgrwt>
</event>
<event>
 4    1  0.8287789E-007  0.7927949E+03  0.7818608E-02  0.9726597E-01
          2   -1    0    0  501    0  0.00000000000E+00  0.00000000000E+00  0.81659499106E+03  0.81659499106E+03  0.25500000000E-02 0. -1.
         -2   -1    0    0    0  501 -0.00000000000E+00 -0.00000000000E+00 -0.55957974837E+03  0.55957974837E+03  0.25500000000E-02 0.  1.
    8880023    1    1    2    0    0  0.11903622918E+03  0.42490453925E+03  0.39969113967E+03  0.88784948315E+03  0.65864270000E+03 0. -1.
    8880022    1    1    2    0    0 -0.11903622918E+03 -0.42490453925E+03 -0.14267589699E+03  0.48832525629E+03  0.15294330000E+03 0.  0.
<mgrwt>
<rscale>  0 0.69455055E+03</rscale>
<asrwt>0</asrwt>
<pdfrwt beam="1">  1        2 0.12563000E+00 0.79279486E+03</pdfrwt>
<pdfrwt beam="2">  1       -2 0.86089192E-01 0.79279486E+03</pdfrwt>
<totfact> 0.39634055E+01</totfact>
</mgrwt>
</event>
<event>
 4    1  0.8287789E-007  0.9008946E+03  0.7818608E-02  0.9524597E-01
          2   -1    0    0  501    0  0.00000000000E+00  0.00000000000E+00  0.25696675402E+04  0.25696675402E+04  0.25500000000E-02 0. -1.
         -2   -1    0    0    0  501 -0.00000000000E+00 -0.00000000000E+00 -0.27563737647E+03  0.27563737648E+03  0.25500000000E-02 0.  1.
    8880023    1    1    2    0    0  0.10842790223E+03 -0.60501586904E+03  0.18907831589E+04  0.20944383428E+04  0.65864270000E+03 0. -1.
    8880022    1    1    2    0    0 -0.10842790223E+03  0.60501586904E+03  0.40324700484E+03  0.75086657383E+03  0.15294330000E+03 0.  0.
<mgrwt>
<rscale>  0 0.82494420E+03</rscale>
<asrwt>0</asrwt>
<pdfrwt beam="1">  1        2 0.39533347E+00 0.90089457E+03</pdfrwt>
<pdfrwt beam="2">  1       -2 0.42405750E-01 0.90089457E+03</pdfrwt>
<totfact> 0.17144922E+01</totfact>
</mgrwt>
</event>
<event>
 4    1  0.8287789E-007  0.9675342E+03  0.7818608E-02  0.9425323E-01
         -2   -1    0    0    0  501 -0.00000000000E+00  0.00000000000E+00  0.67451252342E+03  0.67451252342E+03  0.25500000000E-02 0.  1.
          2   -1    0    0  501    0  0.00000000000E+00 -0.00000000000E+00 -0.14615617987E+04  0.14615617987E+04  0.25500000000E-02 0. -1.
    8880023    1    1    2    0    0  0.50609166748E+03 -0.49616874633E+03 -0.98885608717E+03  0.13834589868E+04  0.65864270000E+03 0.  0.
    8880022    1    1    2    0    0 -0.50609166748E+03  0.49616874633E+03  0.20180681184E+03  0.75261533538E+03  0.15294330000E+03 0.  0.
<mgrwt>
<rscale>  0 0.90020700E+03</rscale>
<asrwt>0</asrwt>
<pdfrwt beam="1">  1        2 0.22485566E+00 0.96753419E+03</pdfrwt>
<pdfrwt beam="2">  1       -2 0.10377116E+00 0.96753419E+03</pdfrwt>
<totfact> 0.10074082E+01</totfact>
</mgrwt>
</event>
<event>
 4    1  0.8287789E-007  0.8350044E+03  0.7818608E-02  0.9639673E-01
          2   -1    0    0  501    0  0.00000000000E+00  0.00000000000E+00  0.16201723114E+04  0.16201723114E+04  0.25500000000E-02 0. -1.
         -2   -1    0    0    0  501 -0.00000000000E+00 -0.00000000000E+00 -0.53153812993E+03  0.53153812994E+03  0.25500000000E-02 0.  1.
    8880023    1    1    2    0    0  0.29564823757E+03 -0.41954054764E+03  0.13251275220E+04  0.15662679551E+04  0.65864270000E+03 0.  0.
    8880022    1    1    2    0    0 -0.29564823757E+03  0.41954054764E+03 -0.23649334054E+03  0.58544248619E+03  0.15294330000E+03 0.  0.
<mgrwt>
<rscale>  0 0.74725113E+03</rscale>
<asrwt>0</asrwt>
<pdfrwt beam="1">  1        2 0.24925727E+00 0.83500441E+03</pdfrwt>
<pdfrwt beam="2">  1       -2 0.81775099E-01 0.83500441E+03</pdfrwt>
<totfact> 0.14519132E+01</totfact>
</mgrwt>
</event>
<event>
 4    1  0.8287789E-007  0.1011093E+04  0.7818608E-02  0.9367186E-01
         -2   -1    0    0    0  501 -0.00000000000E+00  0.00000000000E+00  0.69115729487E+03  0.69115729488E+03  0.25500000000E-02 0.  1.
          2   -1    0    0  501    0  0.00000000000E+00 -0.00000000000E+00 -0.20852392221E+04  0.20852392221E+04  0.25500000000E-02 0. -1.
    8880023    1    1    2    0    0 -0.66892495934E+03 -0.37555113124E+03 -0.16655236234E+04  0.19484040648E+04  0.65864270000E+03 0. -1.
    8880022    1    1    2    0    0  0.66892495934E+03  0.37555113124E+03  0.27144169618E+03  0.82799245217E+03  0.15294330000E+03 0.  0.
<mgrwt>
<rscale>  0 0.94826046E+03</rscale>
<asrwt>0</asrwt>
<pdfrwt beam="1">  1        2 0.32080603E+00 0.10110932E+04</pdfrwt>
<pdfrwt beam="2">  1       -2 0.10633189E+00 0.10110932E+04</pdfrwt>
<totfact> 0.42697557E+00</totfact>
</mgrwt>
</event>
<event>
 4    1  0.8287789E-007  0.6779091E+03  0.7818608E-02  0.1010532E+00
         -2   -1    0    0    0  501 -0.00000000000E+00  0.00000000000E+00  0.80079262417E+03  0.80079262418E+03  0.25500000000E-02 0.  1.
          2   -1    0    0  501    0  0.00000000000E+00 -0.00000000000E+00 -0.34309920815E+03  0.34309920816E+03  0.25500000000E-02 0. -1.
    8880023    1    1    2    0    0  0.16002670654E+03 -0.11914329437E+02  0.49904813227E+02  0.67974347713E+03  0.65864270000E+03 0. -1.
    8880022    1    1    2    0    0 -0.16002670654E+03  0.11914329437E+02  0.40778860280E+03  0.46414835521E+03  0.15294330000E+03 0.  1.
<mgrwt>
<rscale>  0 0.51263748E+03</rscale>
<asrwt>0</asrwt>
<pdfrwt beam="1">  1        2 0.52784495E-01 0.67790907E+03</pdfrwt>
<pdfrwt beam="2">  1       -2 0.12319886E+00 0.67790907E+03</pdfrwt>
<totfact> 0.47721766E+01</totfact>
</mgrwt>
</event>
<event>
 4    1  0.8287789E-007  0.7604068E+03  0.7818608E-02  0.9804056E-01
         -2   -1    0    0    0  501 -0.00000000000E+00  0.00000000000E+00  0.12473697179E+04  0.12473697179E+04  0.25500000000E-02 0.  1.
          2   -1    0    0  501    0  0.00000000000E+00 -0.00000000000E+00 -0.81922301486E+03  0.81922301486E+03  0.25500000000E-02 0. -1.
    8880023    1    1    2    0    0 -0.21069101464E+03 -0.31625553241E+03 -0.59432854776E+03  0.96511392818E+03  0.65864270000E+03 0.  0.
    8880022    1    1    2    0    0  0.21069101464E+03  0.31625553241E+03  0.10224752508E+04  0.11014788046E+04  0.15294330000E+03 0.  1.
<mgrwt>
<rscale>  0 0.65145355E+03</rscale>
<asrwt>0</asrwt>
<pdfrwt beam="1">  1        2 0.12603431E+00 0.76040678E+03</pdfrwt>
<pdfrwt beam="2">  1       -2 0.19190303E+00 0.76040678E+03</pdfrwt>
<totfact> 0.51202159E+00</totfact>
</mgrwt>
</event>
<event>
 4    1  0.8287789E-007  0.7139304E+03  0.7818608E-02  0.9943685E-01
         -2   -1    0    0    0  501 -0.00000000000E+00  0.00000000000E+00  0.36364616087E+03  0.36364616088E+03  0.25500000000E-02 0.  1.
          2   -1    0    0  501    0  0.00000000000E+00 -0.00000000000E+00 -0.82460600714E+03  0.82460600715E+03  0.25500000000E-02 0. -1.
    8880023    1    1    2    0    0 -0.59576263545E+02 -0.26895545315E+03 -0.49877980544E+03  0.87090634832E+03  0.65864270000E+03 0.  0.
    8880022    1    1    2    0    0  0.59576263545E+02  0.26895545315E+03  0.37819959163E+02  0.31734581971E+03  0.15294330000E+03 0.  0.
<mgrwt>
<rscale>  0 0.58190023E+03</rscale>
<asrwt>0</asrwt>
<pdfrwt beam="1">  1        2 0.12686246E+00 0.71393037E+03</pdfrwt>
<pdfrwt beam="2">  1       -2 0.55945563E-01 0.71393037E+03</pdfrwt>
<totfact> 0.10071888E+02</totfact>
</mgrwt>
</event>
<event>
 4    1  0.8287789E-007  0.9697418E+03  0.7818608E-02  0.9422261E-01
          2   -1    0    0  501    0  0.00000000000E+00  0.00000000000E+00  0.17042444677E+04  0.17042444677E+04  0.25500000000E-02 0. -1.
         -2   -1    0    0    0  501 -0.00000000000E+00 -0.00000000000E+00 -0.75430147577E+03  0.75430147577E+03  0.25500000000E-02 0.  1.
    8880023    1    1    2    0    0 -0.66522232530E+03  0.25311681041E+03 -0.29738277183E+03  0.10143153262E+04  0.65864270000E+03 0.  0.
    8880022    1    1    2    0    0  0.66522232530E+03 -0.25311681041E+03  0.12473257637E+04  0.14442306172E+04  0.15294330000E+03 0.  0.
<mgrwt>
<rscale>  0 0.90266075E+03</rscale>
<asrwt>0</asrwt>
<pdfrwt beam="1">  1        2 0.26219146E+00 0.96974175E+03</pdfrwt>
<pdfrwt beam="2">  1       -2 0.11604638E+00 0.96974175E+03</pdfrwt>
<totfact> 0.56220671E+00</totfact>
</mgrwt>
</event>
<event>
 4    1  0.1009199E-006  0.7048953E+03  0.7818608E-02  0.9977469E-01
         -2   -1    0    0    0  501 -0.00000000000E+00  0.00000000000E+00  0.72416789315E+03  0.72416789316E+03  0.25500000000E-02 0.  1.
          2   -1    0    0  501    0  0.00000000000E+00 -0.00000000000E+00 -0.20064584078E+04  0.20064584078E+04  0.25500000000E-02 0. -1.
    8880023    1    1    2    0    0  0.12111907118E+03  0.21999389972E+03 -0.19108348577E+04  0.20367049872E+04  0.65864270000E+03 0.  0.
    8880022    1    1    2    0    0 -0.12111907118E+03 -0.21999389972E+03  0.62854434311E+03  0.69392131369E+03  0.15294330000E+03 0.  0.
<mgrwt>
<rscale>  0 0.56649307E+03</rscale>
<asrwt>0</asrwt>
<pdfrwt beam="1">  1        2 0.30868591E+00 0.70489528E+03</pdfrwt>
<pdfrwt beam="2">  1       -2 0.11141045E+00 0.70489528E+03</pdfrwt>
<totfact> 0.44089546E+00</totfact>
</mgrwt>
</event>
<event>
 4    1  0.8287789E-007  0.7084754E+03  0.7818608E-02  0.9963707E-01
         -2   -1    0    0    0  501 -0.00000000000E+00  0.00000000000E+00  0.71902580443E+03  0.71902580444E+03  0.25500000000E-02 0.  1.
          2   -1    0    0  501    0  0.00000000000E+00 -0.00000000000E+00 -0.46266580015E+03  0.46266580016E+03  0.25500000000E-02 0. -1.
    8880023    1    1    2    0    0 -0.25770992570E+03  0.41385628707E+02 -0.98602707800E+02  0.71530404467E+03  0.65864270000E+03 0. -1.
    8880022    1    1    2    0    0  0.25770992570E+03 -0.41385628707E+02  0.35496271208E+03  0.46638755992E+03  0.15294330000E+03 0.  0.
<mgrwt>
<rscale>  0 0.57270686E+03</rscale>
<asrwt>0</asrwt>
<pdfrwt beam="1">  1        2 0.71179354E-01 0.70847539E+03</pdfrwt>
<pdfrwt beam="2">  1       -2 0.11061935E+00 0.70847539E+03</pdfrwt>
<totfact> 0.44300078E+01</totfact>
</mgrwt>
</event>
<event>
 4    1  0.8287789E-007  0.9948303E+03  0.7818608E-02  0.9388353E-01
         -2   -1    0    0    0  501 -0.00000000000E+00  0.00000000000E+00  0.67006884479E+03  0.67006884479E+03  0.25500000000E-02 0.  1.
          2   -1    0    0  501    0  0.00000000000E+00 -0.00000000000E+00 -0.22594030996E+04  0.22594030996E+04  0.25500000000E-02 0. -1.
    8880023    1    1    2    0    0 -0.55727789402E+03  0.49529635180E+03 -0.18700955750E+04  0.21182409667E+04  0.65864270000E+03 0. -1.
    8880022    1    1    2    0    0  0.55727789402E+03 -0.49529635180E+03  0.28076132014E+03  0.81123097770E+03  0.15294330000E+03 0.  0.
<mgrwt>
<rscale>  0 0.93040443E+03</rscale>
<asrwt>0</asrwt>
<pdfrwt beam="1">  1        2 0.34760047E+00 0.99483030E+03</pdfrwt>
<pdfrwt beam="2">  1       -2 0.10308752E+00 0.99483030E+03</pdfrwt>
<totfact> 0.36898454E+00</totfact>
</mgrwt>
</event>
<event>
 4    1  0.8287789E-007  0.7521011E+03  0.7818608E-02  0.9826003E-01
         -2   -1    0    0    0  501 -0.00000000000E+00  0.00000000000E+00  0.23566206154E+04  0.23566206154E+04  0.25500000000E-02 0.  1.
          2   -1    0    0  501    0  0.00000000000E+00 -0.00000000000E+00 -0.37058062703E+03  0.37058062704E+03  0.25500000000E-02 0. -1.
    8880023    1    1    2    0    0 -0.77818513108E+02  0.35466906877E+03  0.52505549481E+02  0.75393163372E+03  0.65864270000E+03 0.  0.
    8880022    1    1    2    0    0  0.77818513108E+02 -0.35466906877E+03  0.19335344389E+04  0.19732696088E+04  0.15294330000E+03 0.  0.
<mgrwt>
<rscale>  0 0.63985528E+03</rscale>
<asrwt>0</asrwt>
<pdfrwt beam="1">  1        2 0.57012404E-01 0.75210111E+03</pdfrwt>
<pdfrwt beam="2">  1       -2 0.36255702E+00 0.75210111E+03</pdfrwt>
<totfact> 0.11847849E+00</totfact>
</mgrwt>
</event>
<event>
 4    1  0.8287789E-007  0.6737379E+03  0.7818608E-02  0.1013114E+00
         -2   -1    0    0    0  501 -0.00000000000E+00  0.00000000000E+00  0.25308760214E+03  0.25308760215E+03  0.25500000000E-02 0.  1.
          2   -1    0    0  501    0  0.00000000000E+00 -0.00000000000E+00 -0.23861391593E+04  0.23861391593E+04  0.25500000000E-02 0. -1.
    8880023    1    1    2    0    0  0.93098273919E+02 -0.10698240638E+03 -0.22842984698E+04  0.23815839748E+04  0.65864270000E+03 0. -1.
    8880022    1    1    2    0    0 -0.93098273919E+02  0.10698240638E+03  0.15124691264E+03  0.25764278659E+03  0.15294330000E+03 0.  0.
<mgrwt>
<rscale>  0 0.50255615E+03</rscale>
<asrwt>0</asrwt>
<pdfrwt beam="1">  1        2 0.36709832E+00 0.67373788E+03</pdfrwt>
<pdfrwt beam="2">  1       -2 0.38936556E-01 0.67373788E+03</pdfrwt>
<totfact> 0.26597572E+01</totfact>
</mgrwt>
</event>
<event>
 4    1  0.8287789E-007  0.7589702E+03  0.7818608E-02  0.9807781E-01
          2   -1    0    0  501    0  0.00000000000E+00  0.00000000000E+00  0.32327741517E+03  0.32327741518E+03  0.25500000000E-02 0. -1.
         -2   -1    0    0    0  501 -0.00000000000E+00 -0.00000000000E+00 -0.39247441262E+04  0.39247441262E+04  0.25500000000E-02 0.  1.
    8880023    1    1    2    0    0 -0.82670847385E+02  0.36795522185E+03 -0.15125937533E+03  0.77389606485E+03  0.65864270000E+03 0. -1.
    8880022    1    1    2    0    0  0.82670847385E+02 -0.36795522185E+03 -0.34502073357E+04  0.34741254765E+04  0.15294330000E+03 0.  0.
<mgrwt>
<rscale>  0 0.64946642E+03</rscale>
<asrwt>0</asrwt>
<pdfrwt beam="1">  1        2 0.49734990E-01 0.75897017E+03</pdfrwt>
<pdfrwt beam="2">  1       -2 0.60380676E+00 0.75897017E+03</pdfrwt>
<totfact> 0.50503819E-02</totfact>
</mgrwt>
</event>
<event>
 4    1  0.8287789E-007  0.6858161E+03  0.7818608E-02  0.1006208E+00
         -2   -1    0    0    0  501 -0.00000000000E+00  0.00000000000E+00  0.15428243001E+03  0.15428243004E+03  0.25500000000E-02 0.  1.
          2   -1    0    0  501    0  0.00000000000E+00 -0.00000000000E+00 -0.14508914946E+04  0.14508914946E+04  0.25500000000E-02 0. -1.
    8880023    1    1    2    0    0  0.18927912278E+03  0.26587636184E+02 -0.10740268008E+04  0.12743144290E+04  0.65864270000E+03 0. -1.
    8880022    1    1    2    0    0 -0.18927912278E+03 -0.26587636184E+02 -0.22258226377E+03  0.33085949568E+03  0.15294330000E+03 0.  1.
<mgrwt>
<rscale>  0 0.53009887E+03</rscale>
<asrwt>0</asrwt>
<pdfrwt beam="1">  1        2 0.22321407E+00 0.68581608E+03</pdfrwt>
<pdfrwt beam="2">  1       -2 0.23735759E-01 0.68581608E+03</pdfrwt>
<totfact> 0.21702736E+02</totfact>
</mgrwt>
</event>
<event>
 4    1  0.8287789E-007  0.6661290E+03  0.7818608E-02  0.1018604E+00
          2   -1    0    0  501    0  0.00000000000E+00  0.00000000000E+00  0.15465581928E+04  0.15465581928E+04  0.25500000000E-02 0. -1.
         -2   -1    0    0    0  501 -0.00000000000E+00 -0.00000000000E+00 -0.15209695425E+03  0.15209695428E+03  0.25500000000E-02 0.  1.
    8880023    1    1    2    0    0  0.97793668381E+02 -0.18817151410E+02  0.13579463279E+04  0.15125297096E+04  0.65864270000E+03 0. -1.
    8880022    1    1    2    0    0 -0.97793668381E+02  0.18817151410E+02  0.36514910671E+02  0.18612543748E+03  0.15294330000E+03 0.  0.
<mgrwt>
<rscale>  0 0.48193618E+03</rscale>
<asrwt>0</asrwt>
<pdfrwt beam="1">  1        2 0.23793203E+00 0.66612904E+03</pdfrwt>
<pdfrwt beam="2">  1       -2 0.23399531E-01 0.66612904E+03</pdfrwt>
<totfact> 0.19732286E+02</totfact>
</mgrwt>
</event>
<event>
 4    1  0.8287789E-007  0.1189863E+04  0.7818608E-02  0.9167040E-01
         -2   -1    0    0    0  501 -0.00000000000E+00  0.00000000000E+00  0.25959294382E+04  0.25959294382E+04  0.25500000000E-02 0.  1.
          2   -1    0    0  501    0  0.00000000000E+00 -0.00000000000E+00 -0.14753501664E+04  0.14753501664E+04  0.25500000000E-02 0. -1.
    8880023    1    1    2    0    0 -0.69283132115E+03 -0.70848304996E+03 -0.11090435464E+04  0.16265765478E+04  0.65864270000E+03 0. -1.
    8880022    1    1    2    0    0  0.69283132115E+03  0.70848304996E+03  0.22296228182E+04  0.24447030569E+04  0.15294330000E+03 0.  0.
<mgrwt>
<rscale>  0 0.11400204E+04</rscale>
<asrwt>0</asrwt>
<pdfrwt beam="1">  1        2 0.22697695E+00 0.11898629E+04</pdfrwt>
<pdfrwt beam="2">  1       -2 0.39937376E+00 0.11898629E+04</pdfrwt>
<totfact> 0.96740627E-02</totfact>
</mgrwt>
</event>
<event>
 4    1  0.1149967E-006  0.7907828E+03  0.7818608E-02  0.9731092E-01
          2   -1    0    0  501    0  0.00000000000E+00  0.00000000000E+00  0.30149184552E+04  0.30149184552E+04  0.25500000000E-02 0. -1.
         -2   -1    0    0    0  501 -0.00000000000E+00 -0.00000000000E+00 -0.70425594297E+03  0.70425594297E+03  0.25500000000E-02 0.  1.
    8880023    1    1    2    0    0 -0.33839547002E+03 -0.27751704636E+03  0.28790638920E+04  0.29856902561E+04  0.65864270000E+03 0. -1.
    8880022    1    1    2    0    0  0.33839547002E+03  0.27751704636E+03 -0.56840137973E+03  0.73348414206E+03  0.15294330000E+03 0.  0.
<mgrwt>
<rscale>  0 0.69195399E+03</rscale>
<asrwt>0</asrwt>
<pdfrwt beam="1">  1        2 0.46383360E+00 0.79078278E+03</pdfrwt>
<pdfrwt beam="2">  1       -2 0.10834707E+00 0.79078278E+03</pdfrwt>
<totfact> 0.12302057E+00</totfact>
</mgrwt>
</event>
<event>
 4    1  0.8287789E-007  0.8245294E+03  0.7818608E-02  0.9660072E-01
         -2   -1    0    0    0  501 -0.00000000000E+00  0.00000000000E+00  0.31300820900E+03  0.31300820901E+03  0.25500000000E-02 0.  1.
          2   -1    0    0  501    0  0.00000000000E+00 -0.00000000000E+00 -0.24669134680E+04  0.24669134680E+04  0.25500000000E-02 0. -1.
    8880023    1    1    2    0    0  0.11634213136E+03 -0.48218576304E+03 -0.21024028868E+04  0.22583061587E+04  0.65864270000E+03 0. -1.
    8880022    1    1    2    0    0 -0.11634213136E+03  0.48218576304E+03 -0.51502372205E+02  0.52161551833E+03  0.15294330000E+03 0.  0.
<mgrwt>
<rscale>  0 0.73444694E+03</rscale>
<asrwt>0</asrwt>
<pdfrwt beam="1">  1        2 0.37952514E+00 0.82452945E+03</pdfrwt>
<pdfrwt beam="2">  1       -2 0.48155111E-01 0.82452945E+03</pdfrwt>
<totfact> 0.15376133E+01</totfact>
</mgrwt>
</event>
<event>
 4    1  0.8287789E-007  0.9223520E+03  0.7818608E-02  0.9491062E-01
         -2   -1    0    0    0  501 -0.00000000000E+00  0.00000000000E+00  0.61867894215E+03  0.61867894215E+03  0.25500000000E-02 0.  1.
          2   -1    0    0  501    0  0.00000000000E+00 -0.00000000000E+00 -0.15901845591E+04  0.15901845591E+04  0.25500000000E-02 0. -1.
    8880023    1    1    2    0    0  0.63892689676E+03 -0.93249480966E+02 -0.11942064513E+04  0.15089275329E+04  0.65864270000E+03 0.  0.
    8880022    1    1    2    0    0 -0.63892689676E+03  0.93249480966E+02  0.22270083433E+03  0.69993596831E+03  0.15294330000E+03 0.  0.
<mgrwt>
<rscale>  0 0.84945999E+03</rscale>
<asrwt>0</asrwt>
<pdfrwt beam="1">  1        2 0.24464378E+00 0.92235202E+03</pdfrwt>
<pdfrwt beam="2">  1       -2 0.95181376E-01 0.92235202E+03</pdfrwt>
<totfact> 0.10529315E+01</totfact>
</mgrwt>
</event>
<event>
 4    1  0.8287789E-007  0.7151071E+03  0.7818608E-02  0.9939503E-01
          2   -1    0    0  501    0  0.00000000000E+00  0.00000000000E+00  0.25689926463E+04  0.25689926463E+04  0.25500000000E-02 0. -1.
         -2   -1    0    0    0  501 -0.00000000000E+00 -0.00000000000E+00 -0.21899693510E+03  0.21899693511E+03  0.25500000000E-02 0.  1.
    8880023    1    1    2    0    0 -0.19279340277E+03  0.20099415452E+03  0.23641471716E+04  0.24699331978E+04  0.65864270000E+03 0. -1.
    8880022    1    1    2    0    0  0.19279340277E+03 -0.20099415452E+03 -0.14151460412E+02  0.31805638361E+03  0.15294330000E+03 0.  0.
<mgrwt>
<rscale>  0 0.58384393E+03</rscale>
<asrwt>0</asrwt>
<pdfrwt beam="1">  1        2 0.39522963E+00 0.71510709E+03</pdfrwt>
<pdfrwt beam="2">  1       -2 0.33691836E-01 0.71510709E+03</pdfrwt>
<totfact> 0.27480882E+01</totfact>
</mgrwt>
</event>
<event>
 4    1  0.8287789E-007  0.7706643E+03  0.7818608E-02  0.9778242E-01
         -2   -1    0    0    0  501 -0.00000000000E+00  0.00000000000E+00  0.19836987992E+03  0.19836987994E+03  0.25500000000E-02 0.  1.
          2   -1    0    0  501    0  0.00000000000E+00 -0.00000000000E+00 -0.23323476650E+04  0.23323476650E+04  0.25500000000E-02 0. -1.
    8880023    1    1    2    0    0 -0.33088557298E+03  0.22500680490E+03 -0.18821206819E+04  0.20337900069E+04  0.65864270000E+03 0. -1.
    8880022    1    1    2    0    0  0.33088557298E+03 -0.22500680490E+03 -0.25185710324E+03  0.49692753810E+03  0.15294330000E+03 0.  0.
<mgrwt>
<rscale>  0 0.66543391E+03</rscale>
<asrwt>0</asrwt>
<pdfrwt beam="1">  1        2 0.35882270E+00 0.77066434E+03</pdfrwt>
<pdfrwt beam="2">  1       -2 0.30518445E-01 0.77066434E+03</pdfrwt>
<totfact> 0.44636583E+01</totfact>
</mgrwt>
</event>
<event>
 4    1  0.8287789E-007  0.8795260E+03  0.7818608E-02  0.9559732E-01
          2   -1    0    0  501    0  0.00000000000E+00  0.00000000000E+00  0.59690172476E+03  0.59690172477E+03  0.25500000000E-02 0. -1.
         -2   -1    0    0    0  501 -0.00000000000E+00 -0.00000000000E+00 -0.94355983953E+03  0.94355983953E+03  0.25500000000E-02 0.  1.
    8880023    1    1    2    0    0  0.56229562251E+03  0.15355568786E+03 -0.32436612166E+03  0.93743229276E+03  0.65864270000E+03 0.  0.
    8880022    1    1    2    0    0 -0.56229562251E+03 -0.15355568786E+03 -0.22291993107E+02  0.60302927154E+03  0.15294330000E+03 0.  0.
<mgrwt>
<rscale>  0 0.80019689E+03</rscale>
<asrwt>0</asrwt>
<pdfrwt beam="1">  1        2 0.91831034E-01 0.87952596E+03</pdfrwt>
<pdfrwt beam="2">  1       -2 0.14516305E+00 0.87952596E+03</pdfrwt>
<totfact> 0.16349326E+01</totfact>
</mgrwt>
</event>
<event>
 4    1  0.8287789E-007  0.6856006E+03  0.7818608E-02  0.1006318E+00
          2   -1    0    0  501    0  0.00000000000E+00  0.00000000000E+00  0.54682828002E+03  0.54682828003E+03  0.25500000000E-02 0. -1.
         -2   -1    0    0    0  501 -0.00000000000E+00 -0.00000000000E+00 -0.10083491732E+04  0.10083491732E+04  0.25500000000E-02 0.  1.
    8880023    1    1    2    0    0 -0.11086251436E+03  0.15474966271E+03  0.30523395420E+03  0.75047713374E+03  0.65864270000E+03 0.  0.
    8880022    1    1    2    0    0  0.11086251436E+03 -0.15474966271E+03 -0.76675484734E+03  0.80470031945E+03  0.15294330000E+03 0.  1.
<mgrwt>
<rscale>  0 0.52964653E+03</rscale>
<asrwt>0</asrwt>
<pdfrwt beam="1">  1        2 0.84127428E-01 0.68560058E+03</pdfrwt>
<pdfrwt beam="2">  1       -2 0.15513064E+00 0.68560058E+03</pdfrwt>
<totfact> 0.15499832E+01</totfact>
</mgrwt>
</event>
<event>
 4    1  0.8287789E-007  0.7050825E+03  0.7818608E-02  0.9976736E-01
         -2   -1    0    0    0  501 -0.00000000000E+00  0.00000000000E+00  0.34549996082E+03  0.34549996083E+03  0.25500000000E-02 0.  1.
          2   -1    0    0  501    0  0.00000000000E+00 -0.00000000000E+00 -0.13423455761E+04  0.13423455761E+04  0.25500000000E-02 0. -1.
    8880023    1    1    2    0    0  0.50788455000E+01 -0.25160545982E+03 -0.11552794982E+04  0.13534445047E+04  0.65864270000E+03 0. -1.
    8880022    1    1    2    0    0 -0.50788455000E+01  0.25160545982E+03  0.15843388292E+03  0.33440103223E+03  0.15294330000E+03 0.  0.
<mgrwt>
<rscale>  0 0.56682184E+03</rscale>
<asrwt>0</asrwt>
<pdfrwt beam="1">  1        2 0.20651470E+00 0.70508248E+03</pdfrwt>
<pdfrwt beam="2">  1       -2 0.53153841E-01 0.70508248E+03</pdfrwt>
<totfact> 0.53376605E+01</totfact>
</mgrwt>
</event>
<event>
 4    1  0.8287789E-007  0.8845646E+03  0.7818608E-02  0.9551279E-01
          2   -1    0    0  501    0  0.00000000000E+00  0.00000000000E+00  0.17453585895E+04  0.17453585895E+04  0.25500000000E-02 0. -1.
         -2   -1    0    0    0  501 -0.00000000000E+00 -0.00000000000E+00 -0.32206487042E+03  0.32206487043E+03  0.25500000000E-02 0.  1.
    8880023    1    1    2    0    0 -0.13163574647E+03 -0.57560087814E+03  0.92429365430E+03  0.12793644150E+04  0.65864270000E+03 0.  0.
    8880022    1    1    2    0    0  0.13163574647E+03  0.57560087814E+03  0.49900006480E+03  0.78805904496E+03  0.15294330000E+03 0.  0.
<mgrwt>
<rscale>  0 0.80606542E+03</rscale>
<asrwt>0</asrwt>
<pdfrwt beam="1">  1        2 0.26851670E+00 0.88456461E+03</pdfrwt>
<pdfrwt beam="2">  1       -2 0.49548443E-01 0.88456461E+03</pdfrwt>
<totfact> 0.36098026E+01</totfact>
</mgrwt>
</event>
<event>
 4    1  0.8287789E-007  0.7264919E+03  0.7818608E-02  0.9901202E-01
          2   -1    0    0  501    0  0.00000000000E+00  0.00000000000E+00  0.13543873669E+04  0.13543873669E+04  0.25500000000E-02 0. -1.
         -2   -1    0    0    0  501 -0.00000000000E+00 -0.00000000000E+00 -0.73573353095E+03  0.73573353095E+03  0.25500000000E-02 0.  1.
    8880023    1    1    2    0    0  0.82801334550E+02 -0.29516804500E+03  0.12073040480E+04  0.14090328265E+04  0.65864270000E+03 0. -1.
    8880022    1    1    2    0    0 -0.82801334550E+02  0.29516804500E+03 -0.58865021200E+03  0.68108807132E+03  0.15294330000E+03 0.  0.
<mgrwt>
<rscale>  0 0.60203062E+03</rscale>
<asrwt>0</asrwt>
<pdfrwt beam="1">  1        2 0.20836729E+00 0.72649187E+03</pdfrwt>
<pdfrwt beam="2">  1       -2 0.11318978E+00 0.72649187E+03</pdfrwt>
<totfact> 0.96612270E+00</totfact>
</mgrwt>
</event>
<event>
 4    1  0.8287789E-007  0.9077401E+03  0.7818608E-02  0.9513719E-01
          2   -1    0    0  501    0  0.00000000000E+00  0.00000000000E+00  0.14628063769E+04  0.14628063769E+04  0.25500000000E-02 0. -1.
         -2   -1    0    0    0  501 -0.00000000000E+00 -0.00000000000E+00 -0.85926409786E+03  0.85926409787E+03  0.25500000000E-02 0.  1.
    8880023    1    1    2    0    0  0.34047896131E+03  0.52369460275E+03  0.11590941015E+04  0.14722402326E+04  0.65864270000E+03 0. -1.
    8880022    1    1    2    0    0 -0.34047896131E+03 -0.52369460275E+03 -0.55555182247E+03  0.84983024217E+03  0.15294330000E+03 0.  0.
<mgrwt>
<rscale>  0 0.83279912E+03</rscale>
<asrwt>0</asrwt>
<pdfrwt beam="1">  1        2 0.22504713E+00 0.90774014E+03</pdfrwt>
<pdfrwt beam="2">  1       -2 0.13219448E+00 0.90774014E+03</pdfrwt>
<totfact> 0.55662809E+00</totfact>
</mgrwt>
</event>
<event>
 4    1  0.8287789E-007  0.7421766E+03  0.7818608E-02  0.9853652E-01
          2   -1    0    0  501    0  0.00000000000E+00  0.00000000000E+00  0.12819571751E+04  0.12819571751E+04  0.25500000000E-02 0. -1.
         -2   -1    0    0    0  501 -0.00000000000E+00 -0.00000000000E+00 -0.57597734340E+03  0.57597734341E+03  0.25500000000E-02 0.  1.
    8880023    1    1    2    0    0  0.29628831843E+03 -0.17096513599E+03  0.10917543427E+04  0.13201339313E+04  0.65864270000E+03 0. -1.
    8880022    1    1    2    0    0 -0.29628831843E+03  0.17096513599E+03 -0.38577451098E+03  0.53780058730E+03  0.15294330000E+03 0.  0.
<mgrwt>
<rscale>  0 0.62561077E+03</rscale>
<asrwt>0</asrwt>
<pdfrwt beam="1">  1        2 0.19722418E+00 0.74217656E+03</pdfrwt>
<pdfrwt beam="2">  1       -2 0.88611900E-01 0.74217656E+03</pdfrwt>
<totfact> 0.18948896E+01</totfact>
</mgrwt>
</event>
<event>
 4    1  0.8287789E-007  0.8950652E+03  0.7818608E-02  0.9534000E-01
          2   -1    0    0  501    0  0.00000000000E+00  0.00000000000E+00  0.12761982691E+04  0.12761982691E+04  0.25500000000E-02 0. -1.
         -2   -1    0    0    0  501 -0.00000000000E+00 -0.00000000000E+00 -0.12433426700E+04  0.12433426700E+04  0.25500000000E-02 0.  1.
    8880023    1    1    2    0    0  0.16501026135E+03  0.58318360599E+03  0.10163012347E+04  0.13542562204E+04  0.65864270000E+03 0. -1.
    8880022    1    1    2    0    0 -0.16501026135E+03 -0.58318360599E+03 -0.98344563558E+03  0.11652847188E+04  0.15294330000E+03 0.  0.
<mgrwt>
<rscale>  0 0.81822859E+03</rscale>
<asrwt>0</asrwt>
<pdfrwt beam="1">  1        2 0.19633819E+00 0.89506520E+03</pdfrwt>
<pdfrwt beam="2">  1       -2 0.19128349E+00 0.89506520E+03</pdfrwt>
<totfact> 0.26077404E+00</totfact>
</mgrwt>
</event>
<event>
 4    1  0.8287789E-007  0.6708817E+03  0.7818608E-02  0.1015039E+00
          2   -1    0    0  501    0  0.00000000000E+00  0.00000000000E+00  0.16870209707E+04  0.16870209707E+04  0.25500000000E-02 0. -1.
         -2   -1    0    0    0  501 -0.00000000000E+00 -0.00000000000E+00 -0.21024735961E+03  0.21024735962E+03  0.25500000000E-02 0.  1.
    8880023    1    1    2    0    0  0.12652510434E+03 -0.16230676140E+02  0.15469086632E+04  0.16861223726E+04  0.65864270000E+03 0. -1.
    8880022    1    1    2    0    0 -0.12652510434E+03  0.16230676140E+02 -0.70135052168E+02  0.21114595766E+03  0.15294330000E+03 0.  0.
<mgrwt>
<rscale>  0 0.49520337E+03</rscale>
<asrwt>0</asrwt>
<pdfrwt beam="1">  1        2 0.25954169E+00 0.67088169E+03</pdfrwt>
<pdfrwt beam="2">  1       -2 0.32345747E-01 0.67088169E+03</pdfrwt>
<totfact> 0.91390146E+01</totfact>
</mgrwt>
</event>
<event>
 4    1  0.8287789E-007  0.8667793E+03  0.7818608E-02  0.9581616E-01
          2   -1    0    0  501    0  0.00000000000E+00  0.00000000000E+00  0.15064785215E+04  0.15064785215E+04  0.25500000000E-02 0. -1.
         -2   -1    0    0    0  501 -0.00000000000E+00 -0.00000000000E+00 -0.41725850720E+03  0.41725850721E+03  0.25500000000E-02 0.  1.
    8880023    1    1    2    0    0 -0.20897279215E+03 -0.52328433347E+03  0.25131632863E+03  0.90247782511E+03  0.65864270000E+03 0.  0.
    8880022    1    1    2    0    0  0.20897279215E+03  0.52328433347E+03  0.83790368571E+03  0.10212592037E+04  0.15294330000E+03 0.  0.
<mgrwt>
<rscale>  0 0.78524978E+03</rscale>
<asrwt>0</asrwt>
<pdfrwt beam="1">  1        2 0.23176592E+00 0.86677928E+03</pdfrwt>
<pdfrwt beam="2">  1       -2 0.64193617E-01 0.86677928E+03</pdfrwt>
<totfact> 0.28529821E+01</totfact>
</mgrwt>
</event>
<event>
 4    1  0.8287789E-007  0.6638946E+03  0.7818608E-02  0.1020479E+00
          2   -1    0    0  501    0  0.00000000000E+00  0.00000000000E+00  0.38881621096E+04  0.38881621096E+04  0.25500000000E-02 0. -1.
         -2   -1    0    0    0  501 -0.00000000000E+00 -0.00000000000E+00 -0.16075069380E+03  0.16075069382E+03  0.25500000000E-02 0.  1.
    8880023    1    1    2    0    0  0.81663418800E+02  0.16641624009E+02  0.38019338608E+04  0.38594633235E+04  0.65864270000E+03 0. -1.
    8880022    1    1    2    0    0 -0.81663418800E+02 -0.16641624009E+02 -0.74522444966E+02  0.18944947991E+03  0.15294330000E+03 0.  0.
<mgrwt>
<rscale>  0 0.47514028E+03</rscale>
<asrwt>0</asrwt>
<pdfrwt beam="1">  1        2 0.59817876E+00 0.66389462E+03</pdfrwt>
<pdfrwt beam="2">  1       -2 0.24730877E-01 0.66389462E+03</pdfrwt>
<totfact> 0.68695141E+00</totfact>
</mgrwt>
</event>
<event>
 4    1  0.8287789E-007  0.9965336E+03  0.7818608E-02  0.9386107E-01
          2   -1    0    0  501    0  0.00000000000E+00  0.00000000000E+00  0.36845029022E+04  0.36845029022E+04  0.25500000000E-02 0. -1.
         -2   -1    0    0    0  501 -0.00000000000E+00 -0.00000000000E+00 -0.47029164168E+03  0.47029164169E+03  0.25500000000E-02 0.  1.
    8880023    1    1    2    0    0  0.73066619509E+03 -0.15936102917E+03  0.32412585212E+04  0.33909933698E+04  0.65864270000E+03 0.  0.
    8880022    1    1    2    0    0 -0.73066619509E+03  0.15936102917E+03 -0.27047260691E+02  0.76380117412E+03  0.15294330000E+03 0.  0.
<mgrwt>
<rscale>  0 0.93227905E+03</rscale>
<asrwt>0</asrwt>
<pdfrwt beam="1">  1        2 0.56684658E+00 0.99653361E+03</pdfrwt>
<pdfrwt beam="2">  1       -2 0.72352562E-01 0.99653361E+03</pdfrwt>
<totfact> 0.10801305E+00</totfact>
</mgrwt>
</event>
<event>
 4    1  0.8287789E-007  0.1007989E+04  0.7818608E-02  0.9371180E-01
          2   -1    0    0  501    0  0.00000000000E+00  0.00000000000E+00  0.66772083669E+03  0.66772083669E+03  0.25500000000E-02 0. -1.
         -2   -1    0    0    0  501 -0.00000000000E+00 -0.00000000000E+00 -0.25549378813E+04  0.25549378813E+04  0.25500000000E-02 0.  1.
    8880023    1    1    2    0    0 -0.10872595928E+03  0.75525470341E+03  0.17085582194E+03  0.10223663333E+04  0.65864270000E+03 0.  0.
    8880022    1    1    2    0    0  0.10872595928E+03 -0.75525470341E+03 -0.20580728666E+04  0.22002923847E+04  0.15294330000E+03 0.  0.
<mgrwt>
<rscale>  0 0.94485901E+03</rscale>
<asrwt>0</asrwt>
<pdfrwt beam="1">  1        2 0.10272628E+00 0.10079887E+04</pdfrwt>
<pdfrwt beam="2">  1       -2 0.39306736E+00 0.10079887E+04</pdfrwt>
<totfact> 0.36419096E-01</totfact>
</mgrwt>
</event>
<event>
 4    1  0.8287789E-007  0.7267156E+03  0.7818608E-02  0.9900485E-01
          2   -1    0    0  501    0  0.00000000000E+00  0.00000000000E+00  0.14081186530E+04  0.14081186530E+04  0.25500000000E-02 0. -1.
         -2   -1    0    0    0  501 -0.00000000000E+00 -0.00000000000E+00 -0.61906898804E+03  0.61906898805E+03  0.25500000000E-02 0.  1.
    8880023    1    1    2    0    0  0.12301175561E+03 -0.28137777002E+03  0.12540073075E+04  0.14493618854E+04  0.65864270000E+03 0. -1.
    8880022    1    1    2    0    0 -0.12301175561E+03  0.28137777002E+03 -0.46495764254E+03  0.57782575561E+03  0.15294330000E+03 0.  0.
<mgrwt>
<rscale>  0 0.60237790E+03</rscale>
<asrwt>0</asrwt>
<pdfrwt beam="1">  1        2 0.21663363E+00 0.72671559E+03</pdfrwt>
<pdfrwt beam="2">  1       -2 0.95241385E-01 0.72671559E+03</pdfrwt>
<totfact> 0.13606434E+01</totfact>
</mgrwt>
</event>
<event>
 4    1  0.8287789E-007  0.8835969E+03  0.7818608E-02  0.9552894E-01
          2   -1    0    0  501    0  0.00000000000E+00  0.00000000000E+00  0.14255499352E+04  0.14255499352E+04  0.25500000000E-02 0. -1.
         -2   -1    0    0    0  501 -0.00000000000E+00 -0.00000000000E+00 -0.53328111283E+03  0.53328111283E+03  0.25500000000E-02 0.  1.
    8880023    1    1    2    0    0 -0.43595363668E+01 -0.58899436007E+03  0.10068591746E+04  0.13395928357E+04  0.65864270000E+03 0.  1.
    8880022    1    1    2    0    0  0.43595363668E+01  0.58899436007E+03 -0.11459035224E+03  0.61923821231E+03  0.15294330000E+03 0.  0.
<mgrwt>
<rscale>  0 0.80494005E+03</rscale>
<asrwt>0</asrwt>
<pdfrwt beam="1">  1        2 0.21931537E+00 0.88359695E+03</pdfrwt>
<pdfrwt beam="2">  1       -2 0.82043250E-01 0.88359695E+03</pdfrwt>
<totfact> 0.18410402E+01</totfact>
</mgrwt>
</event>
<event>
 4    1  0.8287789E-007  0.8341375E+03  0.7818608E-02  0.9641335E-01
         -2   -1    0    0    0  501 -0.00000000000E+00  0.00000000000E+00  0.61720531074E+03  0.61720531074E+03  0.25500000000E-02 0.  1.
          2   -1    0    0  501    0  0.00000000000E+00 -0.00000000000E+00 -0.15603827388E+04  0.15603827388E+04  0.25500000000E-02 0. -1.
    8880023    1    1    2    0    0  0.38513107093E+03 -0.33711897775E+03 -0.12932368738E+04  0.15389109672E+04  0.65864270000E+03 0. -1.
    8880022    1    1    2    0    0 -0.38513107093E+03  0.33711897775E+03  0.35005944574E+03  0.63867708235E+03  0.15294330000E+03 0.  0.
<mgrwt>
<rscale>  0 0.74619728E+03</rscale>
<asrwt>0</asrwt>
<pdfrwt beam="1">  1        2 0.24005888E+00 0.83413749E+03</pdfrwt>
<pdfrwt beam="2">  1       -2 0.94954663E-01 0.83413749E+03</pdfrwt>
<totfact> 0.11112471E+01</totfact>
</mgrwt>
</event>
<event>
 4    1  0.8287789E-007  0.1162389E+04  0.7818608E-02  0.9194579E-01
         -2   -1    0    0    0  501 -0.00000000000E+00  0.00000000000E+00  0.44259051610E+03  0.44259051611E+03  0.25500000000E-02 0.  1.
          2   -1    0    0  501    0  0.00000000000E+00 -0.00000000000E+00 -0.37809673326E+04  0.37809673326E+04  0.25500000000E-02 0. -1.
    8880023    1    1    2    0    0  0.18553071864E+02  0.95759836143E+03 -0.29642128907E+04  0.31839766183E+04  0.65864270000E+03 0.  0.
    8880022    1    1    2    0    0 -0.18553071864E+02 -0.95759836143E+03 -0.37416392585E+03  0.10395812305E+04  0.15294330000E+03 0.  0.
<mgrwt>
<rscale>  0 0.11109560E+04</rscale>
<asrwt>0</asrwt>
<pdfrwt beam="1">  1        2 0.58168726E+00 0.11623894E+04</pdfrwt>
<pdfrwt beam="2">  1       -2 0.68090851E-01 0.11623894E+04</pdfrwt>
<totfact> 0.10205632E+00</totfact>
</mgrwt>
</event>
<event>
 4    1  0.8287789E-007  0.7864046E+03  0.7818608E-02  0.9741002E-01
          2   -1    0    0  501    0  0.00000000000E+00  0.00000000000E+00  0.14777841234E+04  0.14777841234E+04  0.25500000000E-02 0. -1.
         -2   -1    0    0    0  501 -0.00000000000E+00 -0.00000000000E+00 -0.10375829363E+04  0.10375829363E+04  0.25500000000E-02 0.  1.
    8880023    1    1    2    0    0 -0.39020302452E+03 -0.17989864716E+03  0.13130554568E+04  0.15305380630E+04  0.65864270000E+03 0. -1.
    8880022    1    1    2    0    0  0.39020302452E+03  0.17989864716E+03 -0.87285426962E+03  0.98482899663E+03  0.15294330000E+03 0.  0.
<mgrwt>
<rscale>  0 0.68627152E+03</rscale>
<asrwt>0</asrwt>
<pdfrwt beam="1">  1        2 0.22735140E+00 0.78640456E+03</pdfrwt>
<pdfrwt beam="2">  1       -2 0.15962814E+00 0.78640456E+03</pdfrwt>
<totfact> 0.33824326E+00</totfact>
</mgrwt>
</event>
<event>
 4    1  0.8287789E-007  0.7122770E+03  0.7818608E-02  0.9949641E-01
          2   -1    0    0  501    0  0.00000000000E+00  0.00000000000E+00  0.12171523487E+04  0.12171523487E+04  0.25500000000E-02 0. -1.
         -2   -1    0    0    0  501 -0.00000000000E+00 -0.00000000000E+00 -0.71037481020E+03  0.71037481020E+03  0.25500000000E-02 0.  1.
    8880023    1    1    2    0    0 -0.26924437011E+03 -0.32183571521E+02  0.10691777672E+04  0.12847099351E+04  0.65864270000E+03 0.  0.
    8880022    1    1    2    0    0  0.26924437011E+03  0.32183571521E+02 -0.56240022866E+03  0.64281722389E+03  0.15294330000E+03 0.  0.
<mgrwt>
<rscale>  0 0.57914638E+03</rscale>
<asrwt>0</asrwt>
<pdfrwt beam="1">  1        2 0.18725421E+00 0.71227700E+03</pdfrwt>
<pdfrwt beam="2">  1       -2 0.10928843E+00 0.71227700E+03</pdfrwt>
<totfact> 0.12650973E+01</totfact>
</mgrwt>
</event>
<event>
 4    1  0.8287789E-007  0.7758105E+03  0.7818608E-02  0.9765772E-01
         -2   -1    0    0    0  501 -0.00000000000E+00  0.00000000000E+00  0.12354952140E+04  0.12354952140E+04  0.25500000000E-02 0.  1.
          2   -1    0    0  501    0  0.00000000000E+00 -0.00000000000E+00 -0.43062245517E+03  0.43062245518E+03  0.25500000000E-02 0. -1.
    8880023    1    1    2    0    0  0.14883568607E+03 -0.38199431787E+03  0.92990921767E+03  0.12110380174E+04  0.65864270000E+03 0.  0.
    8880022    1    1    2    0    0 -0.14883568607E+03  0.38199431787E+03 -0.12503645887E+03  0.45507965170E+03  0.15294330000E+03 0.  0.
<mgrwt>
<rscale>  0 0.67232220E+03</rscale>
<asrwt>0</asrwt>
<pdfrwt beam="1">  1        2 0.66249608E-01 0.77581050E+03</pdfrwt>
<pdfrwt beam="2">  1       -2 0.19007619E+00 0.77581050E+03</pdfrwt>
<totfact> 0.11490051E+01</totfact>
</mgrwt>
</event>
<event>
 4    1  0.8287789E-007  0.8876117E+03  0.7818608E-02  0.9546219E-01
          2   -1    0    0  501    0  0.00000000000E+00  0.00000000000E+00  0.39202499530E+04  0.39202499530E+04  0.25500000000E-02 0. -1.
         -2   -1    0    0    0  501 -0.00000000000E+00 -0.00000000000E+00 -0.21186494117E+03  0.21186494118E+03  0.25500000000E-02 0.  1.
    8880023    1    1    2    0    0 -0.14009920596E+03  0.57828765153E+03  0.32405306918E+04  0.33598949040E+04  0.65864270000E+03 0.  0.
    8880022    1    1    2    0    0  0.14009920596E+03 -0.57828765153E+03  0.46785432009E+03  0.77221999020E+03  0.15294330000E+03 0.  0.
<mgrwt>
<rscale>  0 0.80960410E+03</rscale>
<asrwt>0</asrwt>
<pdfrwt beam="1">  1        2 0.60311537E+00 0.88761174E+03</pdfrwt>
<pdfrwt beam="2">  1       -2 0.32594607E-01 0.88761174E+03</pdfrwt>
<totfact> 0.37259649E+00</totfact>
</mgrwt>
</event>
<event>
 4    1  0.8287789E-007  0.9150783E+03  0.7818608E-02  0.9502247E-01
         -2   -1    0    0    0  501 -0.00000000000E+00  0.00000000000E+00  0.13377561755E+04  0.13377561755E+04  0.25500000000E-02 0.  1.
          2   -1    0    0  501    0  0.00000000000E+00 -0.00000000000E+00 -0.65015348508E+03  0.65015348508E+03  0.25500000000E-02 0. -1.
    8880023    1    1    2    0    0 -0.55217323989E+03 -0.31410641343E+03  0.91692485302E+03  0.12954225250E+04  0.65864270000E+03 0.  0.
    8880022    1    1    2    0    0  0.55217323989E+03  0.31410641343E+03 -0.22932216255E+03  0.69248713567E+03  0.15294330000E+03 0.  0.
<mgrwt>
<rscale>  0 0.84118360E+03</rscale>
<asrwt>0</asrwt>
<pdfrwt beam="1">  1        2 0.10002361E+00 0.91507832E+03</pdfrwt>
<pdfrwt beam="2">  1       -2 0.20580864E+00 0.91507832E+03</pdfrwt>
<totfact> 0.54923498E+00</totfact>
</mgrwt>
</event>
<event>
 4    1  0.8287789E-007  0.1670406E+04  0.7818608E-02  0.8797828E-01
         -2   -1    0    0    0  501 -0.00000000000E+00  0.00000000000E+00  0.16181664041E+04  0.16181664041E+04  0.25500000000E-02 0.  1.
          2   -1    0    0  501    0  0.00000000000E+00 -0.00000000000E+00 -0.27983846265E+04  0.27983846265E+04  0.25500000000E-02 0. -1.
    8880023    1    1    2    0    0 -0.10602141512E+04  0.11101308531E+04 -0.20509419759E+04  0.26451120491E+04  0.65864270000E+03 0.  0.
    8880022    1    1    2    0    0  0.10602141512E+04 -0.11101308531E+04  0.87072375351E+03  0.17714389816E+04  0.15294330000E+03 0.  0.
<mgrwt>
<rscale>  0 0.16375133E+04</rscale>
<asrwt>0</asrwt>
<pdfrwt beam="1">  1        2 0.43052071E+00 0.16704056E+04</pdfrwt>
<pdfrwt beam="2">  1       -2 0.24894868E+00 0.16704056E+04</pdfrwt>
<totfact> 0.13907409E-01</totfact>
</mgrwt>
</event>
<event>
 4    1  0.8287789E-007  0.7556164E+03  0.7818608E-02  0.9816591E-01
         -2   -1    0    0    0  501 -0.00000000000E+00  0.00000000000E+00  0.65211462582E+03  0.65211462583E+03  0.25500000000E-02 0.  1.
          2   -1    0    0  501    0  0.00000000000E+00 -0.00000000000E+00 -0.54368328975E+03  0.54368328976E+03  0.25500000000E-02 0. -1.
    8880023    1    1    2    0    0 -0.22699940303E+03  0.29260411194E+03 -0.66637328254E+02  0.75854903275E+03  0.65864270000E+03 0.  1.
    8880022    1    1    2    0    0  0.22699940303E+03 -0.29260411194E+03  0.17506866432E+03  0.43724888284E+03  0.15294330000E+03 0.  0.
<mgrwt>
<rscale>  0 0.64479713E+03</rscale>
<asrwt>0</asrwt>
<pdfrwt beam="1">  1        2 0.83643583E-01 0.75561637E+03</pdfrwt>
<pdfrwt beam="2">  1       -2 0.10032533E+00 0.75561637E+03</pdfrwt>
<totfact> 0.46277715E+01</totfact>
</mgrwt>
</event>
<event>
 4    1  0.8287789E-007  0.8600257E+03  0.7818608E-02  0.9593518E-01
          2   -1    0    0  501    0  0.00000000000E+00  0.00000000000E+00  0.15670604269E+04  0.15670604269E+04  0.25500000000E-02 0. -1.
         -2   -1    0    0    0  501 -0.00000000000E+00 -0.00000000000E+00 -0.39882749715E+03  0.39882749716E+03  0.25500000000E-02 0.  1.
    8880023    1    1    2    0    0  0.54827617857E+03 -0.72299438632E+02  0.10874747435E+04  0.13864506846E+04  0.65864270000E+03 0.  0.
    8880022    1    1    2    0    0 -0.54827617857E+03  0.72299438632E+02  0.80758186244E+02  0.57943723946E+03  0.15294330000E+03 0.  0.
<mgrwt>
<rscale>  0 0.77726708E+03</rscale>
<asrwt>0</asrwt>
<pdfrwt beam="1">  1        2 0.24108622E+00 0.86002569E+03</pdfrwt>
<pdfrwt beam="2">  1       -2 0.61358075E-01 0.86002569E+03</pdfrwt>
<totfact> 0.29090671E+01</totfact>
</mgrwt>
</event>
<event>
 4    1  0.8287789E-007  0.7123941E+03  0.7818608E-02  0.9949216E-01
          2   -1    0    0  501    0  0.00000000000E+00  0.00000000000E+00  0.33493926278E+04  0.33493926278E+04  0.25500000000E-02 0. -1.
         -2   -1    0    0    0  501 -0.00000000000E+00 -0.00000000000E+00 -0.81496997567E+02  0.81496997606E+02  0.25500000000E-02 0.  1.
    8880023    1    1    2    0    0 -0.26547644202E+03 -0.56722044273E+02  0.25637003979E+04  0.26608391661E+04  0.65864270000E+03 0. -1.
    8880022    1    1    2    0    0  0.26547644202E+03  0.56722044273E+02  0.70419523237E+03  0.77005045931E+03  0.15294330000E+03 0.  1.
<mgrwt>
<rscale>  0 0.57934231E+03</rscale>
<asrwt>0</asrwt>
<pdfrwt beam="1">  1        2 0.51529101E+00 0.71239409E+03</pdfrwt>
<pdfrwt beam="2">  1       -2 0.12538004E-01 0.71239409E+03</pdfrwt>
<totfact> 0.52512395E+01</totfact>
</mgrwt>
</event>
<event>
 4    1  0.8287789E-007  0.6986052E+03  0.7818608E-02  0.1000304E+00
          2   -1    0    0  501    0  0.00000000000E+00  0.00000000000E+00  0.14791528553E+04  0.14791528553E+04  0.25500000000E-02 0. -1.
         -2   -1    0    0    0  501 -0.00000000000E+00 -0.00000000000E+00 -0.29337271992E+03  0.29337271993E+03  0.25500000000E-02 0.  1.
    8880023    1    1    2    0    0  0.21738864392E+03  0.83553783935E+02  0.12964761321E+04  0.14727184472E+04  0.65864270000E+03 0.  0.
    8880022    1    1    2    0    0 -0.21738864392E+03 -0.83553783935E+02 -0.11069599673E+03  0.29980712804E+03  0.15294330000E+03 0.  0.
<mgrwt>
<rscale>  0 0.55517266E+03</rscale>
<asrwt>0</asrwt>
<pdfrwt beam="1">  1        2 0.22756198E+00 0.69860523E+03</pdfrwt>
<pdfrwt beam="2">  1       -2 0.45134265E-01 0.69860523E+03</pdfrwt>
<totfact> 0.62295724E+01</totfact>
</mgrwt>
</event>
<event>
 4    1  0.8287789E-007  0.1342242E+04  0.7818608E-02  0.9029914E-01
         -2   -1    0    0    0  501 -0.00000000000E+00  0.00000000000E+00  0.98532007782E+03  0.98532007782E+03  0.25500000000E-02 0.  1.
          2   -1    0    0  501    0  0.00000000000E+00 -0.00000000000E+00 -0.21923807926E+04  0.21923807926E+04  0.25500000000E-02 0. -1.
    8880023    1    1    2    0    0  0.11672217762E+04 -0.73455368471E+02 -0.14473989943E+04  0.19739747772E+04  0.65864270000E+03 0. -1.
    8880022    1    1    2    0    0 -0.11672217762E+04  0.73455368471E+02  0.24033827953E+03  0.12037260932E+04  0.15294330000E+03 0.  0.
<mgrwt>
<rscale>  0 0.12995605E+04</rscale>
<asrwt>0</asrwt>
<pdfrwt beam="1">  1        2 0.33728935E+00 0.13422416E+04</pdfrwt>
<pdfrwt beam="2">  1       -2 0.15158770E+00 0.13422416E+04</pdfrwt>
<totfact> 0.14573287E+00</totfact>
</mgrwt>
</event>
<event>
 4    1  0.8287789E-007  0.7852203E+03  0.7818608E-02  0.9743714E-01
          2   -1    0    0  501    0  0.00000000000E+00  0.00000000000E+00  0.11723807997E+04  0.11723807997E+04  0.25500000000E-02 0. -1.
         -2   -1    0    0    0  501 -0.00000000000E+00 -0.00000000000E+00 -0.53421912992E+03  0.53421912993E+03  0.25500000000E-02 0.  1.
    8880023    1    1    2    0    0 -0.42601227887E+03 -0.35697107715E+02  0.89042047530E+03  0.11871897803E+04  0.65864270000E+03 0.  0.
    8880022    1    1    2    0    0  0.42601227887E+03  0.35697107715E+02 -0.25225880555E+03  0.51941014934E+03  0.15294330000E+03 0.  0.
<mgrwt>
<rscale>  0 0.68472660E+03</rscale>
<asrwt>0</asrwt>
<pdfrwt beam="1">  1        2 0.18036628E+00 0.78522032E+03</pdfrwt>
<pdfrwt beam="2">  1       -2 0.82187558E-01 0.78522032E+03</pdfrwt>
<totfact> 0.25972228E+01</totfact>
</mgrwt>
</event>
<event>
 4    1  0.8287789E-007  0.1137761E+04  0.7818608E-02  0.9220135E-01
         -2   -1    0    0    0  501 -0.00000000000E+00  0.00000000000E+00  0.27587323998E+04  0.27587323998E+04  0.25500000000E-02 0.  1.
          2   -1    0    0  501    0  0.00000000000E+00 -0.00000000000E+00 -0.17152682759E+04  0.17152682759E+04  0.25500000000E-02 0. -1.
    8880023    1    1    2    0    0  0.92462111492E+03  0.75925461208E+02  0.24963514704E+04  0.27434047736E+04  0.65864270000E+03 0.  0.
    8880022    1    1    2    0    0 -0.92462111492E+03 -0.75925461208E+02 -0.14528873465E+04  0.17305959021E+04  0.15294330000E+03 0.  0.
<mgrwt>
<rscale>  0 0.10847999E+04</rscale>
<asrwt>0</asrwt>
<pdfrwt beam="1">  1        2 0.26388743E+00 0.11377606E+04</pdfrwt>
<pdfrwt beam="2">  1       -2 0.42442037E+00 0.11377606E+04</pdfrwt>
<totfact> 0.49033783E-02</totfact>
</mgrwt>
</event>
<event>
 4    1  0.8287789E-007  0.1215006E+04  0.7818608E-02  0.9142672E-01
         -2   -1    0    0    0  501 -0.00000000000E+00  0.00000000000E+00  0.82060157780E+03  0.82060157781E+03  0.25500000000E-02 0.  1.
          2   -1    0    0  501    0  0.00000000000E+00 -0.00000000000E+00 -0.20123805432E+04  0.20123805432E+04  0.25500000000E-02 0. -1.
    8880023    1    1    2    0    0  0.34989723547E+03 -0.95916662198E+03 -0.13183775201E+04  0.17928631224E+04  0.65864270000E+03 0. -1.
    8880022    1    1    2    0    0 -0.34989723547E+03  0.95916662198E+03  0.12659855468E+03  0.10401189986E+04  0.15294330000E+03 0.  0.
<mgrwt>
<rscale>  0 0.11665255E+04</rscale>
<asrwt>0</asrwt>
<pdfrwt beam="1">  1        2 0.30959701E+00 0.12150057E+04</pdfrwt>
<pdfrwt beam="2">  1       -2 0.12624640E+00 0.12150057E+04</pdfrwt>
<totfact> 0.29957741E+00</totfact>
</mgrwt>
</event>
<event>
 4    1  0.8287789E-007  0.7311748E+03  0.7818608E-02  0.9886443E-01
          2   -1    0    0  501    0  0.00000000000E+00  0.00000000000E+00  0.19697243890E+04  0.19697243890E+04  0.25500000000E-02 0. -1.
         -2   -1    0    0    0  501 -0.00000000000E+00 -0.00000000000E+00 -0.17826363102E+03  0.17826363104E+03  0.25500000000E-02 0.  1.
    8880023    1    1    2    0    0 -0.30431959333E+03 -0.90531609411E+02  0.15696048400E+04  0.17315530449E+04  0.65864270000E+03 0.  0.
    8880022    1    1    2    0    0  0.30431959333E+03  0.90531609411E+02  0.22185591798E+03  0.41643497517E+03  0.15294330000E+03 0.  0.
<mgrwt>
<rscale>  0 0.60922856E+03</rscale>
<asrwt>0</asrwt>
<pdfrwt beam="1">  1        2 0.30303456E+00 0.73117480E+03</pdfrwt>
<pdfrwt beam="2">  1       -2 0.27425171E-01 0.73117480E+03</pdfrwt>
<totfact> 0.86469616E+01</totfact>
</mgrwt>
</event>
<event>
 4    1  0.8287789E-007  0.9864566E+03  0.7818608E-02  0.9399495E-01
         -2   -1    0    0    0  501 -0.00000000000E+00  0.00000000000E+00  0.37915200681E+03  0.37915200682E+03  0.25500000000E-02 0.  1.
          2   -1    0    0  501    0  0.00000000000E+00 -0.00000000000E+00 -0.35896778966E+04  0.35896778966E+04  0.25500000000E-02 0. -1.
    8880023    1    1    2    0    0  0.63227373885E+03  0.37351876699E+03 -0.40774199691E+03  0.10674034347E+04  0.65864270000E+03 0.  0.
    8880022    1    1    2    0    0 -0.63227373885E+03 -0.37351876699E+03 -0.28027838929E+04  0.29014264687E+04  0.15294330000E+03 0.  0.
<mgrwt>
<rscale>  0 0.92117251E+03</rscale>
<asrwt>0</asrwt>
<pdfrwt beam="1">  1        2 0.55225812E+00 0.98645657E+03</pdfrwt>
<pdfrwt beam="2">  1       -2 0.58331080E-01 0.98645657E+03</pdfrwt>
<totfact> 0.20117384E+00</totfact>
</mgrwt>
</event>
<event>
 4    1  0.8287789E-007  0.6744253E+03  0.7818608E-02  0.1012671E+00
          2   -1    0    0  501    0  0.00000000000E+00  0.00000000000E+00  0.74608987099E+03  0.74608987100E+03  0.25500000000E-02 0. -1.
         -2   -1    0    0    0  501 -0.00000000000E+00 -0.00000000000E+00 -0.49366953156E+03  0.49366953157E+03  0.25500000000E-02 0.  1.
    8880023    1    1    2    0    0 -0.14357703636E+03 -0.20613699159E+02  0.55332987108E+03  0.87236657573E+03  0.65864270000E+03 0.  0.
    8880022    1    1    2    0    0  0.14357703636E+03  0.20613699159E+02 -0.30090953165E+03  0.36739282684E+03  0.15294330000E+03 0.  1.
<mgrwt>
<rscale>  0 0.50426762E+03</rscale>
<asrwt>0</asrwt>
<pdfrwt beam="1">  1        2 0.11478306E+00 0.67442531E+03</pdfrwt>
<pdfrwt beam="2">  1       -2 0.75949159E-01 0.67442531E+03</pdfrwt>
<totfact> 0.59740143E+01</totfact>
</mgrwt>
</event>
<event>
 4    1  0.8287789E-007  0.8770143E+03  0.7818608E-02  0.9563987E-01
          2   -1    0    0  501    0  0.00000000000E+00  0.00000000000E+00  0.13220571726E+04  0.13220571726E+04  0.25500000000E-02 0. -1.
         -2   -1    0    0    0  501 -0.00000000000E+00 -0.00000000000E+00 -0.50197145558E+03  0.50197145558E+03  0.25500000000E-02 0.  1.
    8880023    1    1    2    0    0  0.57875886810E+03  0.19544251819E+02  0.85400509380E+03  0.12241236505E+04  0.65864270000E+03 0. -1.
    8880022    1    1    2    0    0 -0.57875886810E+03 -0.19544251819E+02 -0.33919376737E+02  0.59990497774E+03  0.15294330000E+03 0.  0.
<mgrwt>
<rscale>  0 0.79726331E+03</rscale>
<asrwt>0</asrwt>
<pdfrwt beam="1">  1        2 0.20339341E+00 0.87701426E+03</pdfrwt>
<pdfrwt beam="2">  1       -2 0.77226377E-01 0.87701426E+03</pdfrwt>
<totfact> 0.24189080E+01</totfact>
</mgrwt>
</event>
<event>
 4    1  0.8287789E-007  0.8360583E+03  0.7818608E-02  0.9637658E-01
         -2   -1    0    0    0  501 -0.00000000000E+00  0.00000000000E+00  0.76970918779E+03  0.76970918780E+03  0.25500000000E-02 0.  1.
          2   -1    0    0  501    0  0.00000000000E+00 -0.00000000000E+00 -0.17155141291E+04  0.17155141291E+04  0.25500000000E-02 0. -1.
    8880023    1    1    2    0    0 -0.46544168376E+03  0.22033463987E+03 -0.14975727688E+04  0.17151436437E+04  0.65864270000E+03 0.  0.
    8880022    1    1    2    0    0  0.46544168376E+03 -0.22033463987E+03  0.55176782751E+03  0.77007967315E+03  0.15294330000E+03 0.  0.
<mgrwt>
<rscale>  0 0.74853095E+03</rscale>
<asrwt>0</asrwt>
<pdfrwt beam="1">  1        2 0.26392525E+00 0.83605832E+03</pdfrwt>
<pdfrwt beam="2">  1       -2 0.11841680E+00 0.83605832E+03</pdfrwt>
<totfact> 0.53640068E+00</totfact>
</mgrwt>
</event>
<event>
 4    1  0.8287789E-007  0.7781833E+03  0.7818608E-02  0.9760122E-01
          2   -1    0    0  501    0  0.00000000000E+00  0.00000000000E+00  0.69752526623E+03  0.69752526623E+03  0.25500000000E-02 0. -1.
         -2   -1    0    0    0  501 -0.00000000000E+00 -0.00000000000E+00 -0.74054592047E+03  0.74054592047E+03  0.25500000000E-02 0.  1.
    8880023    1    1    2    0    0 -0.20829273523E+03  0.35829202848E+03 -0.39550276865E+03  0.87292135241E+03  0.65864270000E+03 0.  0.
    8880022    1    1    2    0    0  0.20829273523E+03 -0.35829202848E+03  0.35248211441E+03  0.56514983430E+03  0.15294330000E+03 0.  0.
<mgrwt>
<rscale>  0 0.67547253E+03</rscale>
<asrwt>0</asrwt>
<pdfrwt beam="1">  1        2 0.10731158E+00 0.77818330E+03</pdfrwt>
<pdfrwt beam="2">  1       -2 0.11393014E+00 0.77818330E+03</pdfrwt>
<totfact> 0.25104126E+01</totfact>
</mgrwt>
</event>
<event>
 4    1  0.8287789E-007  0.6930509E+03  0.7818608E-02  0.1002735E+00
         -2   -1    0    0    0  501 -0.00000000000E+00  0.00000000000E+00  0.34192903347E+03  0.34192903348E+03  0.25500000000E-02 0.  1.
          2   -1    0    0  501    0  0.00000000000E+00 -0.00000000000E+00 -0.67368318761E+03  0.67368318762E+03  0.25500000000E-02 0. -1.
    8880023    1    1    2    0    0  0.18243243272E+03  0.11501225697E+03 -0.27227507387E+03  0.74461623262E+03  0.65864270000E+03 0. -1.
    8880022    1    1    2    0    0 -0.18243243272E+03 -0.11501225697E+03 -0.59479080272E+02  0.27099598847E+03  0.15294330000E+03 0. -1.
<mgrwt>
<rscale>  0 0.54467112E+03</rscale>
<asrwt>0</asrwt>
<pdfrwt beam="1">  1        2 0.10364357E+00 0.69305095E+03</pdfrwt>
<pdfrwt beam="2">  1       -2 0.52604467E-01 0.69305095E+03</pdfrwt>
<totfact> 0.14864038E+02</totfact>
</mgrwt>
</event>
<event>
 4    1  0.8287789E-007  0.8772216E+03  0.7818608E-02  0.9563635E-01
          2   -1    0    0  501    0  0.00000000000E+00  0.00000000000E+00  0.11582603842E+04  0.11582603842E+04  0.25500000000E-02 0. -1.
         -2   -1    0    0    0  501 -0.00000000000E+00 -0.00000000000E+00 -0.66365702100E+03  0.66365702101E+03  0.25500000000E-02 0.  1.
    8880023    1    1    2    0    0 -0.57649162626E+03  0.58008117591E+02  0.76551800847E+03  0.11642746946E+04  0.65864270000E+03 0. -1.
    8880022    1    1    2    0    0  0.57649162626E+03 -0.58008117591E+02 -0.27091464525E+03  0.65764271066E+03  0.15294330000E+03 0.  0.
<mgrwt>
<rscale>  0 0.79750569E+03</rscale>
<asrwt>0</asrwt>
<pdfrwt beam="1">  1        2 0.17819391E+00 0.87722160E+03</pdfrwt>
<pdfrwt beam="2">  1       -2 0.10210108E+00 0.87722160E+03</pdfrwt>
<totfact> 0.15856603E+01</totfact>
</mgrwt>
</event>
<event>
 4    1  0.8287789E-007  0.8965618E+03  0.7818608E-02  0.9531574E-01
         -2   -1    0    0    0  501 -0.00000000000E+00  0.00000000000E+00  0.11905212428E+04  0.11905212428E+04  0.25500000000E-02 0.  1.
          2   -1    0    0  501    0  0.00000000000E+00 -0.00000000000E+00 -0.20318940367E+04  0.20318940367E+04  0.25500000000E-02 0. -1.
    8880023    1    1    2    0    0 -0.51650719159E+03 -0.32129924955E+03 -0.18379056317E+04  0.20449254764E+04  0.65864270000E+03 0.  0.
    8880022    1    1    2    0    0  0.51650719159E+03  0.32129924955E+03  0.99653283772E+03  0.11774898031E+04  0.15294330000E+03 0.  1.
<mgrwt>
<rscale>  0 0.81995515E+03</rscale>
<asrwt>0</asrwt>
<pdfrwt beam="1">  1        2 0.31259908E+00 0.89656182E+03</pdfrwt>
<pdfrwt beam="2">  1       -2 0.18315711E+00 0.89656182E+03</pdfrwt>
<totfact> 0.11223793E+00</totfact>
</mgrwt>
</event>
<event>
 4    1  0.8287789E-007  0.7482764E+03  0.7818608E-02  0.9836463E-01
          2   -1    0    0  501    0  0.00000000000E+00  0.00000000000E+00  0.11876348137E+04  0.11876348137E+04  0.25500000000E-02 0. -1.
         -2   -1    0    0    0  501 -0.00000000000E+00 -0.00000000000E+00 -0.56751301138E+03  0.56751301138E+03  0.25500000000E-02 0.  1.
    8880023    1    1    2    0    0  0.28589025456E+03 -0.21065176887E+03  0.97587410588E+03  0.12297348829E+04  0.65864270000E+03 0. -1.
    8880022    1    1    2    0    0 -0.28589025456E+03  0.21065176887E+03 -0.35575230353E+03  0.52541294223E+03  0.15294330000E+03 0.  0.
<mgrwt>
<rscale>  0 0.63441925E+03</rscale>
<asrwt>0</asrwt>
<pdfrwt beam="1">  1        2 0.18271305E+00 0.74827643E+03</pdfrwt>
<pdfrwt beam="2">  1       -2 0.87309695E-01 0.74827643E+03</pdfrwt>
<totfact> 0.22249948E+01</totfact>
</mgrwt>
</event>
<event>
 4    1  0.8287789E-007  0.1474141E+04  0.7818608E-02  0.8928115E-01
         -2   -1    0    0    0  501 -0.00000000000E+00  0.00000000000E+00  0.74417835997E+03  0.74417835997E+03  0.25500000000E-02 0.  1.
          2   -1    0    0  501    0  0.00000000000E+00 -0.00000000000E+00 -0.26373464215E+04  0.26373464215E+04  0.25500000000E-02 0. -1.
    8880023    1    1    2    0    0 -0.52405368882E+03  0.12102268881E+04 -0.98190132123E+03  0.17712204268E+04  0.65864270000E+03 0.  1.
    8880022    1    1    2    0    0  0.52405368882E+03 -0.12102268881E+04 -0.91126674027E+03  0.16103043546E+04  0.15294330000E+03 0. -1.
<mgrwt>
<rscale>  0 0.14360704E+04</rscale>
<asrwt>0</asrwt>
<pdfrwt beam="1">  1        2 0.40574560E+00 0.14741410E+04</pdfrwt>
<pdfrwt beam="2">  1       -2 0.11448898E+00 0.14741410E+04</pdfrwt>
<totfact> 0.16447184E+00</totfact>
</mgrwt>
</event>
<event>
 4    1  0.8287789E-007  0.7170365E+03  0.7818608E-02  0.9932744E-01
          2   -1    0    0  501    0  0.00000000000E+00  0.00000000000E+00  0.12256274518E+04  0.12256274518E+04  0.25500000000E-02 0. -1.
         -2   -1    0    0    0  501 -0.00000000000E+00 -0.00000000000E+00 -0.30800712145E+03  0.30800712146E+03  0.25500000000E-02 0.  1.
    8880023    1    1    2    0    0  0.11498862025E+03 -0.25905350062E+03  0.97112959036E+03  0.12071594702E+04  0.65864270000E+03 0. -1.
    8880022    1    1    2    0    0 -0.11498862025E+03  0.25905350062E+03 -0.53509260037E+02  0.32647510302E+03  0.15294330000E+03 0.  0.
<mgrwt>
<rscale>  0 0.58700282E+03</rscale>
<asrwt>0</asrwt>
<pdfrwt beam="1">  1        2 0.18855807E+00 0.71703647E+03</pdfrwt>
<pdfrwt beam="2">  1       -2 0.47385711E-01 0.71703647E+03</pdfrwt>
<totfact> 0.78679026E+01</totfact>
</mgrwt>
</event>
<event>
 4    1  0.8924330E-007  0.8082043E+03  0.7818608E-02  0.9693330E-01
         -2   -1    0    0    0  501 -0.00000000000E+00  0.00000000000E+00  0.71789396234E+03  0.71789396235E+03  0.25500000000E-02 0.  1.
          2   -1    0    0  501    0  0.00000000000E+00 -0.00000000000E+00 -0.25242886271E+04  0.25242886271E+04  0.25500000000E-02 0. -1.
    8880023    1    1    2    0    0 -0.43760848658E+03  0.16698148011E+03 -0.23638438963E+04  0.24981897796E+04  0.65864270000E+03 0. -1.
    8880022    1    1    2    0    0  0.43760848658E+03 -0.16698148011E+03  0.55744923163E+03  0.74399280983E+03  0.15294330000E+03 0.  0.
<mgrwt>
<rscale>  0 0.71415341E+03</rscale>
<asrwt>0</asrwt>
<pdfrwt beam="1">  1        2 0.38835209E+00 0.80820431E+03</pdfrwt>
<pdfrwt beam="2">  1       -2 0.11044523E+00 0.80820431E+03</pdfrwt>
<totfact> 0.22800745E+00</totfact>
</mgrwt>
</event>
<event>
 4    1  0.8287789E-007  0.8629112E+03  0.7818608E-02  0.9588406E-01
         -2   -1    0    0    0  501 -0.00000000000E+00  0.00000000000E+00  0.74952676449E+03  0.74952676450E+03  0.25500000000E-02 0.  1.
          2   -1    0    0  501    0  0.00000000000E+00 -0.00000000000E+00 -0.96066715533E+03  0.96066715533E+03  0.25500000000E-02 0. -1.
    8880023    1    1    2    0    0  0.54729555042E+03 -0.10617456589E+03 -0.56590295160E+03  0.10319214189E+04  0.65864270000E+03 0.  0.
    8880022    1    1    2    0    0 -0.54729555042E+03  0.10617456589E+03  0.35476256076E+03  0.67827250090E+03  0.15294330000E+03 0.  0.
<mgrwt>
<rscale>  0 0.78068332E+03</rscale>
<asrwt>0</asrwt>
<pdfrwt beam="1">  1        2 0.14779495E+00 0.86291116E+03</pdfrwt>
<pdfrwt beam="2">  1       -2 0.11531181E+00 0.86291116E+03</pdfrwt>
<totfact> 0.15724422E+01</totfact>
</mgrwt>
</event>
<event>
 4    1  0.8287789E-007  0.7432450E+03  0.7818608E-02  0.9850593E-01
          2   -1    0    0  501    0  0.00000000000E+00  0.00000000000E+00  0.24312302486E+04  0.24312302486E+04  0.25500000000E-02 0. -1.
         -2   -1    0    0    0  501 -0.00000000000E+00 -0.00000000000E+00 -0.29516034639E+03  0.29516034640E+03  0.25500000000E-02 0.  1.
    8880023    1    1    2    0    0 -0.11977762536E+03 -0.32288738514E+03  0.22193316015E+04  0.23404798454E+04  0.65864270000E+03 0. -1.
    8880022    1    1    2    0    0  0.11977762536E+03  0.32288738514E+03 -0.83261699356E+02  0.38591074954E+03  0.15294330000E+03 0.  0.
<mgrwt>
<rscale>  0 0.62716668E+03</rscale>
<asrwt>0</asrwt>
<pdfrwt beam="1">  1        2 0.37403544E+00 0.74324501E+03</pdfrwt>
<pdfrwt beam="2">  1       -2 0.45409282E-01 0.74324501E+03</pdfrwt>
<totfact> 0.18342187E+01</totfact>
</mgrwt>
</event>
<event>
 4    1  0.8287789E-007  0.6590291E+03  0.7818608E-02  0.1025174E+00
         -2   -1    0    0    0  501 -0.00000000000E+00  0.00000000000E+00  0.24542283117E+03  0.24542283118E+03  0.25500000000E-02 0.  1.
          2   -1    0    0  501    0  0.00000000000E+00 -0.00000000000E+00 -0.16248132253E+04  0.16248132253E+04  0.25500000000E-02 0. -1.
    8880023    1    1    2    0    0  0.47537136264E+01  0.22058856645E+02 -0.15228468782E+04  0.16593317968E+04  0.65864270000E+03 0. -1.
    8880022    1    1    2    0    0 -0.47537136264E+01 -0.22058856645E+02  0.14345648407E+03  0.21090425976E+03  0.15294330000E+03 0.  0.
<mgrwt>
<rscale>  0 0.45864864E+03</rscale>
<asrwt>0</asrwt>
<pdfrwt beam="1">  1        2 0.24997126E+00 0.65902913E+03</pdfrwt>
<pdfrwt beam="2">  1       -2 0.37757360E-01 0.65902913E+03</pdfrwt>
<totfact> 0.73756065E+01</totfact>
</mgrwt>
</event>
<event>
 4    1  0.8287789E-007  0.8233551E+03  0.7818608E-02  0.9662402E-01
         -2   -1    0    0    0  501 -0.00000000000E+00  0.00000000000E+00  0.25589205573E+03  0.25589205575E+03  0.25500000000E-02 0.  1.
          2   -1    0    0  501    0  0.00000000000E+00 -0.00000000000E+00 -0.25671499157E+04  0.25671499157E+04  0.25500000000E-02 0. -1.
    8880023    1    1    2    0    0 -0.58499120484E+01  0.49403366679E+03 -0.21154263339E+04  0.22700093096E+04  0.65864270000E+03 0. -1.
    8880022    1    1    2    0    0  0.58499120484E+01 -0.49403366679E+03 -0.19583152604E+03  0.55303266178E+03  0.15294330000E+03 0.  0.
<mgrwt>
<rscale>  0 0.73300154E+03</rscale>
<asrwt>0</asrwt>
<pdfrwt beam="1">  1        2 0.39494612E+00 0.82335514E+03</pdfrwt>
<pdfrwt beam="2">  1       -2 0.39368010E-01 0.82335514E+03</pdfrwt>
<totfact> 0.20112200E+01</totfact>
</mgrwt>
</event>
<event>
 4    1  0.8287789E-007  0.1178256E+04  0.7818608E-02  0.9178554E-01
         -2   -1    0    0    0  501 -0.00000000000E+00  0.00000000000E+00  0.58898921111E+03  0.58898921111E+03  0.25500000000E-02 0.  1.
          2   -1    0    0  501    0  0.00000000000E+00 -0.00000000000E+00 -0.29150687488E+04  0.29150687488E+04  0.25500000000E-02 0. -1.
    8880023    1    1    2    0    0 -0.75246655343E+03  0.62311425291E+03 -0.22151030742E+04  0.25089777045E+04  0.65864270000E+03 0.  0.
    8880022    1    1    2    0    0  0.75246655343E+03 -0.62311425291E+03 -0.11097646350E+03  0.99508025539E+03  0.15294330000E+03 0.  0.
<mgrwt>
<rscale>  0 0.11277553E+04</rscale>
<asrwt>0</asrwt>
<pdfrwt beam="1">  1        2 0.44847211E+00 0.11782561E+04</pdfrwt>
<pdfrwt beam="2">  1       -2 0.90613726E-01 0.11782561E+04</pdfrwt>
<totfact> 0.20320484E+00</totfact>
</mgrwt>
</event>
<event>
 4    1  0.8287789E-007  0.6587846E+03  0.7818608E-02  0.1025438E+00
         -2   -1    0    0    0  501 -0.00000000000E+00  0.00000000000E+00  0.49370252350E+03  0.49370252351E+03  0.25500000000E-02 0.  1.
          2   -1    0    0  501    0  0.00000000000E+00 -0.00000000000E+00 -0.12574201197E+04  0.12574201197E+04  0.25500000000E-02 0. -1.
    8880023    1    1    2    0    0 -0.10149078133E+02  0.91602423730E+01 -0.11556217417E+04  0.13302100323E+04  0.65864270000E+03 0. -1.
    8880022    1    1    2    0    0  0.10149078133E+02 -0.91602423730E+01  0.39190414546E+03  0.42091261097E+03  0.15294330000E+03 0.  0.
<mgrwt>
<rscale>  0 0.45774356E+03</rscale>
<asrwt>0</asrwt>
<pdfrwt beam="1">  1        2 0.19344925E+00 0.65878458E+03</pdfrwt>
<pdfrwt beam="2">  1       -2 0.75954235E-01 0.65878458E+03</pdfrwt>
<totfact> 0.28010640E+01</totfact>
</mgrwt>
</event>
<event>
 4    1  0.8287789E-007  0.7155436E+03  0.7818608E-02  0.9937964E-01
         -2   -1    0    0    0  501 -0.00000000000E+00  0.00000000000E+00  0.20460336854E+04  0.20460336854E+04  0.25500000000E-02 0.  1.
          2   -1    0    0  501    0  0.00000000000E+00 -0.00000000000E+00 -0.59565391557E+03  0.59565391558E+03  0.25500000000E-02 0. -1.
    8880023    1    1    2    0    0  0.48270201465E+02 -0.27543129320E+03 -0.36171751164E+03  0.80177439103E+03  0.65864270000E+03 0. -1.
    8880022    1    1    2    0    0 -0.48270201465E+02  0.27543129320E+03  0.18120972814E+04  0.18399132099E+04  0.15294330000E+03 0.  0.
<mgrwt>
<rscale>  0 0.58456158E+03</rscale>
<asrwt>0</asrwt>
<pdfrwt beam="1">  1        2 0.91639066E-01 0.71554358E+03</pdfrwt>
<pdfrwt beam="2">  1       -2 0.31477441E+00 0.71554358E+03</pdfrwt>
<totfact> 0.13579485E+00</totfact>
</mgrwt>
</event>
<event>
 4    1  0.8287789E-007  0.7192703E+03  0.7818608E-02  0.9925063E-01
         -2   -1    0    0    0  501 -0.00000000000E+00  0.00000000000E+00  0.49130274789E+03  0.49130274790E+03  0.25500000000E-02 0.  1.
          2   -1    0    0  501    0  0.00000000000E+00 -0.00000000000E+00 -0.13772127817E+04  0.13772127818E+04  0.25500000000E-02 0. -1.
    8880023    1    1    2    0    0 -0.16499837352E+03  0.23730791248E+03 -0.12103061187E+04  0.14079029142E+04  0.65864270000E+03 0. -1.
    8880022    1    1    2    0    0  0.16499837352E+03 -0.23730791248E+03  0.32439608487E+03  0.46061261542E+03  0.15294330000E+03 0.  0.
<mgrwt>
<rscale>  0 0.59061859E+03</rscale>
<asrwt>0</asrwt>
<pdfrwt beam="1">  1        2 0.21187889E+00 0.71927027E+03</pdfrwt>
<pdfrwt beam="2">  1       -2 0.75585039E-01 0.71927027E+03</pdfrwt>
<totfact> 0.23998178E+01</totfact>
</mgrwt>
</event>
<event>
 4    1  0.8287789E-007  0.7503251E+03  0.7818608E-02  0.9830831E-01
          2   -1    0    0  501    0  0.00000000000E+00  0.00000000000E+00  0.69348154799E+03  0.69348154800E+03  0.25500000000E-02 0. -1.
         -2   -1    0    0    0  501 -0.00000000000E+00 -0.00000000000E+00 -0.79790942004E+03  0.79790942005E+03  0.25500000000E-02 0.  1.
    8880023    1    1    2    0    0 -0.33707414470E+03  0.12473415842E+03  0.40247472433E+03  0.85145387385E+03  0.65864270000E+03 0. -1.
    8880022    1    1    2    0    0  0.33707414470E+03 -0.12473415842E+03 -0.50690259638E+03  0.63993709420E+03  0.15294330000E+03 0.  0.
<mgrwt>
<rscale>  0 0.63733900E+03</rscale>
<asrwt>0</asrwt>
<pdfrwt beam="1">  1        2 0.10668947E+00 0.75032513E+03</pdfrwt>
<pdfrwt beam="2">  1       -2 0.12275530E+00 0.75032513E+03</pdfrwt>
<totfact> 0.21090118E+01</totfact>
</mgrwt>
</event>
<event>
 4    1  0.8287789E-007  0.8446801E+03  0.7818608E-02  0.9621418E-01
          2   -1    0    0  501    0  0.00000000000E+00  0.00000000000E+00  0.20477359021E+04  0.20477359021E+04  0.25500000000E-02 0. -1.
         -2   -1    0    0    0  501 -0.00000000000E+00 -0.00000000000E+00 -0.45358030241E+03  0.45358030242E+03  0.25500000000E-02 0.  1.
    8880023    1    1    2    0    0 -0.42093462227E+03 -0.32013784928E+03  0.17379395605E+04  0.19323349402E+04  0.65864270000E+03 0. -1.
    8880022    1    1    2    0    0  0.42093462227E+03  0.32013784928E+03 -0.14378396083E+03  0.56898126434E+03  0.15294330000E+03 0.  0.
<mgrwt>
<rscale>  0 0.75894675E+03</rscale>
<asrwt>0</asrwt>
<pdfrwt beam="1">  1        2 0.31503630E+00 0.84468006E+03</pdfrwt>
<pdfrwt beam="2">  1       -2 0.69781583E-01 0.84468006E+03</pdfrwt>
<totfact> 0.12027779E+01</totfact>
</mgrwt>
</event>
<event>
 4    1  0.8287789E-007  0.7070527E+03  0.7818608E-02  0.9969113E-01
          2   -1    0    0  501    0  0.00000000000E+00  0.00000000000E+00  0.13649740224E+04  0.13649740224E+04  0.25500000000E-02 0. -1.
         -2   -1    0    0    0  501 -0.00000000000E+00 -0.00000000000E+00 -0.18671343547E+03  0.18671343548E+03  0.25500000000E-02 0.  1.
    8880023    1    1    2    0    0  0.22160287039E+03  0.13040514803E+03  0.88488569940E+03  0.11326721688E+04  0.65864270000E+03 0.  1.
    8880022    1    1    2    0    0 -0.22160287039E+03 -0.13040514803E+03  0.29337488751E+03  0.41901528902E+03  0.15294330000E+03 0. -1.
<mgrwt>
<rscale>  0 0.57025585E+03</rscale>
<asrwt>0</asrwt>
<pdfrwt beam="1">  1        2 0.20999600E+00 0.70705271E+03</pdfrwt>
<pdfrwt beam="2">  1       -2 0.28725145E-01 0.70705271E+03</pdfrwt>
<totfact> 0.17133756E+02</totfact>
</mgrwt>
</event>
<event>
 4    1  0.8287789E-007  0.7832498E+03  0.7818608E-02  0.9748258E-01
         -2   -1    0    0    0  501 -0.00000000000E+00  0.00000000000E+00  0.32157661204E+03  0.32157661205E+03  0.25500000000E-02 0.  1.
          2   -1    0    0  501    0  0.00000000000E+00 -0.00000000000E+00 -0.18504532896E+04  0.18504532896E+04  0.25500000000E-02 0. -1.
    8880023    1    1    2    0    0 -0.34439824501E+03 -0.24710285648E+03 -0.15328726276E+04  0.17213885881E+04  0.65864270000E+03 0.  0.
    8880022    1    1    2    0    0  0.34439824501E+03  0.24710285648E+03  0.39959499470E+01  0.45064131355E+03  0.15294330000E+03 0.  0.
<mgrwt>
<rscale>  0 0.68214811E+03</rscale>
<asrwt>0</asrwt>
<pdfrwt beam="1">  1        2 0.28468512E+00 0.78324976E+03</pdfrwt>
<pdfrwt beam="2">  1       -2 0.49473326E-01 0.78324976E+03</pdfrwt>
<totfact> 0.32070740E+01</totfact>
</mgrwt>
</event>
<event>
 4    1  0.8287789E-007  0.6595799E+03  0.7818608E-02  0.1024591E+00
         -2   -1    0    0    0  501 -0.00000000000E+00  0.00000000000E+00  0.39988183301E+03  0.39988183302E+03  0.25500000000E-02 0.  1.
          2   -1    0    0  501    0  0.00000000000E+00 -0.00000000000E+00 -0.50619346772E+03  0.50619346772E+03  0.25500000000E-02 0. -1.
    8880023    1    1    2    0    0  0.35037213033E+02 -0.28072473643E+01 -0.23800624166E+03  0.70120800357E+03  0.65864270000E+03 0. -1.
    8880022    1    1    2    0    0 -0.35037213033E+02  0.28072473643E+01  0.13169460696E+03  0.20486729717E+03  0.15294330000E+03 0.  0.
<mgrwt>
<rscale>  0 0.46065663E+03</rscale>
<asrwt>0</asrwt>
<pdfrwt beam="1">  1        2 0.77875918E-01 0.65957994E+03</pdfrwt>
<pdfrwt beam="2">  1       -2 0.61520282E-01 0.65957994E+03</pdfrwt>
<totfact> 0.15127422E+02</totfact>
</mgrwt>
</event>
<event>
 4    1  0.8287789E-007  0.7313651E+03  0.7818608E-02  0.9885854E-01
          2   -1    0    0  501    0  0.00000000000E+00  0.00000000000E+00  0.13359955453E+04  0.13359955453E+04  0.25500000000E-02 0. -1.
         -2   -1    0    0    0  501 -0.00000000000E+00 -0.00000000000E+00 -0.78888841537E+03  0.78888841538E+03  0.25500000000E-02 0.  1.
    8880023    1    1    2    0    0  0.24104629395E+03  0.20731948513E+03  0.11869694958E+04  0.13941992236E+04  0.65864270000E+03 0. -1.
    8880022    1    1    2    0    0 -0.24104629395E+03 -0.20731948513E+03 -0.63986236589E+03  0.73068473711E+03  0.15294330000E+03 0.  0.
<mgrwt>
<rscale>  0 0.60951798E+03</rscale>
<asrwt>0</asrwt>
<pdfrwt beam="1">  1        2 0.20553777E+00 0.73136509E+03</pdfrwt>
<pdfrwt beam="2">  1       -2 0.12136745E+00 0.73136509E+03</pdfrwt>
<totfact> 0.83327839E+00</totfact>
</mgrwt>
</event>
<event>
 4    1  0.9600350E-007  0.7937041E+03  0.7818608E-02  0.9724578E-01
         -2   -1    0    0    0  501 -0.00000000000E+00  0.00000000000E+00  0.74948891968E+03  0.74948891968E+03  0.25500000000E-02 0.  1.
          2   -1    0    0  501    0  0.00000000000E+00 -0.00000000000E+00 -0.19834546905E+04  0.19834546905E+04  0.25500000000E-02 0. -1.
    8880023    1    1    2    0    0 -0.14480547695E+03  0.41855394397E+03 -0.18182805710E+04  0.19839633241E+04  0.65864270000E+03 0. -1.
    8880022    1    1    2    0    0  0.14480547695E+03 -0.41855394397E+03  0.58431480020E+03  0.74898028607E+03  0.15294330000E+03 0.  0.
<mgrwt>
<rscale>  0 0.69572096E+03</rscale>
<asrwt>0</asrwt>
<pdfrwt beam="1">  1        2 0.30514687E+00 0.79370412E+03</pdfrwt>
<pdfrwt beam="2">  1       -2 0.11530599E+00 0.79370412E+03</pdfrwt>
<totfact> 0.41119991E+00</totfact>
</mgrwt>
</event>
<event>
 4    1  0.8287789E-007  0.1081222E+04  0.7818608E-02  0.9282256E-01
          2   -1    0    0  501    0  0.00000000000E+00  0.00000000000E+00  0.15460664395E+04  0.15460664395E+04  0.25500000000E-02 0. -1.
         -2   -1    0    0    0  501 -0.00000000000E+00 -0.00000000000E+00 -0.97224907855E+03  0.97224907855E+03  0.25500000000E-02 0.  1.
    8880023    1    1    2    0    0 -0.82170864643E+03  0.24500333207E+03  0.10656049275E+04  0.15180763486E+04  0.65864270000E+03 0. -1.
    8880022    1    1    2    0    0  0.82170864643E+03 -0.24500333207E+03 -0.49178756662E+03  0.10002391694E+04  0.15294330000E+03 0.  0.
<mgrwt>
<rscale>  0 0.10243292E+04</rscale>
<asrwt>0</asrwt>
<pdfrwt beam="1">  1        2 0.23785638E+00 0.10812224E+04</pdfrwt>
<pdfrwt beam="2">  1       -2 0.14957678E+00 0.10812224E+04</pdfrwt>
<totfact> 0.35515620E+00</totfact>
</mgrwt>
</event>
<event>
 4    1  0.8287789E-007  0.6671055E+03  0.7818608E-02  0.1017829E+00
          2   -1    0    0  501    0  0.00000000000E+00  0.00000000000E+00  0.19597562410E+04  0.19597562410E+04  0.25500000000E-02 0. -1.
         -2   -1    0    0    0  501 -0.00000000000E+00 -0.00000000000E+00 -0.92900563077E+02  0.92900563112E+02  0.25500000000E-02 0.  1.
    8880023    1    1    2    0    0 -0.10423823164E+03 -0.18814799812E+02  0.14791151596E+04  0.16225940550E+04  0.65864270000E+03 0. -1.
    8880022    1    1    2    0    0  0.10423823164E+03  0.18814799812E+02  0.38774051824E+03  0.43006274906E+03  0.15294330000E+03 0.  1.
<mgrwt>
<rscale>  0 0.48478379E+03</rscale>
<asrwt>0</asrwt>
<pdfrwt beam="1">  1        2 0.30150095E+00 0.66710555E+03</pdfrwt>
<pdfrwt beam="2">  1       -2 0.14292395E-01 0.66710555E+03</pdfrwt>
<totfact> 0.27541549E+02</totfact>
</mgrwt>
</event>
<event>
 4    1  0.8287789E-007  0.8310644E+03  0.7818608E-02  0.9647265E-01
         -2   -1    0    0    0  501 -0.00000000000E+00  0.00000000000E+00  0.30927837080E+03  0.30927837081E+03  0.25500000000E-02 0.  1.
          2   -1    0    0  501    0  0.00000000000E+00 -0.00000000000E+00 -0.30319231264E+04  0.30319231264E+04  0.25500000000E-02 0. -1.
    8880023    1    1    2    0    0 -0.43993075569E+03  0.25163204061E+03 -0.26847783410E+04  0.28104630758E+04  0.65864270000E+03 0. -1.
    8880022    1    1    2    0    0  0.43993075569E+03 -0.25163204061E+03 -0.37866414628E+02  0.53073842148E+03  0.15294330000E+03 0.  0.
<mgrwt>
<rscale>  0 0.74245319E+03</rscale>
<asrwt>0</asrwt>
<pdfrwt beam="1">  1        2 0.46644969E+00 0.83106435E+03</pdfrwt>
<pdfrwt beam="2">  1       -2 0.47581290E-01 0.83106435E+03</pdfrwt>
<totfact> 0.73100581E+00</totfact>
</mgrwt>
</event>
<event>
 4    1  0.8287789E-007  0.1564983E+04  0.7818608E-02  0.8865062E-01
         -2   -1    0    0    0  501 -0.00000000000E+00  0.00000000000E+00  0.18615720093E+04  0.18615720093E+04  0.25500000000E-02 0.  1.
          2   -1    0    0  501    0  0.00000000000E+00 -0.00000000000E+00 -0.12484279019E+04  0.12484279019E+04  0.25500000000E-02 0. -1.
    8880023    1    1    2    0    0 -0.14196339360E+04 -0.41105530282E+00  0.23411305777E+02  0.15651578121E+04  0.65864270000E+03 0.  0.
    8880022    1    1    2    0    0  0.14196339360E+04  0.41105530282E+00  0.58973280161E+03  0.15448420992E+04  0.15294330000E+03 0.  0.
<mgrwt>
<rscale>  0 0.15295114E+04</rscale>
<asrwt>0</asrwt>
<pdfrwt beam="1">  1        2 0.19206583E+00 0.15649827E+04</pdfrwt>
<pdfrwt beam="2">  1       -2 0.28639569E+00 0.15649827E+04</pdfrwt>
<totfact> 0.63983836E-01</totfact>
</mgrwt>
</event>
<event>
 4    1  0.8287789E-007  0.9102176E+03  0.7818608E-02  0.9509824E-01
          2   -1    0    0  501    0  0.00000000000E+00  0.00000000000E+00  0.26382085480E+04  0.26382085480E+04  0.25500000000E-02 0. -1.
         -2   -1    0    0    0  501 -0.00000000000E+00 -0.00000000000E+00 -0.38678341499E+03  0.38678341500E+03  0.25500000000E-02 0.  1.
    8880023    1    1    2    0    0  0.47611128803E+03 -0.40988271137E+03  0.21946468813E+04  0.23759147576E+04  0.65864270000E+03 0. -1.
    8880022    1    1    2    0    0 -0.47611128803E+03  0.40988271137E+03  0.56778251716E+02  0.64907720538E+03  0.15294330000E+03 0.  0.
<mgrwt>
<rscale>  0 0.83563380E+03</rscale>
<asrwt>0</asrwt>
<pdfrwt beam="1">  1        2 0.40587826E+00 0.91021756E+03</pdfrwt>
<pdfrwt beam="2">  1       -2 0.59505138E-01 0.91021756E+03</pdfrwt>
<totfact> 0.78210568E+00</totfact>
</mgrwt>
</event>
<event>
 4    1  0.8287789E-007  0.7717864E+03  0.7818608E-02  0.9775497E-01
          2   -1    0    0  501    0  0.00000000000E+00  0.00000000000E+00  0.24749968501E+03  0.24749968503E+03  0.25500000000E-02 0. -1.
         -2   -1    0    0    0  501 -0.00000000000E+00 -0.00000000000E+00 -0.14874725343E+04  0.14874725343E+04  0.25500000000E-02 0.  1.
    8880023    1    1    2    0    0 -0.36527476585E+03 -0.16857772511E+03 -0.67929618666E+03  0.10281525273E+04  0.65864270000E+03 0. -1.
    8880022    1    1    2    0    0  0.36527476585E+03  0.16857772511E+03 -0.56067666263E+03  0.70681969200E+03  0.15294330000E+03 0.  1.
<mgrwt>
<rscale>  0 0.66694260E+03</rscale>
<asrwt>0</asrwt>
<pdfrwt beam="1">  1        2 0.38076875E-01 0.77178644E+03</pdfrwt>
<pdfrwt beam="2">  1       -2 0.22884192E+00 0.77178644E+03</pdfrwt>
<totfact> 0.12067913E+01</totfact>
</mgrwt>
</event>
<event>
 4    1  0.8352709E-007  0.8548954E+03  0.7818608E-02  0.9602709E-01
          2   -1    0    0  501    0  0.00000000000E+00  0.00000000000E+00  0.27557419456E+04  0.27557419456E+04  0.25500000000E-02 0. -1.
         -2   -1    0    0    0  501 -0.00000000000E+00 -0.00000000000E+00 -0.63785182970E+03  0.63785182970E+03  0.25500000000E-02 0.  1.
    8880023    1    1    2    0    0  0.48953380834E+03  0.23956732901E+03  0.25448235625E+04  0.26845806051E+04  0.65864270000E+03 0. -1.
    8880022    1    1    2    0    0 -0.48953380834E+03 -0.23956732901E+03 -0.42693344663E+03  0.70901317019E+03  0.15294330000E+03 0.  0.
<mgrwt>
<rscale>  0 0.77117145E+03</rscale>
<asrwt>0</asrwt>
<pdfrwt beam="1">  1        2 0.42396030E+00 0.85489535E+03</pdfrwt>
<pdfrwt beam="2">  1       -2 0.98131051E-01 0.85489535E+03</pdfrwt>
<totfact> 0.22046507E+00</totfact>
</mgrwt>
</event>
<event>
 4    1  0.8287789E-007  0.8094640E+03  0.7818608E-02  0.9690695E-01
         -2   -1    0    0    0  501 -0.00000000000E+00  0.00000000000E+00  0.57433320626E+03  0.57433320627E+03  0.25500000000E-02 0.  1.
          2   -1    0    0  501    0  0.00000000000E+00 -0.00000000000E+00 -0.97213768631E+03  0.97213768631E+03  0.25500000000E-02 0. -1.
    8880023    1    1    2    0    0 -0.23260750832E+03 -0.40904214210E+03  0.13356378625E+03  0.82040917730E+03  0.65864270000E+03 0.  1.
    8880022    1    1    2    0    0  0.23260750832E+03  0.40904214210E+03 -0.53136826630E+03  0.72606171528E+03  0.15294330000E+03 0.  0.
<mgrwt>
<rscale>  0 0.71573547E+03</rscale>
<asrwt>0</asrwt>
<pdfrwt beam="1">  1        2 0.14955964E+00 0.80946398E+03</pdfrwt>
<pdfrwt beam="2">  1       -2 0.88358955E-01 0.80946398E+03</pdfrwt>
<totfact> 0.29249147E+01</totfact>
</mgrwt>
</event>
<event>
 4    1  0.8287789E-007  0.8244816E+03  0.7818608E-02  0.9660166E-01
          2   -1    0    0  501    0  0.00000000000E+00  0.00000000000E+00  0.45430090814E+03  0.45430090815E+03  0.25500000000E-02 0. -1.
         -2   -1    0    0    0  501 -0.00000000000E+00 -0.00000000000E+00 -0.15309111206E+04  0.15309111206E+04  0.25500000000E-02 0.  1.
    8880023    1    1    2    0    0  0.44427797800E+03  0.22040124401E+03 -0.39422614270E+02  0.82542351485E+03  0.65864270000E+03 0. -1.
    8880022    1    1    2    0    0 -0.44427797800E+03 -0.22040124401E+03 -0.10371875982E+04  0.11597885139E+04  0.15294330000E+03 0.  0.
<mgrwt>
<rscale>  0 0.73438803E+03</rscale>
<asrwt>0</asrwt>
<pdfrwt beam="1">  1        2 0.69892448E-01 0.82448156E+03</pdfrwt>
<pdfrwt beam="2">  1       -2 0.23552479E+00 0.82448156E+03</pdfrwt>
<totfact> 0.55236430E+00</totfact>
</mgrwt>
</event>
<event>
 4    1  0.8287789E-007  0.1052963E+04  0.7818608E-02  0.9315328E-01
         -2   -1    0    0    0  501 -0.00000000000E+00  0.00000000000E+00  0.50697661276E+03  0.50697661276E+03  0.25500000000E-02 0.  1.
          2   -1    0    0  501    0  0.00000000000E+00 -0.00000000000E+00 -0.27159491524E+04  0.27159491524E+04  0.25500000000E-02 0. -1.
    8880023    1    1    2    0    0 -0.53937789992E+03 -0.61967096315E+03 -0.21392771360E+04  0.23843736059E+04  0.65864270000E+03 0.  0.
    8880022    1    1    2    0    0  0.53937789992E+03  0.61967096315E+03 -0.69695403605E+02  0.83855215926E+03  0.15294330000E+03 0.  0.
<mgrwt>
<rscale>  0 0.99383893E+03</rscale>
<asrwt>0</asrwt>
<pdfrwt beam="1">  1        2 0.41783832E+00 0.10529629E+04</pdfrwt>
<pdfrwt beam="2">  1       -2 0.77996404E-01 0.10529629E+04</pdfrwt>
<totfact> 0.38299154E+00</totfact>
</mgrwt>
</event>
<event>
 4    1  0.8287789E-007  0.7475410E+03  0.7818608E-02  0.9838501E-01
         -2   -1    0    0    0  501 -0.00000000000E+00  0.00000000000E+00  0.81892902207E+03  0.81892902207E+03  0.25500000000E-02 0.  1.
          2   -1    0    0  501    0  0.00000000000E+00 -0.00000000000E+00 -0.10316496124E+04  0.10316496124E+04  0.25500000000E-02 0. -1.
    8880023    1    1    2    0    0 -0.50040906811E+02  0.35000467232E+03 -0.83373192140E+03  0.11197885899E+04  0.65864270000E+03 0.  0.
    8880022    1    1    2    0    0  0.50040906811E+02 -0.35000467232E+03  0.62101133105E+03  0.73079004461E+03  0.15294330000E+03 0.  0.
<mgrwt>
<rscale>  0 0.63336658E+03</rscale>
<asrwt>0</asrwt>
<pdfrwt beam="1">  1        2 0.15871533E+00 0.74754102E+03</pdfrwt>
<pdfrwt beam="2">  1       -2 0.12598908E+00 0.74754102E+03</pdfrwt>
<totfact> 0.11503496E+01</totfact>
</mgrwt>
</event>
<event>
 4    1  0.8287789E-007  0.7685252E+03  0.7818608E-02  0.9783516E-01
          2   -1    0    0  501    0  0.00000000000E+00  0.00000000000E+00  0.36191924269E+04  0.36191924269E+04  0.25500000000E-02 0. -1.
         -2   -1    0    0    0  501 -0.00000000000E+00 -0.00000000000E+00 -0.14147461988E+03  0.14147461990E+03  0.25500000000E-02 0.  1.
    8880023    1    1    2    0    0 -0.28159510005E+03  0.27843305550E+03  0.30953762707E+04  0.31893549866E+04  0.65864270000E+03 0.  0.
    8880022    1    1    2    0    0  0.28159510005E+03 -0.27843305550E+03  0.38234153630E+03  0.57131206023E+03  0.15294330000E+03 0.  0.
<mgrwt>
<rscale>  0 0.66254697E+03</rscale>
<asrwt>0</asrwt>
<pdfrwt beam="1">  1        2 0.55679877E+00 0.76852519E+03</pdfrwt>
<pdfrwt beam="2">  1       -2 0.21765329E-01 0.76852519E+03</pdfrwt>
<totfact> 0.13267550E+01</totfact>
</mgrwt>
</event>
<event>
 4    1  0.8287789E-007  0.6588402E+03  0.7818608E-02  0.1025377E+00
         -2   -1    0    0    0  501 -0.00000000000E+00  0.00000000000E+00  0.25047848326E+03  0.25047848327E+03  0.25500000000E-02 0.  1.
          2   -1    0    0  501    0  0.00000000000E+00 -0.00000000000E+00 -0.28933355681E+04  0.28933355681E+04  0.25500000000E-02 0. -1.
    8880023    1    1    2    0    0  0.13490969107E+02 -0.88400369982E+01 -0.28276540368E+04  0.29033941708E+04  0.65864270000E+03 0. -1.
    8880022    1    1    2    0    0 -0.13490969107E+02  0.88400369982E+01  0.18479695200E+03  0.24041988060E+03  0.15294330000E+03 0.  0.
<mgrwt>
<rscale>  0 0.45795002E+03</rscale>
<asrwt>0</asrwt>
<pdfrwt beam="1">  1        2 0.44512852E+00 0.65884016E+03</pdfrwt>
<pdfrwt beam="2">  1       -2 0.38535153E-01 0.65884016E+03</pdfrwt>
<totfact> 0.13884230E+01</totfact>
</mgrwt>
</event>
<event>
 4    1  0.8287789E-007  0.1280992E+04  0.7818608E-02  0.9082151E-01
          2   -1    0    0  501    0  0.00000000000E+00  0.00000000000E+00  0.14184617680E+04  0.14184617680E+04  0.25500000000E-02 0. -1.
         -2   -1    0    0    0  501 -0.00000000000E+00 -0.00000000000E+00 -0.14431221196E+04  0.14431221196E+04  0.25500000000E-02 0.  1.
    8880023    1    1    2    0    0 -0.10679784277E+04 -0.25797713405E+03  0.77220861318E+03  0.14957427828E+04  0.65864270000E+03 0.  0.
    8880022    1    1    2    0    0  0.10679784277E+04  0.25797713405E+03 -0.79686896473E+03  0.13658411048E+04  0.15294330000E+03 0.  0.
<mgrwt>
<rscale>  0 0.12357225E+04</rscale>
<asrwt>0</asrwt>
<pdfrwt beam="1">  1        2 0.21822489E+00 0.12809919E+04</pdfrwt>
<pdfrwt beam="2">  1       -2 0.22201879E+00 0.12809919E+04</pdfrwt>
<totfact> 0.13038806E+00</totfact>
</mgrwt>
</event>
<event>
 4    1  0.8287789E-007  0.8222631E+03  0.7818608E-02  0.9664578E-01
         -2   -1    0    0    0  501 -0.00000000000E+00  0.00000000000E+00  0.41222202829E+03  0.41222202830E+03  0.25500000000E-02 0.  1.
          2   -1    0    0  501    0  0.00000000000E+00 -0.00000000000E+00 -0.17782943593E+04  0.17782943593E+04  0.25500000000E-02 0. -1.
    8880023    1    1    2    0    0  0.28092235378E+02  0.49144400351E+03 -0.14513093792E+04  0.16680574039E+04  0.65864270000E+03 0. -1.
    8880022    1    1    2    0    0 -0.28092235378E+02 -0.49144400351E+03  0.85237048171E+02  0.52245898372E+03  0.15294330000E+03 0.  0.
<mgrwt>
<rscale>  0 0.73165550E+03</rscale>
<asrwt>0</asrwt>
<pdfrwt beam="1">  1        2 0.27358374E+00 0.82226309E+03</pdfrwt>
<pdfrwt beam="2">  1       -2 0.63418774E-01 0.82226309E+03</pdfrwt>
<totfact> 0.20828278E+01</totfact>
</mgrwt>
</event>
<event>
 4    1  0.8287789E-007  0.8295882E+03  0.7818608E-02  0.9650134E-01
         -2   -1    0    0    0  501 -0.00000000000E+00  0.00000000000E+00  0.90132863140E+03  0.90132863140E+03  0.25500000000E-02 0.  1.
          2   -1    0    0  501    0  0.00000000000E+00 -0.00000000000E+00 -0.15120895500E+04  0.15120895500E+04  0.25500000000E-02 0. -1.
    8880023    1    1    2    0    0 -0.45788379077E+03  0.21153915175E+03 -0.13021996085E+04  0.15440014266E+04  0.65864270000E+03 0. -1.
    8880022    1    1    2    0    0  0.45788379077E+03 -0.21153915175E+03  0.69143868994E+03  0.86941675481E+03  0.15294330000E+03 0.  0.
<mgrwt>
<rscale>  0 0.74065007E+03</rscale>
<asrwt>0</asrwt>
<pdfrwt beam="1">  1        2 0.23262916E+00 0.82958820E+03</pdfrwt>
<pdfrwt beam="2">  1       -2 0.13866594E+00 0.82958820E+03</pdfrwt>
<totfact> 0.46671611E+00</totfact>
</mgrwt>
</event>
<event>
 4    1  0.8287789E-007  0.7834360E+03  0.7818608E-02  0.9747827E-01
          2   -1    0    0  501    0  0.00000000000E+00  0.00000000000E+00  0.13569568476E+04  0.13569568476E+04  0.25500000000E-02 0. -1.
         -2   -1    0    0    0  501 -0.00000000000E+00 -0.00000000000E+00 -0.94348742978E+03  0.94348742979E+03  0.25500000000E-02 0.  1.
    8880023    1    1    2    0    0 -0.41333249436E+03  0.95488377536E+02  0.11768788005E+04  0.14137947865E+04  0.65864270000E+03 0. -1.
    8880022    1    1    2    0    0  0.41333249436E+03 -0.95488377536E+02 -0.76340938265E+03  0.88664949087E+03  0.15294330000E+03 0.  0.
<mgrwt>
<rscale>  0 0.68239225E+03</rscale>
<asrwt>0</asrwt>
<pdfrwt beam="1">  1        2 0.20876259E+00 0.78343601E+03</pdfrwt>
<pdfrwt beam="2">  1       -2 0.14515191E+00 0.78343601E+03</pdfrwt>
<totfact> 0.50998561E+00</totfact>
</mgrwt>
</event>
<event>
 4    1  0.8287789E-007  0.7794839E+03  0.7818608E-02  0.9757051E-01
         -2   -1    0    0    0  501 -0.00000000000E+00  0.00000000000E+00  0.10073355270E+04  0.10073355270E+04  0.25500000000E-02 0.  1.
          2   -1    0    0  501    0  0.00000000000E+00 -0.00000000000E+00 -0.76729050000E+03  0.76729050000E+03  0.25500000000E-02 0. -1.
    8880023    1    1    2    0    0 -0.40545896481E+03  0.96891899339E+02 -0.48959509873E+03  0.92048822875E+03  0.65864270000E+03 0. -1.
    8880022    1    1    2    0    0  0.40545896481E+03 -0.96891899339E+02  0.72964012571E+03  0.85413779823E+03  0.15294330000E+03 0.  0.
<mgrwt>
<rscale>  0 0.67719278E+03</rscale>
<asrwt>0</asrwt>
<pdfrwt beam="1">  1        2 0.11804469E+00 0.77948394E+03</pdfrwt>
<pdfrwt beam="2">  1       -2 0.15497470E+00 0.77948394E+03</pdfrwt>
<totfact> 0.10126788E+01</totfact>
</mgrwt>
</event>
<event>
 4    1  0.8287789E-007  0.8469874E+03  0.7818608E-02  0.9617143E-01
          2   -1    0    0  501    0  0.00000000000E+00  0.00000000000E+00  0.17540583354E+04  0.17540583354E+04  0.25500000000E-02 0. -1.
         -2   -1    0    0    0  501 -0.00000000000E+00 -0.00000000000E+00 -0.38086107128E+03  0.38086107129E+03  0.25500000000E-02 0.  1.
    8880023    1    1    2    0    0 -0.26724859841E+03 -0.46060346533E+03  0.13331132322E+04  0.15794234587E+04  0.65864270000E+03 0.  0.
    8880022    1    1    2    0    0  0.26724859841E+03  0.46060346533E+03  0.40084031892E+02  0.55549594801E+03  0.15294330000E+03 0.  0.
<mgrwt>
<rscale>  0 0.76171851E+03</rscale>
<asrwt>0</asrwt>
<pdfrwt beam="1">  1        2 0.26985513E+00 0.84698735E+03</pdfrwt>
<pdfrwt beam="2">  1       -2 0.58594010E-01 0.84698735E+03</pdfrwt>
<totfact> 0.25329141E+01</totfact>
</mgrwt>
</event>
<event>
 4    1  0.8287789E-007  0.7854635E+03  0.7818608E-02  0.9743156E-01
          2   -1    0    0  501    0  0.00000000000E+00  0.00000000000E+00  0.35308779955E+04  0.35308779955E+04  0.25500000000E-02 0. -1.
         -2   -1    0    0    0  501 -0.00000000000E+00 -0.00000000000E+00 -0.13533787554E+03  0.13533787556E+03  0.25500000000E-02 0.  1.
    8880023    1    1    2    0    0 -0.37374254082E+03  0.20846855625E+03  0.28496181216E+04  0.29558884064E+04  0.65864270000E+03 0.  0.
    8880022    1    1    2    0    0  0.37374254082E+03 -0.20846855625E+03  0.54592199834E+03  0.71032746466E+03  0.15294330000E+03 0.  0.
<mgrwt>
<rscale>  0 0.68504406E+03</rscale>
<asrwt>0</asrwt>
<pdfrwt beam="1">  1        2 0.54321186E+00 0.78546345E+03</pdfrwt>
<pdfrwt beam="2">  1       -2 0.20821217E-01 0.78546345E+03</pdfrwt>
<totfact> 0.16480984E+01</totfact>
</mgrwt>
</event>
<event>
 4    1  0.8287789E-007  0.7209713E+03  0.7818608E-02  0.9919313E-01
          2   -1    0    0  501    0  0.00000000000E+00  0.00000000000E+00  0.26048131572E+04  0.26048131572E+04  0.25500000000E-02 0. -1.
         -2   -1    0    0    0  501 -0.00000000000E+00 -0.00000000000E+00 -0.27945313919E+03  0.27945313920E+03  0.25500000000E-02 0.  1.
    8880023    1    1    2    0    0 -0.15657088099E+03 -0.24794132092E+03  0.24321219035E+04  0.25367334308E+04  0.65864270000E+03 0. -1.
    8880022    1    1    2    0    0  0.15657088099E+03  0.24794132092E+03 -0.10676188554E+03  0.34753286552E+03  0.15294330000E+03 0.  0.
<mgrwt>
<rscale>  0 0.59334351E+03</rscale>
<asrwt>0</asrwt>
<pdfrwt beam="1">  1        2 0.40074049E+00 0.72097125E+03</pdfrwt>
<pdfrwt beam="2">  1       -2 0.42992791E-01 0.72097125E+03</pdfrwt>
<totfact> 0.16352233E+01</totfact>
</mgrwt>
</event>
<event>
 4    1  0.8287789E-007  0.6878800E+03  0.7818608E-02  0.1005177E+00
         -2   -1    0    0    0  501 -0.00000000000E+00  0.00000000000E+00  0.37764944040E+03  0.37764944040E+03  0.25500000000E-02 0.  1.
          2   -1    0    0  501    0  0.00000000000E+00 -0.00000000000E+00 -0.11487821695E+04  0.11487821695E+04  0.25500000000E-02 0. -1.
    8880023    1    1    2    0    0  0.13374575979E+03 -0.14656335025E+03 -0.98201339492E+03  0.11989700822E+04  0.65864270000E+03 0.  0.
    8880022    1    1    2    0    0 -0.13374575979E+03  0.14656335025E+03  0.21088066583E+03  0.32746152772E+03  0.15294330000E+03 0.  1.
<mgrwt>
<rscale>  0 0.53437390E+03</rscale>
<asrwt>0</asrwt>
<pdfrwt beam="1">  1        2 0.17673572E+00 0.68788004E+03</pdfrwt>
<pdfrwt beam="2">  1       -2 0.58099914E-01 0.68788004E+03</pdfrwt>
<totfact> 0.57651729E+01</totfact>
</mgrwt>
</event>
<event>
 4    1  0.8287789E-007  0.7458090E+03  0.7818608E-02  0.9843338E-01
         -2   -1    0    0    0  501 -0.00000000000E+00  0.00000000000E+00  0.35023108144E+03  0.35023108145E+03  0.25500000000E-02 0.  1.
          2   -1    0    0  501    0  0.00000000000E+00 -0.00000000000E+00 -0.12010654911E+04  0.12010654911E+04  0.25500000000E-02 0. -1.
    8880023    1    1    2    0    0  0.31953846403E+03  0.14253453694E+03 -0.89712524873E+03  0.11666468370E+04  0.65864270000E+03 0. -1.
    8880022    1    1    2    0    0 -0.31953846403E+03 -0.14253453694E+03  0.46290839076E+02  0.38464973549E+03  0.15294330000E+03 0.  0.
<mgrwt>
<rscale>  0 0.63087760E+03</rscale>
<asrwt>0</asrwt>
<pdfrwt beam="1">  1        2 0.18477930E+00 0.74580904E+03</pdfrwt>
<pdfrwt beam="2">  1       -2 0.53881705E-01 0.74580904E+03</pdfrwt>
<totfact> 0.62435008E+01</totfact>
</mgrwt>
</event>
<event>
 4    1  0.8287789E-007  0.9625756E+03  0.7818608E-02  0.9432247E-01
         -2   -1    0    0    0  501 -0.00000000000E+00  0.00000000000E+00  0.12265370767E+04  0.12265370767E+04  0.25500000000E-02 0.  1.
          2   -1    0    0  501    0  0.00000000000E+00 -0.00000000000E+00 -0.23310947982E+04  0.23310947982E+04  0.25500000000E-02 0. -1.
    8880023    1    1    2    0    0  0.18088884583E+03  0.67824828540E+03  0.96737170324E+03  0.13646830144E+04  0.65864270000E+03 0.  1.
    8880022    1    1    2    0    0 -0.18088884583E+03 -0.67824828540E+03 -0.20719294247E+04  0.21929488606E+04  0.15294330000E+03 0.  0.
<mgrwt>
<rscale>  0 0.89468745E+03</rscale>
<asrwt>0</asrwt>
<pdfrwt beam="1">  1        2 0.35862997E+00 0.96257556E+03</pdfrwt>
<pdfrwt beam="2">  1       -2 0.18869801E+00 0.96257556E+03</pdfrwt>
<totfact> 0.69485681E-01</totfact>
</mgrwt>
</event>
<event>
 4    1  0.9178344E-007  0.1041638E+04  0.7818608E-02  0.9329001E-01
          2   -1    0    0  501    0  0.00000000000E+00  0.00000000000E+00  0.17500035884E+04  0.17500035884E+04  0.25500000000E-02 0. -1.
         -2   -1    0    0    0  501 -0.00000000000E+00 -0.00000000000E+00 -0.12251298210E+04  0.12251298210E+04  0.25500000000E-02 0.  1.
    8880023    1    1    2    0    0 -0.38540535032E+03 -0.70898743943E+03  0.14194869304E+04  0.17606685734E+04  0.65864270000E+03 0.  0.
    8880022    1    1    2    0    0  0.38540535032E+03  0.70898743943E+03 -0.89461316309E+03  0.12144648360E+04  0.15294330000E+03 0.  0.
<mgrwt>
<rscale>  0 0.98156240E+03</rscale>
<asrwt>0</asrwt>
<pdfrwt beam="1">  1        2 0.26923132E+00 0.10416385E+04</pdfrwt>
<pdfrwt beam="2">  1       -2 0.18848151E+00 0.10416385E+04</pdfrwt>
<totfact> 0.14443966E+00</totfact>
</mgrwt>
</event>
<event>
 4    1  0.8287789E-007  0.8906966E+03  0.7818608E-02  0.9541135E-01
         -2   -1    0    0    0  501 -0.00000000000E+00  0.00000000000E+00  0.49606425462E+03  0.49606425463E+03  0.25500000000E-02 0.  1.
          2   -1    0    0  501    0  0.00000000000E+00 -0.00000000000E+00 -0.21762810155E+04  0.21762810155E+04  0.25500000000E-02 0. -1.
    8880023    1    1    2    0    0  0.88068537194E+02  0.59310550954E+03 -0.18303695776E+04  0.20355817865E+04  0.65864270000E+03 0. -1.
    8880022    1    1    2    0    0 -0.88068537194E+02 -0.59310550954E+03  0.15015281673E+03  0.63676348362E+03  0.15294330000E+03 0.  0.
<mgrwt>
<rscale>  0 0.81317892E+03</rscale>
<asrwt>0</asrwt>
<pdfrwt beam="1">  1        2 0.33481246E+00 0.89069659E+03</pdfrwt>
<pdfrwt beam="2">  1       -2 0.76317579E-01 0.89069659E+03</pdfrwt>
<totfact> 0.83341664E+00</totfact>
</mgrwt>
</event>
<event>
 4    1  0.8287789E-007  0.6935083E+03  0.7818608E-02  0.1002528E+00
          2   -1    0    0  501    0  0.00000000000E+00  0.00000000000E+00  0.18793149794E+04  0.18793149794E+04  0.25500000000E-02 0. -1.
         -2   -1    0    0    0  501 -0.00000000000E+00 -0.00000000000E+00 -0.17268985970E+03  0.17268985972E+03  0.25500000000E-02 0.  1.
    8880023    1    1    2    0    0 -0.17152657100E+02 -0.21644704140E+03  0.16364045102E+04  0.17772938594E+04  0.65864270000E+03 0. -1.
    8880022    1    1    2    0    0  0.17152657100E+02  0.21644704140E+03  0.70220609508E+02  0.27471097974E+03  0.15294330000E+03 0.  0.
<mgrwt>
<rscale>  0 0.54555617E+03</rscale>
<asrwt>0</asrwt>
<pdfrwt beam="1">  1        2 0.28912539E+00 0.69350829E+03</pdfrwt>
<pdfrwt beam="2">  1       -2 0.26567670E-01 0.69350829E+03</pdfrwt>
<totfact> 0.10304325E+02</totfact>
</mgrwt>
</event>
<event>
 4    1  0.8287789E-007  0.1361909E+04  0.7818608E-02  0.9013860E-01
         -2   -1    0    0    0  501 -0.00000000000E+00  0.00000000000E+00  0.18877503318E+04  0.18877503318E+04  0.25500000000E-02 0.  1.
          2   -1    0    0  501    0  0.00000000000E+00 -0.00000000000E+00 -0.94878641289E+03  0.94878641289E+03  0.25500000000E-02 0. -1.
    8880023    1    1    2    0    0 -0.63431739150E+03 -0.10092704789E+04  0.90319178228E+03  0.16341820751E+04  0.65864270000E+03 0.  0.
    8880022    1    1    2    0    0  0.63431739150E+03  0.10092704789E+04  0.35772136628E+02  0.12023546696E+04  0.15294330000E+03 0.  0.
<mgrwt>
<rscale>  0 0.13199914E+04</rscale>
<asrwt>0</asrwt>
<pdfrwt beam="1">  1        2 0.14596714E+00 0.13619088E+04</pdfrwt>
<pdfrwt beam="2">  1       -2 0.29042313E+00 0.13619088E+04</pdfrwt>
<totfact> 0.95099310E-01</totfact>
</mgrwt>
</event>
<event>
 4    1  0.8287789E-007  0.6726060E+03  0.7818608E-02  0.1013860E+00
          2   -1    0    0  501    0  0.00000000000E+00  0.00000000000E+00  0.78843841091E+03  0.78843841092E+03  0.25500000000E-02 0. -1.
         -2   -1    0    0    0  501 -0.00000000000E+00 -0.00000000000E+00 -0.24477999124E+03  0.24477999125E+03  0.25500000000E-02 0.  1.
    8880023    1    1    2    0    0  0.98240317890E+02 -0.94538020064E+02  0.43846745855E+03  0.80290255683E+03  0.65864270000E+03 0. -1.
    8880022    1    1    2    0    0 -0.98240317890E+02  0.94538020064E+02  0.10519096112E+03  0.23031584534E+03  0.15294330000E+03 0.  1.
<mgrwt>
<rscale>  0 0.49969059E+03</rscale>
<asrwt>0</asrwt>
<pdfrwt beam="1">  1        2 0.12129822E+00 0.67260598E+03</pdfrwt>
<pdfrwt beam="2">  1       -2 0.37658460E-01 0.67260598E+03</pdfrwt>
<totfact> 0.23656838E+02</totfact>
</mgrwt>
</event>
<event>
 4    1  0.8287789E-007  0.1214897E+04  0.7818608E-02  0.9142775E-01
          2   -1    0    0  501    0  0.00000000000E+00  0.00000000000E+00  0.32905823743E+04  0.32905823743E+04  0.25500000000E-02 0. -1.
         -2   -1    0    0    0  501 -0.00000000000E+00 -0.00000000000E+00 -0.53154086971E+03  0.53154086972E+03  0.25500000000E-02 0.  1.
    8880023    1    1    2    0    0 -0.94273384115E+03 -0.39168610109E+03  0.24660840499E+04  0.27490990969E+04  0.65864270000E+03 0.  1.
    8880022    1    1    2    0    0  0.94273384115E+03  0.39168610109E+03  0.29295745467E+03  0.10730241471E+04  0.15294330000E+03 0.  0.
<mgrwt>
<rscale>  0 0.11664113E+04</rscale>
<asrwt>0</asrwt>
<pdfrwt beam="1">  1        2 0.50624345E+00 0.12148972E+04</pdfrwt>
<pdfrwt beam="2">  1       -2 0.81775517E-01 0.12148972E+04</pdfrwt>
<totfact> 0.14816481E+00</totfact>
</mgrwt>
</event>
<event>
 4    1  0.8287789E-007  0.6968863E+03  0.7818608E-02  0.1001037E+00
         -2   -1    0    0    0  501 -0.00000000000E+00  0.00000000000E+00  0.36770516350E+03  0.36770516351E+03  0.25500000000E-02 0.  1.
          2   -1    0    0  501    0  0.00000000000E+00 -0.00000000000E+00 -0.77481446760E+03  0.77481446760E+03  0.25500000000E-02 0. -1.
    8880023    1    1    2    0    0 -0.22756794691E+03 -0.72860080268E+01 -0.49466278373E+03  0.85460033480E+03  0.65864270000E+03 0. -1.
    8880022    1    1    2    0    0  0.22756794691E+03  0.72860080268E+01  0.87553479632E+02  0.28791929631E+03  0.15294330000E+03 0.  0.
<mgrwt>
<rscale>  0 0.55197790E+03</rscale>
<asrwt>0</asrwt>
<pdfrwt beam="1">  1        2 0.11920223E+00 0.69688626E+03</pdfrwt>
<pdfrwt beam="2">  1       -2 0.56570025E-01 0.69688626E+03</pdfrwt>
<totfact> 0.10699178E+02</totfact>
</mgrwt>
</event>
<event>
 4    1  0.8287789E-007  0.6627849E+03  0.7818608E-02  0.1021469E+00
         -2   -1    0    0    0  501 -0.00000000000E+00  0.00000000000E+00  0.82895051761E+03  0.82895051761E+03  0.25500000000E-02 0.  1.
          2   -1    0    0  501    0  0.00000000000E+00 -0.00000000000E+00 -0.21760760265E+03  0.21760760266E+03  0.25500000000E-02 0. -1.
    8880023    1    1    2    0    0 -0.62775516968E+02  0.39151516242E+02  0.39531144916E+03  0.77172207099E+03  0.65864270000E+03 0. -1.
    8880022    1    1    2    0    0  0.62775516968E+02 -0.39151516242E+02  0.21603146581E+03  0.27483604929E+03  0.15294330000E+03 0.  1.
<mgrwt>
<rscale>  0 0.47160281E+03</rscale>
<asrwt>0</asrwt>
<pdfrwt beam="1">  1        2 0.33478092E-01 0.66278489E+03</pdfrwt>
<pdfrwt beam="2">  1       -2 0.12753085E+00 0.66278489E+03</pdfrwt>
<totfact> 0.72690752E+01</totfact>
</mgrwt>
</event>
<event>
 4    1  0.8287789E-007  0.7387841E+03  0.7818608E-02  0.9863503E-01
         -2   -1    0    0    0  501 -0.00000000000E+00  0.00000000000E+00  0.11050189545E+04  0.11050189545E+04  0.25500000000E-02 0.  1.
          2   -1    0    0  501    0  0.00000000000E+00 -0.00000000000E+00 -0.73915558253E+03  0.73915558253E+03  0.25500000000E-02 0. -1.
    8880023    1    1    2    0    0  0.22455149508E+03  0.24812966101E+03 -0.50761150547E+03  0.89636563375E+03  0.65864270000E+03 0. -1.
    8880022    1    1    2    0    0 -0.22455149508E+03 -0.24812966101E+03  0.87347487744E+03  0.94780890329E+03  0.15294330000E+03 0.  0.
<mgrwt>
<rscale>  0 0.62063148E+03</rscale>
<asrwt>0</asrwt>
<pdfrwt beam="1">  1        2 0.11371624E+00 0.73878407E+03</pdfrwt>
<pdfrwt beam="2">  1       -2 0.17000292E+00 0.73878407E+03</pdfrwt>
<totfact> 0.82967781E+00</totfact>
</mgrwt>
</event>
<event>
 4    1  0.8287789E-007  0.7620794E+03  0.7818608E-02  0.9799754E-01
         -2   -1    0    0    0  501 -0.00000000000E+00  0.00000000000E+00  0.63154702869E+03  0.63154702870E+03  0.25500000000E-02 0.  1.
          2   -1    0    0  501    0  0.00000000000E+00 -0.00000000000E+00 -0.10790532424E+04  0.10790532424E+04  0.25500000000E-02 0. -1.
    8880023    1    1    2    0    0  0.30624556889E+03 -0.23058270321E+03 -0.84478803818E+03  0.11377309731E+04  0.65864270000E+03 0. -1.
    8880022    1    1    2    0    0 -0.30624556889E+03  0.23058270321E+03  0.39728182447E+03  0.57286929797E+03  0.15294330000E+03 0.  0.
<mgrwt>
<rscale>  0 0.65375762E+03</rscale>
<asrwt>0</asrwt>
<pdfrwt beam="1">  1        2 0.16600819E+00 0.76207935E+03</pdfrwt>
<pdfrwt beam="2">  1       -2 0.97161081E-01 0.76207935E+03</pdfrwt>
<totfact> 0.20167104E+01</totfact>
</mgrwt>
</event>
<event>
 4    1  0.8287789E-007  0.1351267E+04  0.7818608E-02  0.9022506E-01
          2   -1    0    0  501    0  0.00000000000E+00  0.00000000000E+00  0.29381696447E+04  0.29381696447E+04  0.25500000000E-02 0. -1.
         -2   -1    0    0    0  501 -0.00000000000E+00 -0.00000000000E+00 -0.89416657160E+03  0.89416657160E+03  0.25500000000E-02 0.  1.
    8880023    1    1    2    0    0  0.10062434577E+04 -0.61610516376E+03  0.22502966446E+04  0.26248345974E+04  0.65864270000E+03 0.  0.
    8880022    1    1    2    0    0 -0.10062434577E+04  0.61610516376E+03 -0.20629357148E+03  0.12075016189E+04  0.15294330000E+03 0.  0.
<mgrwt>
<rscale>  0 0.13089398E+04</rscale>
<asrwt>0</asrwt>
<pdfrwt beam="1">  1        2 0.45202611E+00 0.13512667E+04</pdfrwt>
<pdfrwt beam="2">  1       -2 0.13756409E+00 0.13512667E+04</pdfrwt>
<totfact> 0.69074173E-01</totfact>
</mgrwt>
</event>
<event>
 4    1  0.8287789E-007  0.7538258E+03  0.7818608E-02  0.9821362E-01
          2   -1    0    0  501    0  0.00000000000E+00  0.00000000000E+00  0.59388033697E+03  0.59388033697E+03  0.25500000000E-02 0. -1.
         -2   -1    0    0    0  501 -0.00000000000E+00 -0.00000000000E+00 -0.92219286098E+03  0.92219286099E+03  0.25500000000E-02 0.  1.
    8880023    1    1    2    0    0 -0.36403879300E+03 -0.43804820165E+02  0.26756224124E+03  0.79990178415E+03  0.65864270000E+03 0.  1.
    8880022    1    1    2    0    0  0.36403879300E+03  0.43804820165E+02 -0.59587476525E+03  0.71617141381E+03  0.15294330000E+03 0.  0.
<mgrwt>
<rscale>  0 0.64228617E+03</rscale>
<asrwt>0</asrwt>
<pdfrwt beam="1">  1        2 0.91366206E-01 0.75382578E+03</pdfrwt>
<pdfrwt beam="2">  1       -2 0.14187583E+00 0.75382578E+03</pdfrwt>
<totfact> 0.17655616E+01</totfact>
</mgrwt>
</event>
<event>
 4    1  0.8287789E-007  0.6990702E+03  0.7818608E-02  0.1000108E+00
         -2   -1    0    0    0  501 -0.00000000000E+00  0.00000000000E+00  0.90419789641E+03  0.90419789642E+03  0.25500000000E-02 0.  1.
          2   -1    0    0  501    0  0.00000000000E+00 -0.00000000000E+00 -0.67255070259E+03  0.67255070260E+03  0.25500000000E-02 0. -1.
    8880023    1    1    2    0    0 -0.22568783360E+03 -0.62880349714E+02 -0.45580600801E+03  0.83454074785E+03  0.65864270000E+03 0. -1.
    8880022    1    1    2    0    0  0.22568783360E+03  0.62880349714E+02  0.68745320183E+03  0.74220785117E+03  0.15294330000E+03 0.  0.
<mgrwt>
<rscale>  0 0.55602888E+03</rscale>
<asrwt>0</asrwt>
<pdfrwt beam="1">  1        2 0.10346934E+00 0.69907020E+03</pdfrwt>
<pdfrwt beam="2">  1       -2 0.13910737E+00 0.69907020E+03</pdfrwt>
<totfact> 0.16044263E+01</totfact>
</mgrwt>
</event>
<event>
 4    1  0.8287789E-007  0.9658379E+03  0.7818608E-02  0.9427684E-01
         -2   -1    0    0    0  501 -0.00000000000E+00  0.00000000000E+00  0.29101979475E+03  0.29101979477E+03  0.25500000000E-02 0.  1.
          2   -1    0    0  501    0  0.00000000000E+00 -0.00000000000E+00 -0.28121377892E+04  0.28121377892E+04  0.25500000000E-02 0. -1.
    8880023    1    1    2    0    0 -0.70363814885E+03  0.62658220851E+02 -0.86650765858E+03  0.12975663474E+04  0.65864270000E+03 0.  1.
    8880022    1    1    2    0    0  0.70363814885E+03 -0.62658220851E+02 -0.16546103359E+04  0.18055912366E+04  0.15294330000E+03 0.  0.
<mgrwt>
<rscale>  0 0.89832010E+03</rscale>
<asrwt>0</asrwt>
<pdfrwt beam="1">  1        2 0.43263656E+00 0.96583793E+03</pdfrwt>
<pdfrwt beam="2">  1       -2 0.44772278E-01 0.96583793E+03</pdfrwt>
<totfact> 0.11006266E+01</totfact>
</mgrwt>
</event>
<event>
 4    1  0.8287789E-007  0.1010281E+04  0.7818608E-02  0.9368228E-01
         -2   -1    0    0    0  501 -0.00000000000E+00  0.00000000000E+00  0.70463400375E+03  0.70463400375E+03  0.25500000000E-02 0.  1.
          2   -1    0    0  501    0  0.00000000000E+00 -0.00000000000E+00 -0.15807844503E+04  0.15807844503E+04  0.25500000000E-02 0. -1.
    8880023    1    1    2    0    0 -0.58840522455E+03 -0.49054817577E+03 -0.10791857918E+04  0.14782795407E+04  0.65864270000E+03 0. -1.
    8880022    1    1    2    0    0  0.58840522455E+03  0.49054817577E+03  0.20303534523E+03  0.80713891336E+03  0.15294330000E+03 0.  0.
<mgrwt>
<rscale>  0 0.94737129E+03</rscale>
<asrwt>0</asrwt>
<pdfrwt beam="1">  1        2 0.24319761E+00 0.10102814E+04</pdfrwt>
<pdfrwt beam="2">  1       -2 0.10840523E+00 0.10102814E+04</pdfrwt>
<totfact> 0.77372500E+00</totfact>
</mgrwt>
</event>
<event>
 4    1  0.8287789E-007  0.8907714E+03  0.7818608E-02  0.9541012E-01
         -2   -1    0    0    0  501 -0.00000000000E+00  0.00000000000E+00  0.35902359304E+03  0.35902359305E+03  0.25500000000E-02 0.  1.
          2   -1    0    0  501    0  0.00000000000E+00 -0.00000000000E+00 -0.40620187522E+04  0.40620187522E+04  0.25500000000E-02 0. -1.
    8880023    1    1    2    0    0  0.57791072659E+03  0.16025797689E+03 -0.36962718128E+04  0.38020913913E+04  0.65864270000E+03 0. -1.
    8880022    1    1    2    0    0 -0.57791072659E+03 -0.16025797689E+03 -0.67233463663E+01  0.61895095401E+03  0.15294330000E+03 0.  0.
<mgrwt>
<rscale>  0 0.81326548E+03</rscale>
<asrwt>0</asrwt>
<pdfrwt beam="1">  1        2 0.62492593E+00 0.89077137E+03</pdfrwt>
<pdfrwt beam="2">  1       -2 0.55234402E-01 0.89077137E+03</pdfrwt>
<totfact> 0.10130038E+00</totfact>
</mgrwt>
</event>
<event>
 4    1  0.8287789E-007  0.7541618E+03  0.7818608E-02  0.9820463E-01
          2   -1    0    0  501    0  0.00000000000E+00  0.00000000000E+00  0.88374641769E+03  0.88374641770E+03  0.25500000000E-02 0. -1.
         -2   -1    0    0    0  501 -0.00000000000E+00 -0.00000000000E+00 -0.92645348747E+03  0.92645348747E+03  0.25500000000E-02 0.  1.
    8880023    1    1    2    0    0  0.36732559416E+03 -0.46597625704E+01  0.66030822046E+03  0.10023806452E+04  0.65864270000E+03 0. -1.
    8880022    1    1    2    0    0 -0.36732559416E+03  0.46597625704E+01 -0.70301529024E+03  0.80781926001E+03  0.15294330000E+03 0.  0.
<mgrwt>
<rscale>  0 0.64275835E+03</rscale>
<asrwt>0</asrwt>
<pdfrwt beam="1">  1        2 0.13596099E+00 0.75416179E+03</pdfrwt>
<pdfrwt beam="2">  1       -2 0.14253131E+00 0.75416179E+03</pdfrwt>
<totfact> 0.10475559E+01</totfact>
</mgrwt>
</event>
<event>
 4    1  0.8287789E-007  0.6699615E+03  0.7818608E-02  0.1015690E+00
         -2   -1    0    0    0  501 -0.00000000000E+00  0.00000000000E+00  0.11629514299E+03  0.11629514302E+03  0.25500000000E-02 0.  1.
          2   -1    0    0  501    0  0.00000000000E+00 -0.00000000000E+00 -0.34052962987E+04  0.34052962987E+04  0.25500000000E-02 0. -1.
    8880023    1    1    2    0    0 -0.15761608260E+02 -0.12161321371E+03 -0.32542524645E+04  0.33225001898E+04  0.65864270000E+03 0. -1.
    8880022    1    1    2    0    0  0.15761608260E+02  0.12161321371E+03 -0.34748691192E+02  0.19909125194E+03  0.15294330000E+03 0.  0.
<mgrwt>
<rscale>  0 0.49274358E+03</rscale>
<asrwt>0</asrwt>
<pdfrwt beam="1">  1        2 0.52389166E+00 0.66996150E+03</pdfrwt>
<pdfrwt beam="2">  1       -2 0.17891563E-01 0.66996150E+03</pdfrwt>
<totfact> 0.26646984E+01</totfact>
</mgrwt>
</event>
<event>
 4    1  0.8287789E-007  0.7715883E+03  0.7818608E-02  0.9775981E-01
         -2   -1    0    0    0  501 -0.00000000000E+00  0.00000000000E+00  0.28956964113E+03  0.28956964115E+03  0.25500000000E-02 0.  1.
          2   -1    0    0  501    0  0.00000000000E+00 -0.00000000000E+00 -0.14913562869E+04  0.14913562869E+04  0.25500000000E-02 0. -1.
    8880023    1    1    2    0    0  0.85256026727E+02 -0.39277173252E+03 -0.10920127220E+04  0.13371014230E+04  0.65864270000E+03 0.  0.
    8880022    1    1    2    0    0 -0.85256026727E+02  0.39277173252E+03 -0.10977392373E+03  0.44382450508E+03  0.15294330000E+03 0.  0.
<mgrwt>
<rscale>  0 0.66667641E+03</rscale>
<asrwt>0</asrwt>
<pdfrwt beam="1">  1        2 0.22943943E+00 0.77158825E+03</pdfrwt>
<pdfrwt beam="2">  1       -2 0.44549176E-01 0.77158825E+03</pdfrwt>
<totfact> 0.62476972E+01</totfact>
</mgrwt>
</event>
<event>
 4    1  0.8287789E-007  0.6745766E+03  0.7818608E-02  0.1012574E+00
          2   -1    0    0  501    0  0.00000000000E+00  0.00000000000E+00  0.14367936863E+04  0.14367936863E+04  0.25500000000E-02 0. -1.
         -2   -1    0    0    0  501 -0.00000000000E+00 -0.00000000000E+00 -0.16970258702E+03  0.16970258704E+03  0.25500000000E-02 0.  1.
    8880023    1    1    2    0    0  0.14399288533E+03 -0.22570252476E+02  0.12137258043E+04  0.13885906170E+04  0.65864270000E+03 0.  0.
    8880022    1    1    2    0    0 -0.14399288533E+03  0.22570252476E+02  0.53365294916E+02  0.21790565628E+03  0.15294330000E+03 0.  0.
<mgrwt>
<rscale>  0 0.50464145E+03</rscale>
<asrwt>0</asrwt>
<pdfrwt beam="1">  1        2 0.22104519E+00 0.67457659E+03</pdfrwt>
<pdfrwt beam="2">  1       -2 0.26108090E-01 0.67457659E+03</pdfrwt>
<totfact> 0.18634406E+02</totfact>
</mgrwt>
</event>
<event>
 4    1  0.8287789E-007  0.6773759E+03  0.7818608E-02  0.1010849E+00
          2   -1    0    0  501    0  0.00000000000E+00  0.00000000000E+00  0.78016014112E+03  0.78016014113E+03  0.25500000000E-02 0. -1.
         -2   -1    0    0    0  501 -0.00000000000E+00 -0.00000000000E+00 -0.30100717268E+03  0.30100717269E+03  0.25500000000E-02 0.  1.
    8880023    1    1    2    0    0  0.15769817782E+03  0.12617670275E+02  0.52425019355E+03  0.85654911861E+03  0.65864270000E+03 0. -1.
    8880022    1    1    2    0    0 -0.15769817782E+03 -0.12617670275E+02 -0.45097225109E+02  0.22461819521E+03  0.15294330000E+03 0.  0.
<mgrwt>
<rscale>  0 0.51138729E+03</rscale>
<asrwt>0</asrwt>
<pdfrwt beam="1">  1        2 0.12002464E+00 0.67737591E+03</pdfrwt>
<pdfrwt beam="2">  1       -2 0.46308797E-01 0.67737591E+03</pdfrwt>
<totfact> 0.15979378E+02</totfact>
</mgrwt>
</event>
<event>
 4    1  0.8287789E-007  0.1087113E+04  0.7818608E-02  0.9275542E-01
         -2   -1    0    0    0  501 -0.00000000000E+00  0.00000000000E+00  0.74220585980E+03  0.74220585980E+03  0.25500000000E-02 0.  1.
          2   -1    0    0  501    0  0.00000000000E+00 -0.00000000000E+00 -0.17755441296E+04  0.17755441296E+04  0.25500000000E-02 0. -1.
    8880023    1    1    2    0    0  0.86206596640E+03 -0.69612070082E+02 -0.12049249928E+04  0.16228548965E+04  0.65864270000E+03 0.  1.
    8880022    1    1    2    0    0 -0.86206596640E+03  0.69612070082E+02  0.17158672297E+03  0.89489509287E+03  0.15294330000E+03 0.  0.
<mgrwt>
<rscale>  0 0.10306602E+04</rscale>
<asrwt>0</asrwt>
<pdfrwt beam="1">  1        2 0.27316063E+00 0.10871126E+04</pdfrwt>
<pdfrwt beam="2">  1       -2 0.11418552E+00 0.10871126E+04</pdfrwt>
<totfact> 0.52730999E+00</totfact>
</mgrwt>
</event>
<event>
 4    1  0.8287789E-007  0.8028469E+03  0.7818608E-02  0.9704674E-01
          2   -1    0    0  501    0  0.00000000000E+00  0.00000000000E+00  0.14840913806E+04  0.14840913806E+04  0.25500000000E-02 0. -1.
         -2   -1    0    0    0  501 -0.00000000000E+00 -0.00000000000E+00 -0.80907603310E+03  0.80907603311E+03  0.25500000000E-02 0.  1.
    8880023    1    1    2    0    0  0.40633233198E+03 -0.21365170443E+03  0.12846177577E+04  0.15148617113E+04  0.65864270000E+03 0. -1.
    8880022    1    1    2    0    0 -0.40633233198E+03  0.21365170443E+03 -0.60960241019E+03  0.77830570237E+03  0.15294330000E+03 0.  0.
<mgrwt>
<rscale>  0 0.70739194E+03</rscale>
<asrwt>0</asrwt>
<pdfrwt beam="1">  1        2 0.22832175E+00 0.80284695E+03</pdfrwt>
<pdfrwt beam="2">  1       -2 0.12447324E+00 0.80284695E+03</pdfrwt>
<totfact> 0.63895469E+00</totfact>
</mgrwt>
</event>
<event>
 4    1  0.8287789E-007  0.6998806E+03  0.7818608E-02  0.9997697E-01
         -2   -1    0    0    0  501 -0.00000000000E+00  0.00000000000E+00  0.13831659497E+03  0.13831659500E+03  0.25500000000E-02 0.  1.
          2   -1    0    0  501    0  0.00000000000E+00 -0.00000000000E+00 -0.21804602388E+04  0.21804602388E+04  0.25500000000E-02 0. -1.
    8880023    1    1    2    0    0  0.73364853400E+02 -0.22503375547E+03 -0.18492947671E+04  0.19773021860E+04  0.65864270000E+03 0. -1.
    8880022    1    1    2    0    0 -0.73364853400E+02  0.22503375547E+03 -0.19284887667E+03  0.34147464776E+03  0.15294330000E+03 0.  0.
<mgrwt>
<rscale>  0 0.55751332E+03</rscale>
<asrwt>0</asrwt>
<pdfrwt beam="1">  1        2 0.33545540E+00 0.69988056E+03</pdfrwt>
<pdfrwt beam="2">  1       -2 0.21279478E-01 0.69988056E+03</pdfrwt>
<totfact> 0.10493807E+02</totfact>
</mgrwt>
</event>
<event>
 4    1  0.8287789E-007  0.6956564E+03  0.7818608E-02  0.1001572E+00
         -2   -1    0    0    0  501 -0.00000000000E+00  0.00000000000E+00  0.55507384987E+03  0.55507384988E+03  0.25500000000E-02 0.  1.
          2   -1    0    0  501    0  0.00000000000E+00 -0.00000000000E+00 -0.47058832931E+03  0.47058832932E+03  0.25500000000E-02 0. -1.
    8880023    1    1    2    0    0 -0.19894203482E+03  0.10271133667E+03 -0.92629959244E+02  0.70179631483E+03  0.65864270000E+03 0. -1.
    8880022    1    1    2    0    0  0.19894203482E+03 -0.10271133667E+03  0.17711547980E+03  0.32386586436E+03  0.15294330000E+03 0.  0.
<mgrwt>
<rscale>  0 0.54966257E+03</rscale>
<asrwt>0</asrwt>
<pdfrwt beam="1">  1        2 0.72398205E-01 0.69565635E+03</pdfrwt>
<pdfrwt beam="2">  1       -2 0.85395977E-01 0.69565635E+03</pdfrwt>
<totfact> 0.79889478E+01</totfact>
</mgrwt>
</event>
<event>
 4    1  0.8287789E-007  0.6986304E+03  0.7818608E-02  0.1000293E+00
          2   -1    0    0  501    0  0.00000000000E+00  0.00000000000E+00  0.10283159320E+04  0.10283159320E+04  0.25500000000E-02 0. -1.
         -2   -1    0    0    0  501 -0.00000000000E+00 -0.00000000000E+00 -0.38519327974E+03  0.38519327974E+03  0.25500000000E-02 0.  1.
    8880023    1    1    2    0    0 -0.66613328482E+02  0.22324172975E+03  0.82473766324E+03  0.10808684586E+04  0.65864270000E+03 0.  0.
    8880022    1    1    2    0    0  0.66613328482E+02 -0.22324172975E+03 -0.18161501095E+03  0.33264075314E+03  0.15294330000E+03 0.  0.
<mgrwt>
<rscale>  0 0.55521906E+03</rscale>
<asrwt>0</asrwt>
<pdfrwt beam="1">  1        2 0.15820245E+00 0.69863038E+03</pdfrwt>
<pdfrwt beam="2">  1       -2 0.59260506E-01 0.69863038E+03</pdfrwt>
<totfact> 0.65496849E+01</totfact>
</mgrwt>
</event>
<event>
 4    1  0.8287789E-007  0.6720276E+03  0.7818608E-02  0.1014249E+00
         -2   -1    0    0    0  501 -0.00000000000E+00  0.00000000000E+00  0.42770204819E+03  0.42770204820E+03  0.25500000000E-02 0.  1.
          2   -1    0    0  501    0  0.00000000000E+00 -0.00000000000E+00 -0.90107131471E+03  0.90107131472E+03  0.25500000000E-02 0. -1.
    8880023    1    1    2    0    0 -0.12476840386E+03  0.47368722088E+02 -0.73612447098E+03  0.99674489889E+03  0.65864270000E+03 0. -1.
    8880022    1    1    2    0    0  0.12476840386E+03 -0.47368722088E+02  0.26275520446E+03  0.33202846402E+03  0.15294330000E+03 0.  0.
<mgrwt>
<rscale>  0 0.49820254E+03</rscale>
<asrwt>0</asrwt>
<pdfrwt beam="1">  1        2 0.13862636E+00 0.67202765E+03</pdfrwt>
<pdfrwt beam="2">  1       -2 0.65800315E-01 0.67202765E+03</pdfrwt>
<totfact> 0.63531557E+01</totfact>
</mgrwt>
</event>
<event>
 4    1  0.8287789E-007  0.7098299E+03  0.7818608E-02  0.9958633E-01
          2   -1    0    0  501    0  0.00000000000E+00  0.00000000000E+00  0.43806332926E+03  0.43806332927E+03  0.25500000000E-02 0. -1.
         -2   -1    0    0    0  501 -0.00000000000E+00 -0.00000000000E+00 -0.10073465983E+04  0.10073465983E+04  0.25500000000E-02 0.  1.
    8880023    1    1    2    0    0 -0.23567714247E+03 -0.12043501678E+03  0.93086536319E+02  0.71590754868E+03  0.65864270000E+03 0. -1.
    8880022    1    1    2    0    0  0.23567714247E+03  0.12043501678E+03 -0.66236980538E+03  0.72950237891E+03  0.15294330000E+03 0.  0.
<mgrwt>
<rscale>  0 0.57501915E+03</rscale>
<asrwt>0</asrwt>
<pdfrwt beam="1">  1        2 0.67394358E-01 0.70982992E+03</pdfrwt>
<pdfrwt beam="2">  1       -2 0.15497640E+00 0.70982992E+03</pdfrwt>
<totfact> 0.20033982E+01</totfact>
</mgrwt>
</event>
<event>
 4    1  0.8287789E-007  0.6596641E+03  0.7818608E-02  0.1024503E+00
          2   -1    0    0  501    0  0.00000000000E+00  0.00000000000E+00  0.14854215482E+04  0.14854215482E+04  0.25500000000E-02 0. -1.
         -2   -1    0    0    0  501 -0.00000000000E+00 -0.00000000000E+00 -0.38512137502E+03  0.38512137503E+03  0.25500000000E-02 0.  1.
    8880023    1    1    2    0    0  0.32882997302E+02 -0.16287565039E+02  0.13912963710E+04  0.15397604926E+04  0.65864270000E+03 0. -1.
    8880022    1    1    2    0    0 -0.32882997302E+02  0.16287565039E+02 -0.29099619781E+03  0.33078243067E+03  0.15294330000E+03 0.  0.
<mgrwt>
<rscale>  0 0.46095999E+03</rscale>
<asrwt>0</asrwt>
<pdfrwt beam="1">  1        2 0.22852638E+00 0.65966414E+03</pdfrwt>
<pdfrwt beam="2">  1       -2 0.59249445E-01 0.65966414E+03</pdfrwt>
<totfact> 0.35568116E+01</totfact>
</mgrwt>
</event>
<event>
 4    1  0.8287789E-007  0.6718212E+03  0.7818608E-02  0.1014390E+00
          2   -1    0    0  501    0  0.00000000000E+00  0.00000000000E+00  0.30842072120E+04  0.30842072120E+04  0.25500000000E-02 0. -1.
         -2   -1    0    0    0  501 -0.00000000000E+00 -0.00000000000E+00 -0.11847645831E+03  0.11847645834E+03  0.25500000000E-02 0.  1.
    8880023    1    1    2    0    0 -0.96967886886E+02  0.90170425111E+02  0.29186568173E+04  0.29949793489E+04  0.65864270000E+03 0. -1.
    8880022    1    1    2    0    0  0.96967886886E+02 -0.90170425111E+02  0.47073936356E+02  0.20770432145E+03  0.15294330000E+03 0.  0.
<mgrwt>
<rscale>  0 0.49766720E+03</rscale>
<asrwt>0</asrwt>
<pdfrwt beam="1">  1        2 0.47449341E+00 0.67182117E+03</pdfrwt>
<pdfrwt beam="2">  1       -2 0.18227148E-01 0.67182117E+03</pdfrwt>
<totfact> 0.41443306E+01</totfact>
</mgrwt>
</event>
<event>
 4    1  0.8287789E-007  0.2013036E+04  0.7818608E-02  0.8613032E-01
         -2   -1    0    0    0  501 -0.00000000000E+00  0.00000000000E+00  0.13377552229E+04  0.13377552229E+04  0.25500000000E-02 0.  1.
          2   -1    0    0  501    0  0.00000000000E+00 -0.00000000000E+00 -0.44350825130E+04  0.44350825130E+04  0.25500000000E-02 0. -1.
    8880023    1    1    2    0    0  0.53037021209E+03  0.18268038392E+04 -0.32876543588E+04  0.38549949699E+04  0.65864270000E+03 0.  0.
    8880022    1    1    2    0    0 -0.53037021209E+03 -0.18268038392E+04  0.19032706866E+03  0.19178427659E+04  0.15294330000E+03 0.  0.
<mgrwt>
<rscale>  0 0.19863449E+04</rscale>
<asrwt>0</asrwt>
<pdfrwt beam="1">  1        2 0.68232038E+00 0.20130363E+04</pdfrwt>
<pdfrwt beam="2">  1       -2 0.20580850E+00 0.20130363E+04</pdfrwt>
<totfact> 0.15548508E-02</totfact>
</mgrwt>
</event>
<event>
 4    1  0.8287789E-007  0.6671361E+03  0.7818608E-02  0.1017805E+00
         -2   -1    0    0    0  501 -0.00000000000E+00  0.00000000000E+00  0.71458668222E+03  0.71458668223E+03  0.25500000000E-02 0.  1.
          2   -1    0    0  501    0  0.00000000000E+00 -0.00000000000E+00 -0.45028681458E+03  0.45028681459E+03  0.25500000000E-02 0. -1.
    8880023    1    1    2    0    0  0.28719663364E+02  0.10215457320E+03 -0.17334116866E+03  0.68928785199E+03  0.65864270000E+03 0. -1.
    8880022    1    1    2    0    0 -0.28719663364E+02 -0.10215457320E+03  0.43764103630E+03  0.47558564482E+03  0.15294330000E+03 0.  0.
<mgrwt>
<rscale>  0 0.48487179E+03</rscale>
<asrwt>0</asrwt>
<pdfrwt beam="1">  1        2 0.69274895E-01 0.66713610E+03</pdfrwt>
<pdfrwt beam="2">  1       -2 0.10993641E+00 0.66713610E+03</pdfrwt>
<totfact> 0.46522935E+01</totfact>
</mgrwt>
</event>
<event>
 4    1  0.8287789E-007  0.1485901E+04  0.7818608E-02  0.8919656E-01
         -2   -1    0    0    0  501 -0.00000000000E+00  0.00000000000E+00  0.18634970200E+04  0.18634970200E+04  0.25500000000E-02 0.  1.
          2   -1    0    0  501    0  0.00000000000E+00 -0.00000000000E+00 -0.19468380876E+04  0.19468380876E+04  0.25500000000E-02 0. -1.
    8880023    1    1    2    0    0  0.83486563507E+02 -0.13293317391E+04 -0.13191383223E+04  0.19869647703E+04  0.65864270000E+03 0.  0.
    8880022    1    1    2    0    0 -0.83486563507E+02  0.13293317391E+04  0.12357972548E+04  0.18233703372E+04  0.15294330000E+03 0.  0.
<mgrwt>
<rscale>  0 0.14481903E+04</rscale>
<asrwt>0</asrwt>
<pdfrwt beam="1">  1        2 0.29951355E+00 0.14859014E+04</pdfrwt>
<pdfrwt beam="2">  1       -2 0.28669185E+00 0.14859014E+04</pdfrwt>
<totfact> 0.25754992E-01</totfact>
</mgrwt>
</event>
<event>
 4    1  0.8287789E-007  0.8665887E+03  0.7818608E-02  0.9581949E-01
         -2   -1    0    0    0  501 -0.00000000000E+00  0.00000000000E+00  0.38838243400E+03  0.38838243401E+03  0.25500000000E-02 0.  1.
          2   -1    0    0  501    0  0.00000000000E+00 -0.00000000000E+00 -0.15849341703E+04  0.15849341703E+04  0.25500000000E-02 0. -1.
    8880023    1    1    2    0    0  0.49960871020E+03  0.25991696075E+03 -0.32729069169E+03  0.92633422312E+03  0.65864270000E+03 0.  1.
    8880022    1    1    2    0    0 -0.49960871020E+03 -0.25991696075E+03 -0.86926104457E+03  0.10469823811E+04  0.15294330000E+03 0.  0.
<mgrwt>
<rscale>  0 0.78502508E+03</rscale>
<asrwt>0</asrwt>
<pdfrwt beam="1">  1        2 0.24383602E+00 0.86658865E+03</pdfrwt>
<pdfrwt beam="2">  1       -2 0.59751144E-01 0.86658865E+03</pdfrwt>
<totfact> 0.30059348E+01</totfact>
</mgrwt>
</event>
<event>
 4    1  0.8287789E-007  0.6901957E+03  0.7818608E-02  0.1004060E+00
         -2   -1    0    0    0  501 -0.00000000000E+00  0.00000000000E+00  0.27482120935E+03  0.27482120936E+03  0.25500000000E-02 0.  1.
          2   -1    0    0  501    0  0.00000000000E+00 -0.00000000000E+00 -0.13649067436E+04  0.13649067436E+04  0.25500000000E-02 0. -1.
    8880023    1    1    2    0    0  0.19336484152E+03 -0.71902114965E+02 -0.11805043639E+04  0.13674650399E+04  0.65864270000E+03 0. -1.
    8880022    1    1    2    0    0 -0.19336484152E+03  0.71902114965E+02  0.90418829580E+02  0.27226291306E+03  0.15294330000E+03 0.  0.
<mgrwt>
<rscale>  0 0.53905402E+03</rscale>
<asrwt>0</asrwt>
<pdfrwt beam="1">  1        2 0.20998565E+00 0.69019568E+03</pdfrwt>
<pdfrwt beam="2">  1       -2 0.42280187E-01 0.69019568E+03</pdfrwt>
<totfact> 0.82264321E+01</totfact>
</mgrwt>
</event>
<event>
 4    1  0.8287789E-007  0.9204529E+03  0.7818608E-02  0.9493965E-01
          2   -1    0    0  501    0  0.00000000000E+00  0.00000000000E+00  0.14303852833E+04  0.14303852833E+04  0.25500000000E-02 0. -1.
         -2   -1    0    0    0  501 -0.00000000000E+00 -0.00000000000E+00 -0.49856931270E+03  0.49856931270E+03  0.25500000000E-02 0.  1.
    8880023    1    1    2    0    0  0.27693125791E+02  0.64238337061E+03  0.86764401763E+03  0.12649267377E+04  0.65864270000E+03 0.  0.
    8880022    1    1    2    0    0 -0.27693125791E+02 -0.64238337061E+03  0.64171952939E+02  0.66402785831E+03  0.15294330000E+03 0.  0.
<mgrwt>
<rscale>  0 0.84730225E+03</rscale>
<asrwt>0</asrwt>
<pdfrwt beam="1">  1        2 0.22005928E+00 0.92045288E+03</pdfrwt>
<pdfrwt beam="2">  1       -2 0.76702971E-01 0.92045288E+03</pdfrwt>
<totfact> 0.21209333E+01</totfact>
</mgrwt>
</event>
<event>
 4    1  0.8287789E-007  0.7606130E+03  0.7818608E-02  0.9803523E-01
          2   -1    0    0  501    0  0.00000000000E+00  0.00000000000E+00  0.31142672574E+04  0.31142672574E+04  0.25500000000E-02 0. -1.
         -2   -1    0    0    0  501 -0.00000000000E+00 -0.00000000000E+00 -0.74706797281E+03  0.74706797281E+03  0.25500000000E-02 0.  1.
    8880023    1    1    2    0    0  0.33480018604E+03  0.18064008205E+03  0.30068465684E+04  0.31015574307E+04  0.65864270000E+03 0.  0.
    8880022    1    1    2    0    0 -0.33480018604E+03 -0.18064008205E+03 -0.63964728385E+03  0.75977779947E+03  0.15294330000E+03 0.  0.
<mgrwt>
<rscale>  0 0.65173824E+03</rscale>
<asrwt>0</asrwt>
<pdfrwt beam="1">  1        2 0.47911804E+00 0.76061305E+03</pdfrwt>
<pdfrwt beam="2">  1       -2 0.11493353E+00 0.76061305E+03</pdfrwt>
<totfact> 0.93103262E-01</totfact>
</mgrwt>
</event>
<event>
 4    1  0.8287789E-007  0.7198742E+03  0.7818608E-02  0.9923012E-01
          2   -1    0    0  501    0  0.00000000000E+00  0.00000000000E+00  0.11317411221E+04  0.11317411221E+04  0.25500000000E-02 0. -1.
         -2   -1    0    0    0  501 -0.00000000000E+00 -0.00000000000E+00 -0.60691304111E+03  0.60691304112E+03  0.25500000000E-02 0.  1.
    8880023    1    1    2    0    0 -0.71795212696E+01 -0.29044298093E+03  0.95598599129E+03  0.11967155437E+04  0.65864270000E+03 0. -1.
    8880022    1    1    2    0    0  0.71795212696E+01  0.29044298093E+03 -0.43115791031E+03  0.54193861953E+03  0.15294330000E+03 0.  0.
<mgrwt>
<rscale>  0 0.59158883E+03</rscale>
<asrwt>0</asrwt>
<pdfrwt beam="1">  1        2 0.17411402E+00 0.71987421E+03</pdfrwt>
<pdfrwt beam="2">  1       -2 0.93371237E-01 0.71987421E+03</pdfrwt>
<totfact> 0.20648036E+01</totfact>
</mgrwt>
</event>
<event>
 4    1  0.8287789E-007  0.1190654E+04  0.7818608E-02  0.9166261E-01
          2   -1    0    0  501    0  0.00000000000E+00  0.00000000000E+00  0.88142180020E+03  0.88142180021E+03  0.25500000000E-02 0. -1.
         -2   -1    0    0    0  501 -0.00000000000E+00 -0.00000000000E+00 -0.36825395078E+04  0.36825395078E+04  0.25500000000E-02 0.  1.
    8880023    1    1    2    0    0 -0.86744988253E+03 -0.48101714284E+03  0.36278482375E+03  0.12446966799E+04  0.65864270000E+03 0.  0.
    8880022    1    1    2    0    0  0.86744988253E+03  0.48101714284E+03 -0.31639025313E+04  0.33192646281E+04  0.15294330000E+03 0.  0.
<mgrwt>
<rscale>  0 0.11408557E+04</rscale>
<asrwt>0</asrwt>
<pdfrwt beam="1">  1        2 0.13560336E+00 0.11906540E+04</pdfrwt>
<pdfrwt beam="2">  1       -2 0.56654453E+00 0.11906540E+04</pdfrwt>
<totfact> 0.20502237E-02</totfact>
</mgrwt>
</event>
<event>
 4    1  0.8287789E-007  0.8525998E+03  0.7818608E-02  0.9606865E-01
          2   -1    0    0  501    0  0.00000000000E+00  0.00000000000E+00  0.11759916657E+04  0.11759916657E+04  0.25500000000E-02 0. -1.
         -2   -1    0    0    0  501 -0.00000000000E+00 -0.00000000000E+00 -0.81383508848E+03  0.81383508849E+03  0.25500000000E-02 0.  1.
    8880023    1    1    2    0    0 -0.46443218430E+01  0.54138216107E+03  0.87993086978E+03  0.12252366122E+04  0.65864270000E+03 0. -1.
    8880022    1    1    2    0    0  0.46443218430E+01 -0.54138216107E+03 -0.51777429260E+03  0.76459014194E+03  0.15294330000E+03 0.  0.
<mgrwt>
<rscale>  0 0.76843473E+03</rscale>
<asrwt>0</asrwt>
<pdfrwt beam="1">  1        2 0.18092179E+00 0.85259980E+03</pdfrwt>
<pdfrwt beam="2">  1       -2 0.12520540E+00 0.85259980E+03</pdfrwt>
<totfact> 0.94181627E+00</totfact>
</mgrwt>
</event>
<event>
 4    1  0.8287789E-007  0.7055263E+03  0.7818608E-02  0.9975005E-01
         -2   -1    0    0    0  501 -0.00000000000E+00  0.00000000000E+00  0.23375468066E+03  0.23375468067E+03  0.25500000000E-02 0.  1.
          2   -1    0    0  501    0  0.00000000000E+00 -0.00000000000E+00 -0.13641154873E+04  0.13641154873E+04  0.25500000000E-02 0. -1.
    8880023    1    1    2    0    0  0.18734351924E+03 -0.16988110782E+03 -0.10916533661E+04  0.12997978546E+04  0.65864270000E+03 0.  0.
    8880022    1    1    2    0    0 -0.18734351924E+03  0.16988110782E+03 -0.38707440541E+02  0.29807231331E+03  0.15294330000E+03 0.  0.
<mgrwt>
<rscale>  0 0.56759957E+03</rscale>
<asrwt>0</asrwt>
<pdfrwt beam="1">  1        2 0.20986392E+00 0.70552632E+03</pdfrwt>
<pdfrwt beam="2">  1       -2 0.35962259E-01 0.70552632E+03</pdfrwt>
<totfact> 0.11255042E+02</totfact>
</mgrwt>
</event>
<event>
 4    1  0.8895881E-007  0.7664571E+03  0.7818608E-02  0.9788669E-01
          2   -1    0    0  501    0  0.00000000000E+00  0.00000000000E+00  0.15026079083E+04  0.15026079083E+04  0.25500000000E-02 0. -1.
         -2   -1    0    0    0  501 -0.00000000000E+00 -0.00000000000E+00 -0.90590926340E+03  0.90590926340E+03  0.25500000000E-02 0.  1.
    8880023    1    1    2    0    0  0.37359091631E+03 -0.11864308886E+03  0.13461356694E+04  0.15490441576E+04  0.65864270000E+03 0. -1.
    8880022    1    1    2    0    0 -0.37359091631E+03  0.11864308886E+03 -0.74943702454E+03  0.85947301414E+03  0.15294330000E+03 0.  0.
<mgrwt>
<rscale>  0 0.65974214E+03</rscale>
<asrwt>0</asrwt>
<pdfrwt beam="1">  1        2 0.23117045E+00 0.76645715E+03</pdfrwt>
<pdfrwt beam="2">  1       -2 0.13937066E+00 0.76645715E+03</pdfrwt>
<totfact> 0.47049457E+00</totfact>
</mgrwt>
</event>
<event>
 4    1  0.8287789E-007  0.1065238E+04  0.7818608E-02  0.9300783E-01
         -2   -1    0    0    0  501 -0.00000000000E+00  0.00000000000E+00  0.95379538476E+03  0.95379538476E+03  0.25500000000E-02 0.  1.
          2   -1    0    0  501    0  0.00000000000E+00 -0.00000000000E+00 -0.17024295612E+04  0.17024295612E+04  0.25500000000E-02 0. -1.
    8880023    1    1    2    0    0 -0.83189338494E+03 -0.94210929194E+02 -0.12704347292E+04  0.16579315157E+04  0.65864270000E+03 0. -1.
    8880022    1    1    2    0    0  0.83189338494E+03  0.94210929194E+02  0.52180055279E+03  0.99829343031E+03  0.15294330000E+03 0.  1.
<mgrwt>
<rscale>  0 0.10071077E+04</rscale>
<asrwt>0</asrwt>
<pdfrwt beam="1">  1        2 0.26191224E+00 0.10652382E+04</pdfrwt>
<pdfrwt beam="2">  1       -2 0.14673775E+00 0.10652382E+04</pdfrwt>
<totfact> 0.30633092E+00</totfact>
</mgrwt>
</event>
<event>
 4    1  0.8287789E-007  0.7059448E+03  0.7818608E-02  0.9973380E-01
          2   -1    0    0  501    0  0.00000000000E+00  0.00000000000E+00  0.26707988492E+04  0.26707988492E+04  0.25500000000E-02 0. -1.
         -2   -1    0    0    0  501 -0.00000000000E+00 -0.00000000000E+00 -0.16429616408E+03  0.16429616410E+03  0.25500000000E-02 0.  1.
    8880023    1    1    2    0    0  0.25080608093E+03  0.40547757638E+02  0.66489569008E+03  0.96976507250E+03  0.65864270000E+03 0.  0.
    8880022    1    1    2    0    0 -0.25080608093E+03 -0.40547757638E+02  0.18416069950E+04  0.18653299408E+04  0.15294330000E+03 0.  0.
<mgrwt>
<rscale>  0 0.56833057E+03</rscale>
<asrwt>0</asrwt>
<pdfrwt beam="1">  1        2 0.41089214E+00 0.70594477E+03</pdfrwt>
<pdfrwt beam="2">  1       -2 0.25276332E-01 0.70594477E+03</pdfrwt>
<totfact> 0.40892771E+01</totfact>
</mgrwt>
</event>
<event>
 4    1  0.8287789E-007  0.7232682E+03  0.7818608E-02  0.9911679E-01
          2   -1    0    0  501    0  0.00000000000E+00  0.00000000000E+00  0.12595521834E+04  0.12595521834E+04  0.25500000000E-02 0. -1.
         -2   -1    0    0    0  501 -0.00000000000E+00 -0.00000000000E+00 -0.27576624713E+03  0.27576624714E+03  0.25500000000E-02 0.  1.
    8880023    1    1    2    0    0  0.20347536248E+03  0.21887101364E+03  0.95557054052E+03  0.11984289749E+04  0.65864270000E+03 0. -1.
    8880022    1    1    2    0    0 -0.20347536248E+03 -0.21887101364E+03  0.28215395765E+02  0.33688945564E+03  0.15294330000E+03 0.  0.
<mgrwt>
<rscale>  0 0.59698616E+03</rscale>
<asrwt>0</asrwt>
<pdfrwt beam="1">  1        2 0.19377726E+00 0.72326824E+03</pdfrwt>
<pdfrwt beam="2">  1       -2 0.42425577E-01 0.72326824E+03</pdfrwt>
<totfact> 0.93633680E+01</totfact>
</mgrwt>
</event>
<event>
 4    1  0.8287789E-007  0.7481577E+03  0.7818608E-02  0.9836791E-01
         -2   -1    0    0    0  501 -0.00000000000E+00  0.00000000000E+00  0.14079796153E+04  0.14079796153E+04  0.25500000000E-02 0.  1.
          2   -1    0    0  501    0  0.00000000000E+00 -0.00000000000E+00 -0.81947522979E+03  0.81947522980E+03  0.25500000000E-02 0. -1.
    8880023    1    1    2    0    0 -0.14282637981E+02  0.35457829877E+03 -0.61181586888E+03  0.96646708552E+03  0.65864270000E+03 0. -1.
    8880022    1    1    2    0    0  0.14282637981E+02 -0.35457829877E+03  0.12003202544E+04  0.12609877596E+04  0.15294330000E+03 0.  0.
<mgrwt>
<rscale>  0 0.63424950E+03</rscale>
<asrwt>0</asrwt>
<pdfrwt beam="1">  1        2 0.12607311E+00 0.74815772E+03</pdfrwt>
<pdfrwt beam="2">  1       -2 0.21661225E+00 0.74815772E+03</pdfrwt>
<totfact> 0.35515153E+00</totfact>
</mgrwt>
</event>
<event>
 4    1  0.8287789E-007  0.1033564E+04  0.7818608E-02  0.9338905E-01
          2   -1    0    0  501    0  0.00000000000E+00  0.00000000000E+00  0.26240190146E+04  0.26240190146E+04  0.25500000000E-02 0. -1.
         -2   -1    0    0    0  501 -0.00000000000E+00 -0.00000000000E+00 -0.32462200206E+03  0.32462200207E+03  0.25500000000E-02 0.  1.
    8880023    1    1    2    0    0 -0.13221210452E+03  0.78547107757E+03  0.12345415224E+04  0.16100769643E+04  0.65864270000E+03 0.  1.
    8880022    1    1    2    0    0  0.13221210452E+03 -0.78547107757E+03  0.10648554902E+04  0.13385640523E+04  0.15294330000E+03 0. -1.
<mgrwt>
<rscale>  0 0.97278722E+03</rscale>
<asrwt>0</asrwt>
<pdfrwt beam="1">  1        2 0.40369524E+00 0.10335643E+04</pdfrwt>
<pdfrwt beam="2">  1       -2 0.49941846E-01 0.10335643E+04</pdfrwt>
<totfact> 0.11291007E+01</totfact>
</mgrwt>
</event>
<event>
 4    1  0.8287789E-007  0.8921958E+03  0.7818608E-02  0.9538678E-01
         -2   -1    0    0    0  501 -0.00000000000E+00  0.00000000000E+00  0.10915183631E+04  0.10915183631E+04  0.25500000000E-02 0.  1.
          2   -1    0    0  501    0  0.00000000000E+00 -0.00000000000E+00 -0.17114592463E+04  0.17114592463E+04  0.25500000000E-02 0. -1.
    8880023    1    1    2    0    0 -0.59778228978E+03 -0.69709307893E+02 -0.14884194061E+04  0.17353401938E+04  0.65864270000E+03 0. -1.
    8880022    1    1    2    0    0  0.59778228978E+03  0.69709307893E+02  0.86847852286E+03  0.10676374156E+04  0.15294330000E+03 0.  0.
<mgrwt>
<rscale>  0 0.81491347E+03</rscale>
<asrwt>0</asrwt>
<pdfrwt beam="1">  1        2 0.26330142E+00 0.89219575E+03</pdfrwt>
<pdfrwt beam="2">  1       -2 0.16792590E+00 0.89219575E+03</pdfrwt>
<totfact> 0.21509109E+00</totfact>
</mgrwt>
</event>
<event>
 4    1  0.8287789E-007  0.9339121E+03  0.7818608E-02  0.9473649E-01
          2   -1    0    0  501    0  0.00000000000E+00  0.00000000000E+00  0.24350634069E+04  0.24350634069E+04  0.25500000000E-02 0. -1.
         -2   -1    0    0    0  501 -0.00000000000E+00 -0.00000000000E+00 -0.44886629198E+03  0.44886629199E+03  0.25500000000E-02 0.  1.
    8880023    1    1    2    0    0 -0.29832238870E+03  0.59108830130E+03  0.19966945155E+04  0.22043096021E+04  0.65864270000E+03 0. -1.
    8880022    1    1    2    0    0  0.29832238870E+03 -0.59108830130E+03 -0.10497400560E+02  0.67962009679E+03  0.15294330000E+03 0.  0.
<mgrwt>
<rscale>  0 0.86254767E+03</rscale>
<asrwt>0</asrwt>
<pdfrwt beam="1">  1        2 0.37462514E+00 0.93391211E+03</pdfrwt>
<pdfrwt beam="2">  1       -2 0.69056353E-01 0.93391211E+03</pdfrwt>
<totfact> 0.74029536E+00</totfact>
</mgrwt>
</event>
<event>
 4    1  0.8287789E-007  0.1053339E+04  0.7818608E-02  0.9314878E-01
         -2   -1    0    0    0  501 -0.00000000000E+00  0.00000000000E+00  0.18123574016E+04  0.18123574016E+04  0.25500000000E-02 0.  1.
          2   -1    0    0  501    0  0.00000000000E+00 -0.00000000000E+00 -0.72783274506E+03  0.72783274506E+03  0.25500000000E-02 0. -1.
    8880023    1    1    2    0    0  0.71307900501E+03 -0.40893844293E+03 -0.13458635588E+03  0.10619020722E+04  0.65864270000E+03 0.  0.
    8880022    1    1    2    0    0 -0.71307900501E+03  0.40893844293E+03  0.12191110125E+04  0.14782880745E+04  0.15294330000E+03 0.  0.
<mgrwt>
<rscale>  0 0.99424580E+03</rscale>
<asrwt>0</asrwt>
<pdfrwt beam="1">  1        2 0.11197427E+00 0.10533388E+04</pdfrwt>
<pdfrwt beam="2">  1       -2 0.27882422E+00 0.10533388E+04</pdfrwt>
<totfact> 0.16614237E+00</totfact>
</mgrwt>
</event>
<event>
 4    1  0.8287789E-007  0.7710537E+03  0.7818608E-02  0.9777288E-01
         -2   -1    0    0    0  501 -0.00000000000E+00  0.00000000000E+00  0.66161437162E+03  0.66161437162E+03  0.25500000000E-02 0.  1.
          2   -1    0    0  501    0  0.00000000000E+00 -0.00000000000E+00 -0.27854106439E+04  0.27854106439E+04  0.25500000000E-02 0. -1.
    8880023    1    1    2    0    0 -0.39926895177E+03  0.36026246910E+02 -0.26547003889E+04  0.27644091497E+04  0.65864270000E+03 0. -1.
    8880022    1    1    2    0    0  0.39926895177E+03 -0.36026246910E+02  0.53090411653E+03  0.68261586583E+03  0.15294330000E+03 0.  0.
<mgrwt>
<rscale>  0 0.66595784E+03</rscale>
<asrwt>0</asrwt>
<pdfrwt beam="1">  1        2 0.42852471E+00 0.77105369E+03</pdfrwt>
<pdfrwt beam="2">  1       -2 0.10178683E+00 0.77105369E+03</pdfrwt>
<totfact> 0.19724393E+00</totfact>
</mgrwt>
</event>
<event>
 4    1  0.8287789E-007  0.9576708E+03  0.7818608E-02  0.9439162E-01
         -2   -1    0    0    0  501 -0.00000000000E+00  0.00000000000E+00  0.20194240520E+04  0.20194240520E+04  0.25500000000E-02 0.  1.
          2   -1    0    0  501    0  0.00000000000E+00 -0.00000000000E+00 -0.14362294879E+04  0.14362294879E+04  0.25500000000E-02 0. -1.
    8880023    1    1    2    0    0  0.63253134587E+03  0.28849134780E+03 -0.12001942551E+04  0.15354476929E+04  0.65864270000E+03 0.  0.
    8880022    1    1    2    0    0 -0.63253134587E+03 -0.28849134780E+03  0.17833888193E+04  0.19202058470E+04  0.15294330000E+03 0.  0.
<mgrwt>
<rscale>  0 0.88921675E+03</rscale>
<asrwt>0</asrwt>
<pdfrwt beam="1">  1        2 0.22095838E+00 0.95767080E+03</pdfrwt>
<pdfrwt beam="2">  1       -2 0.31068062E+00 0.95767080E+03</pdfrwt>
<totfact> 0.38229957E-01</totfact>
</mgrwt>
</event>
<event>
 4    1  0.8287789E-007  0.1122950E+04  0.7818608E-02  0.9235924E-01
          2   -1    0    0  501    0  0.00000000000E+00  0.00000000000E+00  0.23857718261E+04  0.23857718261E+04  0.25500000000E-02 0. -1.
         -2   -1    0    0    0  501 -0.00000000000E+00 -0.00000000000E+00 -0.53538300616E+03  0.53538300616E+03  0.25500000000E-02 0.  1.
    8880023    1    1    2    0    0 -0.83968412085E+03 -0.34948211894E+03  0.16189443799E+04  0.19702787330E+04  0.65864270000E+03 0.  0.
    8880022    1    1    2    0    0  0.83968412085E+03  0.34948211894E+03  0.23144444002E+03  0.95087609924E+03  0.15294330000E+03 0.  0.
<mgrwt>
<rscale>  0 0.10690204E+04</rscale>
<asrwt>0</asrwt>
<pdfrwt beam="1">  1        2 0.36704183E+00 0.11229503E+04</pdfrwt>
<pdfrwt beam="2">  1       -2 0.82366615E-01 0.11229503E+04</pdfrwt>
<totfact> 0.52063113E+00</totfact>
</mgrwt>
</event>
<event>
 4    1  0.8287789E-007  0.7175281E+03  0.7818608E-02  0.9931040E-01
         -2   -1    0    0    0  501 -0.00000000000E+00  0.00000000000E+00  0.87441225191E+03  0.87441225192E+03  0.25500000000E-02 0.  1.
          2   -1    0    0  501    0  0.00000000000E+00 -0.00000000000E+00 -0.67452025782E+03  0.67452025782E+03  0.25500000000E-02 0. -1.
    8880023    1    1    2    0    0  0.28417996209E+03 -0.16677072200E+02 -0.43318346309E+03  0.83814944643E+03  0.65864270000E+03 0. -1.
    8880022    1    1    2    0    0 -0.28417996209E+03  0.16677072200E+02  0.63307545718E+03  0.71078306331E+03  0.15294330000E+03 0.  0.
<mgrwt>
<rscale>  0 0.58780236E+03</rscale>
<asrwt>0</asrwt>
<pdfrwt beam="1">  1        2 0.10377235E+00 0.71752811E+03</pdfrwt>
<pdfrwt beam="2">  1       -2 0.13452496E+00 0.71752811E+03</pdfrwt>
<totfact> 0.17387767E+01</totfact>
</mgrwt>
</event>
<event>
 4    1  0.8287789E-007  0.9644058E+03  0.7818608E-02  0.9429683E-01
          2   -1    0    0  501    0  0.00000000000E+00  0.00000000000E+00  0.28040759005E+04  0.28040759005E+04  0.25500000000E-02 0. -1.
         -2   -1    0    0    0  501 -0.00000000000E+00 -0.00000000000E+00 -0.49578034099E+03  0.49578034100E+03  0.25500000000E-02 0.  1.
    8880023    1    1    2    0    0  0.69922906170E+03  0.85715031858E+02  0.23872292016E+04  0.25746731472E+04  0.65864270000E+03 0.  0.
    8880022    1    1    2    0    0 -0.69922906170E+03 -0.85715031858E+02 -0.78933642121E+02  0.72518309432E+03  0.15294330000E+03 0.  0.
<mgrwt>
<rscale>  0 0.89672602E+03</rscale>
<asrwt>0</asrwt>
<pdfrwt beam="1">  1        2 0.43139629E+00 0.96440580E+03</pdfrwt>
<pdfrwt beam="2">  1       -2 0.76273899E-01 0.96440580E+03</pdfrwt>
<totfact> 0.36151636E+00</totfact>
</mgrwt>
</event>
<event>
 4    1  0.8287789E-007  0.7948930E+03  0.7818608E-02  0.9721949E-01
          2   -1    0    0  501    0  0.00000000000E+00  0.00000000000E+00  0.20031790285E+04  0.20031790285E+04  0.25500000000E-02 0. -1.
         -2   -1    0    0    0  501 -0.00000000000E+00 -0.00000000000E+00 -0.29610754626E+03  0.29610754627E+03  0.25500000000E-02 0.  1.
    8880023    1    1    2    0    0  0.20752835870E+03  0.39367064587E+03  0.16419381393E+04  0.18242301545E+04  0.65864270000E+03 0. -1.
    8880022    1    1    2    0    0 -0.20752835870E+03 -0.39367064587E+03  0.65133342981E+02  0.47505642029E+03  0.15294330000E+03 0.  0.
<mgrwt>
<rscale>  0 0.69724848E+03</rscale>
<asrwt>0</asrwt>
<pdfrwt beam="1">  1        2 0.30818140E+00 0.79489295E+03</pdfrwt>
<pdfrwt beam="2">  1       -2 0.45555005E-01 0.79489295E+03</pdfrwt>
<totfact> 0.31214517E+01</totfact>
</mgrwt>
</event>
<event>
 4    1  0.8287789E-007  0.1141774E+04  0.7818608E-02  0.9215912E-01
          2   -1    0    0  501    0  0.00000000000E+00  0.00000000000E+00  0.21389992730E+04  0.21389992730E+04  0.25500000000E-02 0. -1.
         -2   -1    0    0    0  501 -0.00000000000E+00 -0.00000000000E+00 -0.52051407182E+03  0.52051407183E+03  0.25500000000E-02 0.  1.
    8880023    1    1    2    0    0 -0.87285459773E+03  0.32857488802E+03  0.68697541463E+03  0.13325096744E+04  0.65864270000E+03 0.  0.
    8880022    1    1    2    0    0  0.87285459773E+03 -0.32857488802E+03  0.93150978651E+03  0.13270036704E+04  0.15294330000E+03 0.  0.
<mgrwt>
<rscale>  0 0.10890687E+04</rscale>
<asrwt>0</asrwt>
<pdfrwt beam="1">  1        2 0.32907681E+00 0.11417735E+04</pdfrwt>
<pdfrwt beam="2">  1       -2 0.80079088E-01 0.11417735E+04</pdfrwt>
<totfact> 0.76184496E+00</totfact>
</mgrwt>
</event>
<event>
 4    1  0.8287789E-007  0.6986731E+03  0.7818608E-02  0.1000275E+00
         -2   -1    0    0    0  501 -0.00000000000E+00  0.00000000000E+00  0.32673552877E+03  0.32673552878E+03  0.25500000000E-02 0.  1.
          2   -1    0    0  501    0  0.00000000000E+00 -0.00000000000E+00 -0.15899143121E+04  0.15899143121E+04  0.25500000000E-02 0. -1.
    8880023    1    1    2    0    0 -0.22522093061E+03  0.60078901661E+02 -0.14301442360E+04  0.15916836005E+04  0.65864270000E+03 0. -1.
    8880022    1    1    2    0    0  0.22522093061E+03 -0.60078901661E+02  0.16696545266E+03  0.32496624041E+03  0.15294330000E+03 0.  0.
<mgrwt>
<rscale>  0 0.55529791E+03</rscale>
<asrwt>0</asrwt>
<pdfrwt beam="1">  1        2 0.24460220E+00 0.69867313E+03</pdfrwt>
<pdfrwt beam="2">  1       -2 0.50267005E-01 0.69867313E+03</pdfrwt>
<totfact> 0.43545427E+01</totfact>
</mgrwt>
</event>
<event>
 4    1  0.8287789E-007  0.7287132E+03  0.7818608E-02  0.9894136E-01
         -2   -1    0    0    0  501 -0.00000000000E+00  0.00000000000E+00  0.22206776530E+03  0.22206776531E+03  0.25500000000E-02 0.  1.
          2   -1    0    0  501    0  0.00000000000E+00 -0.00000000000E+00 -0.20218628272E+04  0.20218628272E+04  0.25500000000E-02 0. -1.
    8880023    1    1    2    0    0 -0.93568554464E+02  0.29741829795E+03 -0.17467011475E+04  0.18926140186E+04  0.65864270000E+03 0. -1.
    8880022    1    1    2    0    0  0.93568554464E+02 -0.29741829795E+03 -0.53093914357E+02  0.35131657390E+03  0.15294330000E+03 0.  0.
<mgrwt>
<rscale>  0 0.60546335E+03</rscale>
<asrwt>0</asrwt>
<pdfrwt beam="1">  1        2 0.31105581E+00 0.72871320E+03</pdfrwt>
<pdfrwt beam="2">  1       -2 0.34164273E-01 0.72871320E+03</pdfrwt>
<totfact> 0.53813953E+01</totfact>
</mgrwt>
</event>
<event>
 4    1  0.8287789E-007  0.6820796E+03  0.7818608E-02  0.1008171E+00
          2   -1    0    0  501    0  0.00000000000E+00  0.00000000000E+00  0.13694336225E+04  0.13694336225E+04  0.25500000000E-02 0. -1.
         -2   -1    0    0    0  501 -0.00000000000E+00 -0.00000000000E+00 -0.15728603840E+03  0.15728603842E+03  0.25500000000E-02 0.  1.
    8880023    1    1    2    0    0  0.16020478355E+03 -0.75873939261E+02  0.78760292203E+03  0.10418977860E+04  0.65864270000E+03 0.  0.
    8880022    1    1    2    0    0 -0.16020478355E+03  0.75873939261E+02  0.42454466203E+03  0.48482187492E+03  0.15294330000E+03 0.  1.
<mgrwt>
<rscale>  0 0.52208093E+03</rscale>
<asrwt>0</asrwt>
<pdfrwt beam="1">  1        2 0.21068209E+00 0.68207964E+03</pdfrwt>
<pdfrwt beam="2">  1       -2 0.24197852E-01 0.68207964E+03</pdfrwt>
<totfact> 0.23306360E+02</totfact>
</mgrwt>
</event>
<event>
 4    1  0.8287789E-007  0.7028145E+03  0.7818608E-02  0.9985720E-01
         -2   -1    0    0    0  501 -0.00000000000E+00  0.00000000000E+00  0.28234690257E+03  0.28234690259E+03  0.25500000000E-02 0.  1.
          2   -1    0    0  501    0  0.00000000000E+00 -0.00000000000E+00 -0.13405144435E+04  0.13405144435E+04  0.25500000000E-02 0. -1.
    8880023    1    1    2    0    0  0.24336422039E+03 -0.30198026584E+02 -0.11247488978E+04  0.13262761228E+04  0.65864270000E+03 0. -1.
    8880022    1    1    2    0    0 -0.24336422039E+03  0.30198026584E+02  0.66581356872E+02  0.29658522329E+03  0.15294330000E+03 0.  0.
<mgrwt>
<rscale>  0 0.56280854E+03</rscale>
<asrwt>0</asrwt>
<pdfrwt beam="1">  1        2 0.20623299E+00 0.70281454E+03</pdfrwt>
<pdfrwt beam="2">  1       -2 0.43437986E-01 0.70281454E+03</pdfrwt>
<totfact> 0.80427136E+01</totfact>
</mgrwt>
</event>
<event>
 4    1  0.8287789E-007  0.1058489E+04  0.7818608E-02  0.9308746E-01
          2   -1    0    0  501    0  0.00000000000E+00  0.00000000000E+00  0.13941783911E+04  0.13941783911E+04  0.25500000000E-02 0. -1.
         -2   -1    0    0    0  501 -0.00000000000E+00 -0.00000000000E+00 -0.15826239285E+04  0.15826239285E+04  0.25500000000E-02 0.  1.
    8880023    1    1    2    0    0  0.59780864260E+02  0.82644673366E+03  0.10421223357E+04  0.14854013344E+04  0.65864270000E+03 0.  0.
    8880022    1    1    2    0    0 -0.59780864260E+02 -0.82644673366E+03 -0.12305678732E+04  0.14914009852E+04  0.15294330000E+03 0.  0.
<mgrwt>
<rscale>  0 0.99981668E+03</rscale>
<asrwt>0</asrwt>
<pdfrwt beam="1">  1        2 0.21448898E+00 0.10584886E+04</pdfrwt>
<pdfrwt beam="2">  1       -2 0.24348060E+00 0.10584886E+04</pdfrwt>
<totfact> 0.10164319E+00</totfact>
</mgrwt>
</event>
<event>
 4    1  0.8287789E-007  0.6782917E+03  0.7818608E-02  0.1010307E+00
          2   -1    0    0  501    0  0.00000000000E+00  0.00000000000E+00  0.51267685865E+03  0.51267685866E+03  0.25500000000E-02 0. -1.
         -2   -1    0    0    0  501 -0.00000000000E+00 -0.00000000000E+00 -0.23293492560E+04  0.23293492560E+04  0.25500000000E-02 0.  1.
    8880023    1    1    2    0    0  0.10856485115E+03 -0.12034572956E+03  0.27980552712E+03  0.73373752855E+03  0.65864270000E+03 0. -1.
    8880022    1    1    2    0    0 -0.10856485115E+03  0.12034572956E+03 -0.20964779244E+04  0.21082885861E+04  0.15294330000E+03 0.  0.
<mgrwt>
<rscale>  0 0.51352831E+03</rscale>
<asrwt>0</asrwt>
<pdfrwt beam="1">  1        2 0.78873364E-01 0.67829170E+03</pdfrwt>
<pdfrwt beam="2">  1       -2 0.35836142E+00 0.67829170E+03</pdfrwt>
<totfact> 0.88204993E-01</totfact>
</mgrwt>
</event>
<event>
 4    1  0.8287789E-007  0.1107247E+04  0.7818608E-02  0.9253030E-01
          2   -1    0    0  501    0  0.00000000000E+00  0.00000000000E+00  0.35442669089E+04  0.35442669089E+04  0.25500000000E-02 0. -1.
         -2   -1    0    0    0  501 -0.00000000000E+00 -0.00000000000E+00 -0.71174658016E+03  0.71174658017E+03  0.25500000000E-02 0.  1.
    8880023    1    1    2    0    0 -0.48075187182E+03  0.74904193555E+03  0.31180869082E+04  0.33088460763E+04  0.65864270000E+03 0.  0.
    8880022    1    1    2    0    0  0.48075187182E+03 -0.74904193555E+03 -0.28556657945E+03  0.94716741275E+03  0.15294330000E+03 0.  0.
<mgrwt>
<rscale>  0 0.10522444E+04</rscale>
<asrwt>0</asrwt>
<pdfrwt beam="1">  1        2 0.54527182E+00 0.11072472E+04</pdfrwt>
<pdfrwt beam="2">  1       -2 0.10949948E+00 0.11072472E+04</pdfrwt>
<totfact> 0.51019021E-01</totfact>
</mgrwt>
</event>
<event>
 4    1  0.8287789E-007  0.1103933E+04  0.7818608E-02  0.9256689E-01
         -2   -1    0    0    0  501 -0.00000000000E+00  0.00000000000E+00  0.12155343433E+04  0.12155343433E+04  0.25500000000E-02 0.  1.
          2   -1    0    0  501    0  0.00000000000E+00 -0.00000000000E+00 -0.16687792685E+04  0.16687792685E+04  0.25500000000E-02 0. -1.
    8880023    1    1    2    0    0  0.71208731903E+03  0.52705844426E+03 -0.12608360122E+04  0.16758211747E+04  0.65864270000E+03 0. -1.
    8880022    1    1    2    0    0 -0.71208731903E+03 -0.52705844426E+03  0.80759108700E+03  0.12084924370E+04  0.15294330000E+03 0.  0.
<mgrwt>
<rscale>  0 0.10486980E+04</rscale>
<asrwt>0</asrwt>
<pdfrwt beam="1">  1        2 0.25673527E+00 0.11039335E+04</pdfrwt>
<pdfrwt beam="2">  1       -2 0.18700528E+00 0.11039335E+04</pdfrwt>
<totfact> 0.16263178E+00</totfact>
</mgrwt>
</event>
<event>
 4    1  0.8287789E-007  0.8320650E+03  0.7818608E-02  0.9645328E-01
         -2   -1    0    0    0  501 -0.00000000000E+00  0.00000000000E+00  0.19447808003E+03  0.19447808005E+03  0.25500000000E-02 0.  1.
          2   -1    0    0  501    0  0.00000000000E+00 -0.00000000000E+00 -0.27098355408E+04  0.27098355408E+04  0.25500000000E-02 0. -1.
    8880023    1    1    2    0    0  0.22977751514E+03  0.45356839980E+03 -0.19919428980E+04  0.21587423920E+04  0.65864270000E+03 0.  1.
    8880022    1    1    2    0    0 -0.22977751514E+03 -0.45356839980E+03 -0.52341456269E+03  0.74557122880E+03  0.15294330000E+03 0.  0.
<mgrwt>
<rscale>  0 0.74367377E+03</rscale>
<asrwt>0</asrwt>
<pdfrwt beam="1">  1        2 0.41689775E+00 0.83206503E+03</pdfrwt>
<pdfrwt beam="2">  1       -2 0.29919707E-01 0.83206503E+03</pdfrwt>
<totfact> 0.27988893E+01</totfact>
</mgrwt>
</event>
<event>
 4    1  0.8287789E-007  0.8315869E+03  0.7818608E-02  0.9646253E-01
         -2   -1    0    0    0  501 -0.00000000000E+00  0.00000000000E+00  0.50649597569E+03  0.50649597570E+03  0.25500000000E-02 0.  1.
          2   -1    0    0  501    0  0.00000000000E+00 -0.00000000000E+00 -0.12520393929E+04  0.12520393929E+04  0.25500000000E-02 0. -1.
    8880023    1    1    2    0    0 -0.18925144639E+03 -0.47107376383E+03 -0.88080918110E+03  0.12113470274E+04  0.65864270000E+03 0. -1.
    8880022    1    1    2    0    0  0.18925144639E+03  0.47107376383E+03  0.13526576386E+03  0.54718834127E+03  0.15294330000E+03 0.  0.
<mgrwt>
<rscale>  0 0.74309077E+03</rscale>
<asrwt>0</asrwt>
<pdfrwt beam="1">  1        2 0.19262144E+00 0.83158692E+03</pdfrwt>
<pdfrwt beam="2">  1       -2 0.77922458E-01 0.83158692E+03</pdfrwt>
<totfact> 0.26151540E+01</totfact>
</mgrwt>
</event>
<event>
 4    1  0.8287789E-007  0.6637303E+03  0.7818608E-02  0.1020623E+00
         -2   -1    0    0    0  501 -0.00000000000E+00  0.00000000000E+00  0.73992971233E+02  0.73992971277E+02  0.25500000000E-02 0.  1.
          2   -1    0    0  501    0  0.00000000000E+00 -0.00000000000E+00 -0.33118673208E+04  0.33118673208E+04  0.25500000000E-02 0. -1.
    8880023    1    1    2    0    0 -0.81433023439E+02 -0.98147868852E+01 -0.30817675256E+04  0.31524322286E+04  0.65864270000E+03 0. -1.
    8880022    1    1    2    0    0  0.81433023439E+02  0.98147868852E+01 -0.15610682396E+03  0.23342806354E+03  0.15294330000E+03 0.  0.
<mgrwt>
<rscale>  0 0.47462364E+03</rscale>
<asrwt>0</asrwt>
<pdfrwt beam="1">  1        2 0.50951793E+00 0.66373027E+03</pdfrwt>
<pdfrwt beam="2">  1       -2 0.11383537E-01 0.66373027E+03</pdfrwt>
<totfact> 0.65690267E+01</totfact>
</mgrwt>
</event>
<event>
 4    1  0.8287789E-007  0.1237115E+04  0.7818608E-02  0.9121862E-01
          2   -1    0    0  501    0  0.00000000000E+00  0.00000000000E+00  0.15061717370E+04  0.15061717370E+04  0.25500000000E-02 0. -1.
         -2   -1    0    0    0  501 -0.00000000000E+00 -0.00000000000E+00 -0.10503389191E+04  0.10503389191E+04  0.25500000000E-02 0.  1.
    8880023    1    1    2    0    0  0.10457330087E+04  0.55557413041E+02 -0.27888495015E+03  0.12681605471E+04  0.65864270000E+03 0.  0.
    8880022    1    1    2    0    0 -0.10457330087E+04 -0.55557413041E+02  0.73471776803E+03  0.12883501090E+04  0.15294330000E+03 0.  0.
<mgrwt>
<rscale>  0 0.11897662E+04</rscale>
<asrwt>0</asrwt>
<pdfrwt beam="1">  1        2 0.23171873E+00 0.12371153E+04</pdfrwt>
<pdfrwt beam="2">  1       -2 0.16159060E+00 0.12371153E+04</pdfrwt>
<totfact> 0.29876921E+00</totfact>
</mgrwt>
</event>
<event>
 4    1  0.8287789E-007  0.7144070E+03  0.7818608E-02  0.9941986E-01
          2   -1    0    0  501    0  0.00000000000E+00  0.00000000000E+00  0.25059021771E+04  0.25059021771E+04  0.25500000000E-02 0. -1.
         -2   -1    0    0    0  501 -0.00000000000E+00 -0.00000000000E+00 -0.13551038893E+03  0.13551038895E+03  0.25500000000E-02 0.  1.
    8880023    1    1    2    0    0  0.17149510562E+03 -0.21715551703E+03  0.21229526616E+04  0.22399342177E+04  0.65864270000E+03 0.  1.
    8880022    1    1    2    0    0 -0.17149510562E+03  0.21715551703E+03  0.24743912648E+03  0.40147834830E+03  0.15294330000E+03 0.  0.
<mgrwt>
<rscale>  0 0.58268905E+03</rscale>
<asrwt>0</asrwt>
<pdfrwt beam="1">  1        2 0.38552338E+00 0.71440695E+03</pdfrwt>
<pdfrwt beam="2">  1       -2 0.20847754E-01 0.71440695E+03</pdfrwt>
<totfact> 0.71534937E+01</totfact>
</mgrwt>
</event>
<event>
 4    1  0.8287789E-007  0.7146563E+03  0.7818608E-02  0.9941100E-01
          2   -1    0    0  501    0  0.00000000000E+00  0.00000000000E+00  0.15025517977E+04  0.15025517977E+04  0.25500000000E-02 0. -1.
         -2   -1    0    0    0  501 -0.00000000000E+00 -0.00000000000E+00 -0.19806943043E+03  0.19806943045E+03  0.25500000000E-02 0.  1.
    8880023    1    1    2    0    0  0.24718636934E+03  0.12578686986E+03  0.61882400379E+03  0.94534480045E+03  0.65864270000E+03 0.  1.
    8880022    1    1    2    0    0 -0.24718636934E+03 -0.12578686986E+03  0.68565836352E+03  0.75527642774E+03  0.15294330000E+03 0.  0.
<mgrwt>
<rscale>  0 0.58310090E+03</rscale>
<asrwt>0</asrwt>
<pdfrwt beam="1">  1        2 0.23116181E+00 0.71465631E+03</pdfrwt>
<pdfrwt beam="2">  1       -2 0.30472220E-01 0.71465631E+03</pdfrwt>
<totfact> 0.12849570E+02</totfact>
</mgrwt>
</event>
<event>
 4    1  0.8287789E-007  0.7154407E+03  0.7818608E-02  0.9938326E-01
          2   -1    0    0  501    0  0.00000000000E+00  0.00000000000E+00  0.12763574061E+04  0.12763574061E+04  0.25500000000E-02 0. -1.
         -2   -1    0    0    0  501 -0.00000000000E+00 -0.00000000000E+00 -0.80733021861E+03  0.80733021861E+03  0.25500000000E-02 0.  1.
    8880023    1    1    2    0    0  0.20095672767E+03  0.19406582315E+03  0.11371760974E+04  0.13435121260E+04  0.65864270000E+03 0. -1.
    8880022    1    1    2    0    0 -0.20095672767E+03 -0.19406582315E+03 -0.66814890986E+03  0.74017549870E+03  0.15294330000E+03 0.  0.
<mgrwt>
<rscale>  0 0.58439254E+03</rscale>
<asrwt>0</asrwt>
<pdfrwt beam="1">  1        2 0.19636268E+00 0.71544067E+03</pdfrwt>
<pdfrwt beam="2">  1       -2 0.12420465E+00 0.71544067E+03</pdfrwt>
<totfact> 0.85310836E+00</totfact>
</mgrwt>
</event>
<event>
 4    1  0.8287789E-007  0.8290287E+03  0.7818608E-02  0.9651225E-01
          2   -1    0    0  501    0  0.00000000000E+00  0.00000000000E+00  0.28062151350E+04  0.28062151350E+04  0.25500000000E-02 0. -1.
         -2   -1    0    0    0  501 -0.00000000000E+00 -0.00000000000E+00 -0.16374655265E+03  0.16374655267E+03  0.25500000000E-02 0.  1.
    8880023    1    1    2    0    0 -0.14649643295E+02 -0.50325315253E+03  0.16566262977E+04  0.18524846137E+04  0.65864270000E+03 0.  1.
    8880022    1    1    2    0    0  0.14649643295E+02  0.50325315253E+03  0.98584228466E+03  0.11174770740E+04  0.15294330000E+03 0. -1.
<mgrwt>
<rscale>  0 0.73996581E+03</rscale>
<asrwt>0</asrwt>
<pdfrwt beam="1">  1        2 0.43172542E+00 0.82902868E+03</pdfrwt>
<pdfrwt beam="2">  1       -2 0.25191776E-01 0.82902868E+03</pdfrwt>
<totfact> 0.33678416E+01</totfact>
</mgrwt>
</event>
<event>
 4    1  0.8287789E-007  0.9118620E+03  0.7818608E-02  0.9507251E-01
          2   -1    0    0  501    0  0.00000000000E+00  0.00000000000E+00  0.19957498835E+04  0.19957498835E+04  0.25500000000E-02 0. -1.
         -2   -1    0    0    0  501 -0.00000000000E+00 -0.00000000000E+00 -0.55069752840E+03  0.55069752841E+03  0.25500000000E-02 0.  1.
    8880023    1    1    2    0    0  0.10201240596E+03  0.62231473335E+03 -0.53503904430E+02  0.91343036536E+03  0.65864270000E+03 0.  1.
    8880022    1    1    2    0    0 -0.10201240596E+03 -0.62231473335E+03  0.14985562595E+04  0.16330170465E+04  0.15294330000E+03 0.  0.
<mgrwt>
<rscale>  0 0.83751314E+03</rscale>
<asrwt>0</asrwt>
<pdfrwt beam="1">  1        2 0.30703845E+00 0.91186203E+03</pdfrwt>
<pdfrwt beam="2">  1       -2 0.84722696E-01 0.91186203E+03</pdfrwt>
<totfact> 0.82555745E+00</totfact>
</mgrwt>
</event>
<event>
 4    1  0.8287789E-007  0.9197845E+03  0.7818608E-02  0.9494989E-01
          2   -1    0    0  501    0  0.00000000000E+00  0.00000000000E+00  0.11358727057E+04  0.11358727057E+04  0.25500000000E-02 0. -1.
         -2   -1    0    0    0  501 -0.00000000000E+00 -0.00000000000E+00 -0.64631411076E+03  0.64631411076E+03  0.25500000000E-02 0.  1.
    8880023    1    1    2    0    0  0.38128121441E+00 -0.64202276680E+03  0.62025987120E+03  0.11093808600E+04  0.65864270000E+03 0. -1.
    8880022    1    1    2    0    0 -0.38128121441E+00  0.64202276680E+03 -0.13070127623E+03  0.67280595649E+03  0.15294330000E+03 0.  0.
<mgrwt>
<rscale>  0 0.84654236E+03</rscale>
<asrwt>0</asrwt>
<pdfrwt beam="1">  1        2 0.17474965E+00 0.91978453E+03</pdfrwt>
<pdfrwt beam="2">  1       -2 0.99432941E-01 0.91978453E+03</pdfrwt>
<totfact> 0.17355737E+01</totfact>
</mgrwt>
</event>
<event>
 4    1  0.8287789E-007  0.6946198E+03  0.7818608E-02  0.1002030E+00
         -2   -1    0    0    0  501 -0.00000000000E+00  0.00000000000E+00  0.11136634398E+04  0.11136634398E+04  0.25500000000E-02 0.  1.
          2   -1    0    0  501    0  0.00000000000E+00 -0.00000000000E+00 -0.72745693753E+03  0.72745693753E+03  0.25500000000E-02 0. -1.
    8880023    1    1    2    0    0 -0.21651762634E+03 -0.42504228358E+02 -0.53806827042E+03  0.87864336442E+03  0.65864270000E+03 0. -1.
    8880022    1    1    2    0    0  0.21651762634E+03  0.42504228358E+02  0.92427477271E+03  0.96247701293E+03  0.15294330000E+03 0.  0.
<mgrwt>
<rscale>  0 0.54769128E+03</rscale>
<asrwt>0</asrwt>
<pdfrwt beam="1">  1        2 0.11191645E+00 0.69461982E+03</pdfrwt>
<pdfrwt beam="2">  1       -2 0.17133284E+00 0.69461982E+03</pdfrwt>
<totfact> 0.83318690E+00</totfact>
</mgrwt>
</event>
<event>
 4    1  0.8287789E-007  0.6738747E+03  0.7818608E-02  0.1013025E+00
         -2   -1    0    0    0  501 -0.00000000000E+00  0.00000000000E+00  0.45167669735E+03  0.45167669736E+03  0.25500000000E-02 0.  1.
          2   -1    0    0  501    0  0.00000000000E+00 -0.00000000000E+00 -0.43436210579E+03  0.43436210580E+03  0.25500000000E-02 0. -1.
    8880023    1    1    2    0    0  0.13658208650E+03 -0.40524692707E+02 -0.17705486624E+02  0.67410726713E+03  0.65864270000E+03 0.  0.
    8880022    1    1    2    0    0 -0.13658208650E+03  0.40524692707E+02  0.35020078185E+02  0.21193153603E+03  0.15294330000E+03 0. -1.
<mgrwt>
<rscale>  0 0.50289851E+03</rscale>
<asrwt>0</asrwt>
<pdfrwt beam="1">  1        2 0.66824939E-01 0.67387471E+03</pdfrwt>
<pdfrwt beam="2">  1       -2 0.69488723E-01 0.67387471E+03</pdfrwt>
<totfact> 0.13868275E+02</totfact>
</mgrwt>
</event>
<event>
 4    1  0.8287789E-007  0.7456102E+03  0.7818608E-02  0.9843896E-01
          2   -1    0    0  501    0  0.00000000000E+00  0.00000000000E+00  0.23913835203E+03  0.23913835204E+03  0.25500000000E-02 0. -1.
         -2   -1    0    0    0  501 -0.00000000000E+00 -0.00000000000E+00 -0.26181362171E+04  0.26181362171E+04  0.25500000000E-02 0.  1.
    8880023    1    1    2    0    0 -0.15722419972E+03  0.31209766282E+03 -0.40847576159E+03  0.85016883863E+03  0.65864270000E+03 0. -1.
    8880022    1    1    2    0    0  0.15722419972E+03 -0.31209766282E+03 -0.19705221035E+04  0.20071057305E+04  0.15294330000E+03 0.  0.
<mgrwt>
<rscale>  0 0.63059098E+03</rscale>
<asrwt>0</asrwt>
<pdfrwt beam="1">  1        2 0.36790517E-01 0.74561022E+03</pdfrwt>
<pdfrwt beam="2">  1       -2 0.40279017E+00 0.74561022E+03</pdfrwt>
<totfact> 0.10691676E+00</totfact>
</mgrwt>
</event>
