<event>
 4    1  0.2202466E-008  0.2543354E+03  0.7818608E-02  0.1110595E+00
         -2   -1    0    0    0  501 -0.00000000000E+00  0.00000000000E+00  0.12388967372E+04  0.12388967372E+04  0.25500000000E-02 0.  1.
          2   -1    0    0  501    0  0.00000000000E+00 -0.00000000000E+00 -0.37406622522E+03  0.37406622523E+03  0.25500000000E-02 0. -1.
    8880022    1    1    2    0    0 -0.67432262368E+02 -0.19169703661E+03  0.11804970452E+04  0.12075842789E+04  0.15294330000E+03 0.  0.
    8880022    1    1    2    0    0  0.67432262368E+02  0.19169703661E+03 -0.31566653323E+03  0.40537868354E+03  0.15294330000E+03 0.  0.
<mgrwt>
<rscale>  0 0.25433544E+03</rscale>
<asrwt>0</asrwt>
<pdfrwt beam="1">  1        2 0.57548650E-01 0.25433544E+03</pdfrwt>
<pdfrwt beam="2">  1       -2 0.19059950E+00 0.25433544E+03</pdfrwt>
<totfact> 0.14450846E+01</totfact>
</mgrwt>
</event>
<event>
 4    1  0.2202466E-008  0.7396766E+03  0.7818608E-02  0.9651687E-01
         -2   -1    0    0    0  501 -0.00000000000E+00  0.00000000000E+00  0.68380987595E+03  0.68380987596E+03  0.25500000000E-02 0.  1.
          2   -1    0    0  501    0  0.00000000000E+00 -0.00000000000E+00 -0.12871728622E+04  0.12871728622E+04  0.25500000000E-02 0. -1.
    8880022    1    1    2    0    0 -0.53281252272E+03 -0.48973532538E+03 -0.90789824723E+03  0.11710682105E+04  0.15294330000E+03 0.  0.
    8880022    1    1    2    0    0  0.53281252272E+03  0.48973532538E+03  0.30453526103E+03  0.79991452763E+03  0.15294330000E+03 0.  0.
<mgrwt>
<rscale>  0 0.73967664E+03</rscale>
<asrwt>0</asrwt>
<pdfrwt beam="1">  1        2 0.19802659E+00 0.73967664E+03</pdfrwt>
<pdfrwt beam="2">  1       -2 0.10520152E+00 0.73967664E+03</pdfrwt>
<totfact> 0.12579693E+01</totfact>
</mgrwt>
</event>
<event>
 4    1  0.2202466E-008  0.1048943E+04  0.7818608E-02  0.9256436E-01
          2   -1    0    0  501    0  0.00000000000E+00  0.00000000000E+00  0.24657815246E+04  0.24657815246E+04  0.25500000000E-02 0. -1.
         -2   -1    0    0    0  501 -0.00000000000E+00 -0.00000000000E+00 -0.96910403959E+03  0.96910403959E+03  0.25500000000E-02 0.  1.
    8880022    1    1    2    0    0  0.14704610772E+03  0.10272616104E+04 -0.51319780326E+03  0.11677553735E+04  0.15294330000E+03 0.  0.
    8880022    1    1    2    0    0 -0.14704610772E+03 -0.10272616104E+04  0.20098752883E+04  0.22671301907E+04  0.15294330000E+03 0.  0.
<mgrwt>
<rscale>  0 0.10489426E+04</rscale>
<asrwt>0</asrwt>
<pdfrwt beam="1">  1        2 0.37935100E+00 0.10489426E+04</pdfrwt>
<pdfrwt beam="2">  1       -2 0.14909293E+00 0.10489426E+04</pdfrwt>
<totfact> 0.11068665E+00</totfact>
</mgrwt>
</event>
<event>
 4    1  0.2202466E-008  0.3938755E+03  0.7818608E-02  0.1045921E+00
         -2   -1    0    0    0  501 -0.00000000000E+00  0.00000000000E+00  0.18915905161E+03  0.18915905163E+03  0.25500000000E-02 0.  1.
          2   -1    0    0  501    0  0.00000000000E+00 -0.00000000000E+00 -0.13127991362E+04  0.13127991362E+04  0.25500000000E-02 0. -1.
    8880022    1    1    2    0    0  0.27188686427E+03  0.24046573472E+03 -0.10177571340E+03  0.40681222375E+03  0.15294330000E+03 0.  1.
    8880022    1    1    2    0    0 -0.27188686427E+03 -0.24046573472E+03 -0.10218643712E+04  0.10951459641E+04  0.15294330000E+03 0.  0.
<mgrwt>
<rscale>  0 0.39387547E+03</rscale>
<asrwt>0</asrwt>
<pdfrwt beam="1">  1        2 0.20196909E+00 0.39387547E+03</pdfrwt>
<pdfrwt beam="2">  1       -2 0.29101393E-01 0.39387547E+03</pdfrwt>
<totfact> 0.18482639E+02</totfact>
</mgrwt>
</event>
<event>
 4    1  0.2202466E-008  0.1103396E+04  0.7818608E-02  0.9201888E-01
         -2   -1    0    0    0  501 -0.00000000000E+00  0.00000000000E+00  0.12354323081E+04  0.12354323081E+04  0.25500000000E-02 0.  1.
          2   -1    0    0  501    0  0.00000000000E+00 -0.00000000000E+00 -0.20427396036E+04  0.20427396036E+04  0.25500000000E-02 0. -1.
    8880022    1    1    2    0    0  0.97346105592E+03  0.49645279054E+03 -0.15828544590E+04  0.19294848255E+04  0.15294330000E+03 0.  0.
    8880022    1    1    2    0    0 -0.97346105592E+03 -0.49645279054E+03  0.77554716343E+03  0.13486870861E+04  0.15294330000E+03 0.  0.
<mgrwt>
<rscale>  0 0.11033963E+04</rscale>
<asrwt>0</asrwt>
<pdfrwt beam="1">  1        2 0.31426763E+00 0.11033963E+04</pdfrwt>
<pdfrwt beam="2">  1       -2 0.19006651E+00 0.11033963E+04</pdfrwt>
<totfact> 0.96368722E-01</totfact>
</mgrwt>
</event>
<event>
 4    1  0.2202466E-008  0.1845924E+03  0.7818608E-02  0.1163431E+00
         -2   -1    0    0    0  501 -0.00000000000E+00  0.00000000000E+00  0.55219964672E+02  0.55219964731E+02  0.25500000000E-02 0.  1.
          2   -1    0    0  501    0  0.00000000000E+00 -0.00000000000E+00 -0.37596020593E+04  0.37596020593E+04  0.25500000000E-02 0. -1.
    8880022    1    1    2    0    0  0.49432759498E+02  0.90769463275E+02 -0.10832347560E+03  0.21402878674E+03  0.15294330000E+03 0.  1.
    8880022    1    1    2    0    0 -0.49432759498E+02 -0.90769463275E+02 -0.35960586190E+04  0.36007932372E+04  0.15294330000E+03 0.  0.
<mgrwt>
<rscale>  0 0.18459238E+03</rscale>
<asrwt>0</asrwt>
<pdfrwt beam="1">  1        2 0.57840012E+00 0.18459238E+03</pdfrwt>
<pdfrwt beam="2">  1       -2 0.84953821E-02 0.18459238E+03</pdfrwt>
<totfact> 0.60846803E+01</totfact>
</mgrwt>
</event>
<event>
 4    1  0.2202466E-008  0.1289534E+04  0.7818608E-02  0.9037906E-01
         -2   -1    0    0    0  501 -0.00000000000E+00  0.00000000000E+00  0.98468731138E+03  0.98468731138E+03  0.25500000000E-02 0.  1.
          2   -1    0    0  501    0  0.00000000000E+00 -0.00000000000E+00 -0.29485967423E+04  0.29485967423E+04  0.25500000000E-02 0. -1.
    8880022    1    1    2    0    0 -0.26911648825E+01  0.12804291349E+04 -0.22674641374E+04  0.26085036475E+04  0.15294330000E+03 0.  0.
    8880022    1    1    2    0    0  0.26911648825E+01 -0.12804291349E+04  0.30355470643E+03  0.13247804062E+04  0.15294330000E+03 0.  0.
<mgrwt>
<rscale>  0 0.12895339E+04</rscale>
<asrwt>0</asrwt>
<pdfrwt beam="1">  1        2 0.45363027E+00 0.12895339E+04</pdfrwt>
<pdfrwt beam="2">  1       -2 0.15149036E+00 0.12895339E+04</pdfrwt>
<totfact> 0.53170660E-01</totfact>
</mgrwt>
</event>
<event>
 4    1  0.2202466E-008  0.9665588E+03  0.7818608E-02  0.9346003E-01
         -2   -1    0    0    0  501 -0.00000000000E+00  0.00000000000E+00  0.11489133506E+04  0.11489133506E+04  0.25500000000E-02 0.  1.
          2   -1    0    0  501    0  0.00000000000E+00 -0.00000000000E+00 -0.24600695077E+04  0.24600695077E+04  0.25500000000E-02 0. -1.
    8880022    1    1    2    0    0  0.94720919653E+02 -0.94966950357E+03 -0.21320244200E+04  0.23408895743E+04  0.15294330000E+03 0.  0.
    8880022    1    1    2    0    0 -0.94720919653E+02  0.94966950357E+03  0.82086826295E+03  0.12680932839E+04  0.15294330000E+03 0.  0.
<mgrwt>
<rscale>  0 0.96655878E+03</rscale>
<asrwt>0</asrwt>
<pdfrwt beam="1">  1        2 0.37847223E+00 0.96655878E+03</pdfrwt>
<pdfrwt beam="2">  1       -2 0.17675590E+00 0.96655878E+03</pdfrwt>
<totfact> 0.70866959E-01</totfact>
</mgrwt>
</event>
<event>
 4    1  0.2202466E-008  0.8677883E+03  0.7818608E-02  0.9466768E-01
          2   -1    0    0  501    0  0.00000000000E+00  0.00000000000E+00  0.16922801693E+04  0.16922801693E+04  0.25500000000E-02 0. -1.
         -2   -1    0    0    0  501 -0.00000000000E+00 -0.00000000000E+00 -0.71452075863E+03  0.71452075863E+03  0.25500000000E-02 0.  1.
    8880022    1    1    2    0    0  0.19183358102E+03 -0.83238501462E+03 -0.25021945614E+03  0.90314249408E+03  0.15294330000E+03 0.  0.
    8880022    1    1    2    0    0 -0.19183358102E+03  0.83238501462E+03  0.12279788669E+04  0.15036584339E+04  0.15294330000E+03 0.  0.
<mgrwt>
<rscale>  0 0.86778833E+03</rscale>
<asrwt>0</asrwt>
<pdfrwt beam="1">  1        2 0.26035080E+00 0.86778833E+03</pdfrwt>
<pdfrwt beam="2">  1       -2 0.10992627E+00 0.86778833E+03</pdfrwt>
<totfact> 0.65969348E+00</totfact>
</mgrwt>
</event>
<event>
 4    1  0.2202466E-008  0.3419980E+03  0.7818608E-02  0.1065948E+00
          2   -1    0    0  501    0  0.00000000000E+00  0.00000000000E+00  0.22597320667E+04  0.22597320667E+04  0.25500000000E-02 0. -1.
         -2   -1    0    0    0  501 -0.00000000000E+00 -0.00000000000E+00 -0.35171334594E+03  0.35171334595E+03  0.25500000000E-02 0.  1.
    8880022    1    1    2    0    0  0.25064170474E+03 -0.17535600096E+03  0.21598328403E+04  0.21867419926E+04  0.15294330000E+03 0.  0.
    8880022    1    1    2    0    0 -0.25064170474E+03  0.17535600096E+03 -0.25181411950E+03  0.42470342008E+03  0.15294330000E+03 0.  1.
<mgrwt>
<rscale>  0 0.34199802E+03</rscale>
<asrwt>0</asrwt>
<pdfrwt beam="1">  1        2 0.34765110E+00 0.34199802E+03</pdfrwt>
<pdfrwt beam="2">  1       -2 0.54109744E-01 0.34199802E+03</pdfrwt>
<totfact> 0.17503741E+01</totfact>
</mgrwt>
</event>
<event>
 4    1  0.2202466E-008  0.1180592E+04  0.7818608E-02  0.9130016E-01
          2   -1    0    0  501    0  0.00000000000E+00  0.00000000000E+00  0.22987029662E+04  0.22987029662E+04  0.25500000000E-02 0. -1.
         -2   -1    0    0    0  501 -0.00000000000E+00 -0.00000000000E+00 -0.83270165762E+03  0.83270165763E+03  0.25500000000E-02 0.  1.
    8880022    1    1    2    0    0  0.34360957593E+03 -0.11190790531E+04  0.15493297168E+04  0.19478756870E+04  0.15294330000E+03 0.  0.
    8880022    1    1    2    0    0 -0.34360957593E+03  0.11190790531E+04 -0.83328408231E+02  0.11835289368E+04  0.15294330000E+03 0.  0.
<mgrwt>
<rscale>  0 0.11805919E+04</rscale>
<asrwt>0</asrwt>
<pdfrwt beam="1">  1        2 0.35364661E+00 0.11805919E+04</pdfrwt>
<pdfrwt beam="2">  1       -2 0.12810795E+00 0.11805919E+04</pdfrwt>
<totfact> 0.20057642E+00</totfact>
</mgrwt>
</event>
<event>
 4    1  0.2202466E-008  0.1558524E+04  0.7818608E-02  0.8846441E-01
          2   -1    0    0  501    0  0.00000000000E+00  0.00000000000E+00  0.35200069919E+04  0.35200069919E+04  0.25500000000E-02 0. -1.
         -2   -1    0    0    0  501 -0.00000000000E+00 -0.00000000000E+00 -0.10108739624E+04  0.10108739624E+04  0.25500000000E-02 0.  1.
    8880022    1    1    2    0    0  0.13841284884E+04  0.69985263235E+03 -0.21679601085E+02  0.15586747697E+04  0.15294330000E+03 0.  0.
    8880022    1    1    2    0    0 -0.13841284884E+04 -0.69985263235E+03  0.25308126306E+04  0.29722061846E+04  0.15294330000E+03 0.  0.
<mgrwt>
<rscale>  0 0.15585240E+04</rscale>
<asrwt>0</asrwt>
<pdfrwt beam="1">  1        2 0.54153953E+00 0.15585240E+04</pdfrwt>
<pdfrwt beam="2">  1       -2 0.15551907E+00 0.15585240E+04</pdfrwt>
<totfact> 0.20249747E-01</totfact>
</mgrwt>
</event>
<event>
 4    1  0.2202466E-008  0.1339921E+04  0.7818608E-02  0.8998493E-01
         -2   -1    0    0    0  501 -0.00000000000E+00  0.00000000000E+00  0.17887627584E+04  0.17887627584E+04  0.25500000000E-02 0.  1.
          2   -1    0    0  501    0  0.00000000000E+00 -0.00000000000E+00 -0.14449252410E+04  0.14449252410E+04  0.25500000000E-02 0. -1.
    8880022    1    1    2    0    0 -0.97554680059E+03  0.90570736133E+03  0.10653753214E+04  0.17118450902E+04  0.15294330000E+03 0.  0.
    8880022    1    1    2    0    0  0.97554680059E+03 -0.90570736133E+03 -0.72153780406E+03  0.15218429092E+04  0.15294330000E+03 0.  0.
<mgrwt>
<rscale>  0 0.13399213E+04</rscale>
<asrwt>0</asrwt>
<pdfrwt beam="1">  1        2 0.22229619E+00 0.13399213E+04</pdfrwt>
<pdfrwt beam="2">  1       -2 0.27519427E+00 0.13399213E+04</pdfrwt>
<totfact> 0.58832165E-01</totfact>
</mgrwt>
</event>
<event>
 4    1  0.2202466E-008  0.1217223E+04  0.7818608E-02  0.9097914E-01
          2   -1    0    0  501    0  0.00000000000E+00  0.00000000000E+00  0.99371156782E+03  0.99371156783E+03  0.25500000000E-02 0. -1.
         -2   -1    0    0    0  501 -0.00000000000E+00 -0.00000000000E+00 -0.16556101478E+04  0.16556101478E+04  0.25500000000E-02 0.  1.
    8880022    1    1    2    0    0  0.59943597638E+03 -0.10482917206E+04 -0.74863059416E+03  0.14290131003E+04  0.15294330000E+03 0.  0.
    8880022    1    1    2    0    0 -0.59943597638E+03  0.10482917206E+04  0.86732014169E+02  0.12203086153E+04  0.15294330000E+03 0.  0.
<mgrwt>
<rscale>  0 0.12172225E+04</rscale>
<asrwt>0</asrwt>
<pdfrwt beam="1">  1        2 0.15287870E+00 0.12172225E+04</pdfrwt>
<pdfrwt beam="2">  1       -2 0.25470925E+00 0.12172225E+04</pdfrwt>
<totfact> 0.14869528E+00</totfact>
</mgrwt>
</event>
<event>
 4    1  0.2202466E-008  0.7897222E+03  0.7818608E-02  0.9575014E-01
         -2   -1    0    0    0  501 -0.00000000000E+00  0.00000000000E+00  0.33987162537E+04  0.33987162537E+04  0.25500000000E-02 0.  1.
          2   -1    0    0  501    0  0.00000000000E+00 -0.00000000000E+00 -0.18594620325E+04  0.18594620325E+04  0.25500000000E-02 0. -1.
    8880022    1    1    2    0    0 -0.41649289451E+03 -0.65330170238E+03  0.32656230196E+04  0.33597551704E+04  0.15294330000E+03 0.  0.
    8880022    1    1    2    0    0  0.41649289451E+03  0.65330170238E+03 -0.17263687984E+04  0.18984231158E+04  0.15294330000E+03 0.  0.
<mgrwt>
<rscale>  0 0.78972217E+03</rscale>
<asrwt>0</asrwt>
<pdfrwt beam="1">  1        2 0.28607108E+00 0.78972217E+03</pdfrwt>
<pdfrwt beam="2">  1       -2 0.52287942E+00 0.78972217E+03</pdfrwt>
<totfact> 0.10184189E-02</totfact>
</mgrwt>
</event>
<event>
 4    1  0.2202466E-008  0.1318144E+04  0.7818608E-02  0.9015299E-01
          2   -1    0    0  501    0  0.00000000000E+00  0.00000000000E+00  0.18435187343E+04  0.18435187343E+04  0.25500000000E-02 0. -1.
         -2   -1    0    0    0  501 -0.00000000000E+00 -0.00000000000E+00 -0.99532879891E+03  0.99532879891E+03  0.25500000000E-02 0.  1.
    8880022    1    1    2    0    0 -0.11946788598E+04  0.53558887862E+03  0.97062925524E+02  0.13217132402E+04  0.15294330000E+03 0.  0.
    8880022    1    1    2    0    0  0.11946788598E+04 -0.53558887862E+03  0.75112700983E+03  0.15171342929E+04  0.15294330000E+03 0.  0.
<mgrwt>
<rscale>  0 0.13181444E+04</rscale>
<asrwt>0</asrwt>
<pdfrwt beam="1">  1        2 0.28361827E+00 0.13181444E+04</pdfrwt>
<pdfrwt beam="2">  1       -2 0.15312751E+00 0.13181444E+04</pdfrwt>
<totfact> 0.22234855E+00</totfact>
</mgrwt>
</event>
<event>
 4    1  0.2202466E-008  0.6529751E+03  0.7818608E-02  0.9801213E-01
          2   -1    0    0  501    0  0.00000000000E+00  0.00000000000E+00  0.21930660488E+04  0.21930660488E+04  0.25500000000E-02 0. -1.
         -2   -1    0    0    0  501 -0.00000000000E+00 -0.00000000000E+00 -0.11455573145E+04  0.11455573145E+04  0.25500000000E-02 0.  1.
    8880022    1    1    2    0    0  0.35262965180E+03  0.52786097074E+03 -0.99732041375E+03  0.11920673372E+04  0.15294330000E+03 0.  0.
    8880022    1    1    2    0    0 -0.35262965180E+03 -0.52786097074E+03  0.20448291480E+04  0.21465560261E+04  0.15294330000E+03 0.  0.
<mgrwt>
<rscale>  0 0.65297514E+03</rscale>
<asrwt>0</asrwt>
<pdfrwt beam="1">  1        2 0.33739477E+00 0.65297514E+03</pdfrwt>
<pdfrwt beam="2">  1       -2 0.17623959E+00 0.65297514E+03</pdfrwt>
<totfact> 0.10722529E+00</totfact>
</mgrwt>
</event>
<event>
 4    1  0.2202466E-008  0.3581137E+03  0.7818608E-02  0.1059333E+00
         -2   -1    0    0    0  501 -0.00000000000E+00  0.00000000000E+00  0.29000770978E+03  0.29000770979E+03  0.25500000000E-02 0.  1.
          2   -1    0    0  501    0  0.00000000000E+00 -0.00000000000E+00 -0.50491521493E+03  0.50491521493E+03  0.25500000000E-02 0. -1.
    8880022    1    1    2    0    0 -0.10190237567E+03  0.30735924112E+03 -0.24751693930E+03  0.43532756118E+03  0.15294330000E+03 0.  0.
    8880022    1    1    2    0    0  0.10190237567E+03 -0.30735924112E+03  0.32609434152E+02  0.35959536354E+03  0.15294330000E+03 0.  1.
<mgrwt>
<rscale>  0 0.35811374E+03</rscale>
<asrwt>0</asrwt>
<pdfrwt beam="1">  1        2 0.77679263E-01 0.35811374E+03</pdfrwt>
<pdfrwt beam="2">  1       -2 0.44616571E-01 0.35811374E+03</pdfrwt>
<totfact> 0.29724587E+02</totfact>
</mgrwt>
</event>
<event>
 4    1  0.2202466E-008  0.2123396E+04  0.7818608E-02  0.8551007E-01
          2   -1    0    0  501    0  0.00000000000E+00  0.00000000000E+00  0.24167466638E+04  0.24167466638E+04  0.25500000000E-02 0. -1.
         -2   -1    0    0    0  501 -0.00000000000E+00 -0.00000000000E+00 -0.21841663424E+04  0.21841663424E+04  0.25500000000E-02 0.  1.
    8880022    1    1    2    0    0 -0.19092691758E+04 -0.91657468971E+03  0.99477705204E+03  0.23448648114E+04  0.15294330000E+03 0. -1.
    8880022    1    1    2    0    0  0.19092691758E+04  0.91657468971E+03 -0.76219673066E+03  0.22560481947E+04  0.15294330000E+03 0.  1.
<mgrwt>
<rscale>  0 0.21233958E+04</rscale>
<asrwt>0</asrwt>
<pdfrwt beam="1">  1        2 0.37180718E+00 0.21233958E+04</pdfrwt>
<pdfrwt beam="2">  1       -2 0.33602559E+00 0.21233958E+04</pdfrwt>
<totfact> 0.64757056E-02</totfact>
</mgrwt>
</event>
<event>
 4    1  0.2202466E-008  0.3914082E+03  0.7818608E-02  0.1046796E+00
          2   -1    0    0  501    0  0.00000000000E+00  0.00000000000E+00  0.12278207501E+04  0.12278207501E+04  0.25500000000E-02 0. -1.
         -2   -1    0    0    0  501 -0.00000000000E+00 -0.00000000000E+00 -0.44868200750E+03  0.44868200751E+03  0.25500000000E-02 0.  1.
    8880022    1    1    2    0    0 -0.21931318064E+03  0.28585046751E+03 -0.32265302061E+03  0.50725278285E+03  0.15294330000E+03 0.  1.
    8880022    1    1    2    0    0  0.21931318064E+03 -0.28585046751E+03  0.11017917632E+04  0.11692499748E+04  0.15294330000E+03 0.  0.
<mgrwt>
<rscale>  0 0.39140824E+03</rscale>
<asrwt>0</asrwt>
<pdfrwt beam="1">  1        2 0.18889550E+00 0.39140824E+03</pdfrwt>
<pdfrwt beam="2">  1       -2 0.69028002E-01 0.39140824E+03</pdfrwt>
<totfact> 0.37416706E+01</totfact>
</mgrwt>
</event>
<event>
 4    1  0.2202466E-008  0.5951572E+03  0.7818608E-02  0.9915505E-01
         -2   -1    0    0    0  501 -0.00000000000E+00  0.00000000000E+00  0.64277040239E+03  0.64277040240E+03  0.25500000000E-02 0.  1.
          2   -1    0    0  501    0  0.00000000000E+00 -0.00000000000E+00 -0.11264144281E+04  0.11264144281E+04  0.25500000000E-02 0. -1.
    8880022    1    1    2    0    0  0.27514799198E+03  0.50508813946E+03 -0.87402668997E+03  0.10574189113E+04  0.15294330000E+03 0.  0.
    8880022    1    1    2    0    0 -0.27514799198E+03 -0.50508813946E+03  0.39038266430E+03  0.71176591919E+03  0.15294330000E+03 0.  0.
<mgrwt>
<rscale>  0 0.59515721E+03</rscale>
<asrwt>0</asrwt>
<pdfrwt beam="1">  1        2 0.17329453E+00 0.59515721E+03</pdfrwt>
<pdfrwt beam="2">  1       -2 0.98887754E-01 0.59515721E+03</pdfrwt>
<totfact> 0.18476599E+01</totfact>
</mgrwt>
</event>
<event>
 4    1  0.2202466E-008  0.5697933E+03  0.7818608E-02  0.9970136E-01
          2   -1    0    0  501    0  0.00000000000E+00  0.00000000000E+00  0.20574751049E+04  0.20574751049E+04  0.25500000000E-02 0. -1.
         -2   -1    0    0    0  501 -0.00000000000E+00 -0.00000000000E+00 -0.32667682581E+03  0.32667682582E+03  0.25500000000E-02 0.  1.
    8880022    1    1    2    0    0 -0.54241125518E+03  0.84040426980E+02  0.82961322647E+01  0.56985370223E+03  0.15294330000E+03 0.  0.
    8880022    1    1    2    0    0  0.54241125518E+03 -0.84040426980E+02  0.17225021469E+04  0.18142982285E+04  0.15294330000E+03 0. -1.
<mgrwt>
<rscale>  0 0.56979331E+03</rscale>
<asrwt>0</asrwt>
<pdfrwt beam="1">  1        2 0.31653464E+00 0.56979331E+03</pdfrwt>
<pdfrwt beam="2">  1       -2 0.50257973E-01 0.56979331E+03</pdfrwt>
<totfact> 0.24734899E+01</totfact>
</mgrwt>
</event>
<event>
 4    1  0.2202466E-008  0.7289407E+03  0.7818608E-02  0.9668981E-01
         -2   -1    0    0    0  501 -0.00000000000E+00  0.00000000000E+00  0.38707589657E+03  0.38707589658E+03  0.25500000000E-02 0.  1.
          2   -1    0    0  501    0  0.00000000000E+00 -0.00000000000E+00 -0.25641229110E+04  0.25641229110E+04  0.25500000000E-02 0. -1.
    8880022    1    1    2    0    0 -0.37746689578E+03 -0.60455074269E+03 -0.82693099764E+02  0.73361615281E+03  0.15294330000E+03 0.  1.
    8880022    1    1    2    0    0  0.37746689578E+03  0.60455074269E+03 -0.20943539147E+04  0.22175826548E+04  0.15294330000E+03 0.  0.
<mgrwt>
<rscale>  0 0.72894068E+03</rscale>
<asrwt>0</asrwt>
<pdfrwt beam="1">  1        2 0.39448044E+00 0.72894068E+03</pdfrwt>
<pdfrwt beam="2">  1       -2 0.59550140E-01 0.72894068E+03</pdfrwt>
<totfact> 0.88639006E+00</totfact>
</mgrwt>
</event>
<event>
 4    1  0.2202466E-008  0.6034154E+03  0.7818608E-02  0.9898345E-01
          2   -1    0    0  501    0  0.00000000000E+00  0.00000000000E+00  0.86052192084E+03  0.86052192085E+03  0.25500000000E-02 0. -1.
         -2   -1    0    0    0  501 -0.00000000000E+00 -0.00000000000E+00 -0.54992193754E+03  0.54992193755E+03  0.25500000000E-02 0.  1.
    8880022    1    1    2    0    0 -0.34567865501E+03  0.47034531603E+03  0.49393055828E+03  0.77979324072E+03  0.15294330000E+03 0.  0.
    8880022    1    1    2    0    0  0.34567865501E+03 -0.47034531603E+03 -0.18333057499E+03  0.63065061768E+03  0.15294330000E+03 0.  0.
<mgrwt>
<rscale>  0 0.60341536E+03</rscale>
<asrwt>0</asrwt>
<pdfrwt beam="1">  1        2 0.13238799E+00 0.60341536E+03</pdfrwt>
<pdfrwt beam="2">  1       -2 0.84603375E-01 0.60341536E+03</pdfrwt>
<totfact> 0.39102044E+01</totfact>
</mgrwt>
</event>
<event>
 4    1  0.2202466E-008  0.4823017E+03  0.7818608E-02  0.1018505E+00
         -2   -1    0    0    0  501 -0.00000000000E+00  0.00000000000E+00  0.51943893780E+03  0.51943893781E+03  0.25500000000E-02 0.  1.
          2   -1    0    0  501    0  0.00000000000E+00 -0.00000000000E+00 -0.99938994291E+03  0.99938994292E+03  0.25500000000E-02 0. -1.
    8880022    1    1    2    0    0 -0.14852936024E+03  0.43262260516E+03 -0.80414787288E+03  0.93769331011E+03  0.15294330000E+03 0.  0.
    8880022    1    1    2    0    0  0.14852936024E+03 -0.43262260516E+03  0.32419686777E+03  0.58113557062E+03  0.15294330000E+03 0.  0.
<mgrwt>
<rscale>  0 0.48230171E+03</rscale>
<asrwt>0</asrwt>
<pdfrwt beam="1">  1        2 0.15375230E+00 0.48230171E+03</pdfrwt>
<pdfrwt beam="2">  1       -2 0.79913683E-01 0.48230171E+03</pdfrwt>
<totfact> 0.36607380E+01</totfact>
</mgrwt>
</event>
<event>
 4    1  0.2202466E-008  0.4849119E+03  0.7818608E-02  0.1017794E+00
          2   -1    0    0  501    0  0.00000000000E+00  0.00000000000E+00  0.55548375422E+03  0.55548375423E+03  0.25500000000E-02 0. -1.
         -2   -1    0    0    0  501 -0.00000000000E+00 -0.00000000000E+00 -0.12189677938E+04  0.12189677938E+04  0.25500000000E-02 0.  1.
    8880022    1    1    2    0    0  0.20634762107E+02 -0.45969779577E+03  0.38506513820E+03  0.61920486958E+03  0.15294330000E+03 0.  0.
    8880022    1    1    2    0    0 -0.20634762107E+02  0.45969779577E+03 -0.10485491778E+04  0.11552466784E+04  0.15294330000E+03 0.  1.
<mgrwt>
<rscale>  0 0.48491186E+03</rscale>
<asrwt>0</asrwt>
<pdfrwt beam="1">  1        2 0.85459040E-01 0.48491186E+03</pdfrwt>
<pdfrwt beam="2">  1       -2 0.18753351E+00 0.48491186E+03</pdfrwt>
<totfact> 0.92464811E+00</totfact>
</mgrwt>
</event>
<event>
 4    1  0.2202466E-008  0.2832831E+04  0.7818608E-02  0.8293147E-01
         -2   -1    0    0    0  501 -0.00000000000E+00  0.00000000000E+00  0.19389579103E+04  0.19389579103E+04  0.25500000000E-02 0.  1.
          2   -1    0    0  501    0  0.00000000000E+00 -0.00000000000E+00 -0.51375792450E+04  0.51375792450E+04  0.25500000000E-02 0. -1.
    8880022    1    1    2    0    0 -0.44013633701E+03 -0.27942478398E+04 -0.39222154788E+02  0.28331027189E+04  0.15294330000E+03 0.  0.
    8880022    1    1    2    0    0  0.44013633701E+03  0.27942478398E+04 -0.31593991799E+04  0.42434344365E+04  0.15294330000E+03 0.  0.
<mgrwt>
<rscale>  0 0.28328312E+04</rscale>
<asrwt>0</asrwt>
<pdfrwt beam="1">  1        2 0.79039680E+00 0.28328312E+04</pdfrwt>
<pdfrwt beam="2">  1       -2 0.29830122E+00 0.28328312E+04</pdfrwt>
<totfact> 0.59459500E-04</totfact>
</mgrwt>
</event>
<event>
 4    1  0.2202466E-008  0.1537154E+04  0.7818608E-02  0.8860115E-01
         -2   -1    0    0    0  501 -0.00000000000E+00  0.00000000000E+00  0.24777212434E+04  0.24777212434E+04  0.25500000000E-02 0.  1.
          2   -1    0    0  501    0  0.00000000000E+00 -0.00000000000E+00 -0.16473321706E+04  0.16473321706E+04  0.25500000000E-02 0. -1.
    8880022    1    1    2    0    0  0.11301928679E+03  0.15253452814E+04 -0.92322959329E+03  0.17930967965E+04  0.15294330000E+03 0.  0.
    8880022    1    1    2    0    0 -0.11301928679E+03 -0.15253452814E+04  0.17536186661E+04  0.23319566175E+04  0.15294330000E+03 0.  0.
<mgrwt>
<rscale>  0 0.15371543E+04</rscale>
<asrwt>0</asrwt>
<pdfrwt beam="1">  1        2 0.25343572E+00 0.15371543E+04</pdfrwt>
<pdfrwt beam="2">  1       -2 0.38118788E+00 0.15371543E+04</pdfrwt>
<totfact> 0.96725643E-02</totfact>
</mgrwt>
</event>
<event>
 4    1  0.2202466E-008  0.2051674E+03  0.7818608E-02  0.1145451E+00
          2   -1    0    0  501    0  0.00000000000E+00  0.00000000000E+00  0.14172456089E+04  0.14172456089E+04  0.25500000000E-02 0. -1.
         -2   -1    0    0    0  501 -0.00000000000E+00 -0.00000000000E+00 -0.36104514936E+03  0.36104514937E+03  0.25500000000E-02 0.  1.
    8880022    1    1    2    0    0  0.13377597741E+03  0.28390224236E+02 -0.32368802019E+03  0.38323309407E+03  0.15294330000E+03 0.  1.
    8880022    1    1    2    0    0 -0.13377597741E+03 -0.28390224236E+02  0.13798884797E+04  0.13950576642E+04  0.15294330000E+03 0.  0.
<mgrwt>
<rscale>  0 0.20516742E+03</rscale>
<asrwt>0</asrwt>
<pdfrwt beam="1">  1        2 0.21803778E+00 0.20516742E+03</pdfrwt>
<pdfrwt beam="2">  1       -2 0.55545408E-01 0.20516742E+03</pdfrwt>
<totfact> 0.48718984E+01</totfact>
</mgrwt>
</event>
<event>
 4    1  0.2303604E-008  0.1498667E+04  0.7818608E-02  0.8885340E-01
          2   -1    0    0  501    0  0.00000000000E+00  0.00000000000E+00  0.17479554281E+04  0.17479554281E+04  0.25500000000E-02 0. -1.
         -2   -1    0    0    0  501 -0.00000000000E+00 -0.00000000000E+00 -0.24105920627E+04  0.24105920627E+04  0.25500000000E-02 0.  1.
    8880022    1    1    2    0    0 -0.95986997140E+03 -0.11407278727E+04  0.10895493542E+04  0.18528680174E+04  0.15294330000E+03 0.  0.
    8880022    1    1    2    0    0  0.95986997140E+03  0.11407278727E+04 -0.17521859888E+04  0.23056794734E+04  0.15294330000E+03 0.  0.
<mgrwt>
<rscale>  0 0.14986668E+04</rscale>
<asrwt>0</asrwt>
<pdfrwt beam="1">  1        2 0.26891622E+00 0.14986668E+04</pdfrwt>
<pdfrwt beam="2">  1       -2 0.37086032E+00 0.14986668E+04</pdfrwt>
<totfact> 0.99473990E-02</totfact>
</mgrwt>
</event>
<event>
 4    1  0.2202466E-008  0.1293354E+04  0.7818608E-02  0.9034852E-01
          2   -1    0    0  501    0  0.00000000000E+00  0.00000000000E+00  0.33789697440E+04  0.33789697440E+04  0.25500000000E-02 0. -1.
         -2   -1    0    0    0  501 -0.00000000000E+00 -0.00000000000E+00 -0.67203294408E+03  0.67203294408E+03  0.25500000000E-02 0.  1.
    8880022    1    1    2    0    0  0.12326775087E+04  0.36038777138E+03  0.31402503568E+03  0.13309307128E+04  0.15294330000E+03 0.  0.
    8880022    1    1    2    0    0 -0.12326775087E+04 -0.36038777138E+03  0.23929117643E+04  0.27200719753E+04  0.15294330000E+03 0.  0.
<mgrwt>
<rscale>  0 0.12933541E+04</rscale>
<asrwt>0</asrwt>
<pdfrwt beam="1">  1        2 0.51984150E+00 0.12933541E+04</pdfrwt>
<pdfrwt beam="2">  1       -2 0.10338968E+00 0.12933541E+04</pdfrwt>
<totfact> 0.74003275E-01</totfact>
</mgrwt>
</event>
<event>
 4    1  0.2202466E-008  0.8396689E+03  0.7818608E-02  0.9504309E-01
          2   -1    0    0  501    0  0.00000000000E+00  0.00000000000E+00  0.78636310361E+03  0.78636310361E+03  0.25500000000E-02 0. -1.
         -2   -1    0    0    0  501 -0.00000000000E+00 -0.00000000000E+00 -0.26373134447E+04  0.26373134447E+04  0.25500000000E-02 0.  1.
    8880022    1    1    2    0    0 -0.56700657647E+03 -0.60012975299E+03 -0.23162184804E+04  0.24637191156E+04  0.15294330000E+03 0.  0.
    8880022    1    1    2    0    0  0.56700657647E+03  0.60012975299E+03  0.46526813935E+03  0.95995743275E+03  0.15294330000E+03 0.  0.
<mgrwt>
<rscale>  0 0.83966888E+03</rscale>
<asrwt>0</asrwt>
<pdfrwt beam="1">  1        2 0.12097894E+00 0.83966888E+03</pdfrwt>
<pdfrwt beam="2">  1       -2 0.40574053E+00 0.83966888E+03</pdfrwt>
<totfact> 0.25125039E-01</totfact>
</mgrwt>
</event>
<event>
 4    1  0.2202466E-008  0.1062961E+04  0.7818608E-02  0.9242064E-01
         -2   -1    0    0    0  501 -0.00000000000E+00  0.00000000000E+00  0.75176239567E+03  0.75176239568E+03  0.25500000000E-02 0.  1.
          2   -1    0    0  501    0  0.00000000000E+00 -0.00000000000E+00 -0.23072469425E+04  0.23072469425E+04  0.25500000000E-02 0. -1.
    8880022    1    1    2    0    0 -0.10207864611E+04  0.25394855523E+03  0.12528925989E+03  0.10703195408E+04  0.15294330000E+03 0.  0.
    8880022    1    1    2    0    0  0.10207864611E+04 -0.25394855523E+03 -0.16807738067E+04  0.19886897974E+04  0.15294330000E+03 0.  0.
<mgrwt>
<rscale>  0 0.10629612E+04</rscale>
<asrwt>0</asrwt>
<pdfrwt beam="1">  1        2 0.35496106E+00 0.10629612E+04</pdfrwt>
<pdfrwt beam="2">  1       -2 0.11565575E+00 0.10629612E+04</pdfrwt>
<totfact> 0.25998048E+00</totfact>
</mgrwt>
</event>
<event>
 4    1  0.2202466E-008  0.1070248E+04  0.7818608E-02  0.9234685E-01
          2   -1    0    0  501    0  0.00000000000E+00  0.00000000000E+00  0.45860146392E+04  0.45860146392E+04  0.25500000000E-02 0. -1.
         -2   -1    0    0    0  501 -0.00000000000E+00 -0.00000000000E+00 -0.31772805157E+03  0.31772805158E+03  0.25500000000E-02 0.  1.
    8880022    1    1    2    0    0 -0.10085447202E+04  0.32384815027E+03  0.32681152234E+04  0.34388964572E+04  0.15294330000E+03 0.  0.
    8880022    1    1    2    0    0  0.10085447202E+04 -0.32384815027E+03  0.10001713642E+04  0.14648462335E+04  0.15294330000E+03 0.  0.
<mgrwt>
<rscale>  0 0.10702484E+04</rscale>
<asrwt>0</asrwt>
<pdfrwt beam="1">  1        2 0.70554070E+00 0.10702484E+04</pdfrwt>
<pdfrwt beam="2">  1       -2 0.48881240E-01 0.10702484E+04</pdfrwt>
<totfact> 0.42649615E-01</totfact>
</mgrwt>
</event>
<event>
 4    1  0.2202466E-008  0.9823488E+03  0.7818608E-02  0.9328119E-01
          2   -1    0    0  501    0  0.00000000000E+00  0.00000000000E+00  0.24709739293E+04  0.24709739293E+04  0.25500000000E-02 0. -1.
         -2   -1    0    0    0  501 -0.00000000000E+00 -0.00000000000E+00 -0.52716594445E+03  0.52716594445E+03  0.25500000000E-02 0.  1.
    8880022    1    1    2    0    0 -0.96374232584E+03  0.11321725712E+03  0.17350683555E+04  0.19938583874E+04  0.15294330000E+03 0.  0.
    8880022    1    1    2    0    0  0.96374232584E+03 -0.11321725712E+03  0.20873962940E+03  0.10042814864E+04  0.15294330000E+03 0.  0.
<mgrwt>
<rscale>  0 0.98234875E+03</rscale>
<asrwt>0</asrwt>
<pdfrwt beam="1">  1        2 0.38014984E+00 0.98234875E+03</pdfrwt>
<pdfrwt beam="2">  1       -2 0.81102453E-01 0.98234875E+03</pdfrwt>
<totfact> 0.49081197E+00</totfact>
</mgrwt>
</event>
<event>
 4    1  0.2202466E-008  0.3051742E+03  0.7818608E-02  0.1082682E+00
         -2   -1    0    0    0  501 -0.00000000000E+00  0.00000000000E+00  0.33561395155E+03  0.33561395156E+03  0.25500000000E-02 0.  1.
          2   -1    0    0  501    0  0.00000000000E+00 -0.00000000000E+00 -0.73274816507E+03  0.73274816507E+03  0.25500000000E-02 0. -1.
    8880022    1    1    2    0    0  0.25970421177E+03  0.47888820839E+02 -0.61962081143E+03  0.69069618484E+03  0.15294330000E+03 0.  0.
    8880022    1    1    2    0    0 -0.25970421177E+03 -0.47888820839E+02  0.22248659791E+03  0.37766593180E+03  0.15294330000E+03 0.  0.
<mgrwt>
<rscale>  0 0.30517416E+03</rscale>
<asrwt>0</asrwt>
<pdfrwt beam="1">  1        2 0.11273049E+00 0.30517416E+03</pdfrwt>
<pdfrwt beam="2">  1       -2 0.51632916E-01 0.30517416E+03</pdfrwt>
<totfact> 0.14364774E+02</totfact>
</mgrwt>
</event>
<event>
 4    1  0.2202466E-008  0.1201201E+04  0.7818608E-02  0.9111806E-01
         -2   -1    0    0    0  501 -0.00000000000E+00  0.00000000000E+00  0.29611642536E+04  0.29611642536E+04  0.25500000000E-02 0.  1.
          2   -1    0    0  501    0  0.00000000000E+00 -0.00000000000E+00 -0.80589461386E+03  0.80589461386E+03  0.25500000000E-02 0. -1.
    8880022    1    1    2    0    0  0.91849235588E+03  0.75885657971E+03  0.22619675010E+04  0.25611286858E+04  0.15294330000E+03 0.  0.
    8880022    1    1    2    0    0 -0.91849235588E+03 -0.75885657971E+03 -0.10669786133E+03  0.12059301816E+04  0.15294330000E+03 0.  0.
<mgrwt>
<rscale>  0 0.12012007E+04</rscale>
<asrwt>0</asrwt>
<pdfrwt beam="1">  1        2 0.12398379E+00 0.12012007E+04</pdfrwt>
<pdfrwt beam="2">  1       -2 0.45556374E+00 0.12012007E+04</pdfrwt>
<totfact> 0.10736851E-01</totfact>
</mgrwt>
</event>
<event>
 4    1  0.2202466E-008  0.1223439E+04  0.7818608E-02  0.9092584E-01
         -2   -1    0    0    0  501 -0.00000000000E+00  0.00000000000E+00  0.14216952362E+04  0.14216952362E+04  0.25500000000E-02 0.  1.
          2   -1    0    0  501    0  0.00000000000E+00 -0.00000000000E+00 -0.29015780720E+04  0.29015780720E+04  0.25500000000E-02 0. -1.
    8880022    1    1    2    0    0  0.22852119088E+03  0.11921368491E+04 -0.24653994272E+04  0.27522714602E+04  0.15294330000E+03 0.  0.
    8880022    1    1    2    0    0 -0.22852119088E+03 -0.11921368491E+04  0.98551659141E+03  0.15710018481E+04  0.15294330000E+03 0.  0.
<mgrwt>
<rscale>  0 0.12234394E+04</rscale>
<asrwt>0</asrwt>
<pdfrwt beam="1">  1        2 0.44639663E+00 0.12234394E+04</pdfrwt>
<pdfrwt beam="2">  1       -2 0.21872234E+00 0.12234394E+04</pdfrwt>
<totfact> 0.19739271E-01</totfact>
</mgrwt>
</event>
<event>
 4    1  0.2202466E-008  0.1252139E+04  0.7818608E-02  0.9068405E-01
          2   -1    0    0  501    0  0.00000000000E+00  0.00000000000E+00  0.33863580529E+04  0.33863580529E+04  0.25500000000E-02 0. -1.
         -2   -1    0    0    0  501 -0.00000000000E+00 -0.00000000000E+00 -0.81234711212E+03  0.81234711212E+03  0.25500000000E-02 0.  1.
    8880022    1    1    2    0    0 -0.72236788883E+02  0.12406623078E+04 -0.89724712787E+02  0.12553498686E+04  0.15294330000E+03 0.  0.
    8880022    1    1    2    0    0  0.72236788883E+02 -0.12406623078E+04  0.26637356535E+04  0.29433552964E+04  0.15294330000E+03 0.  0.
<mgrwt>
<rscale>  0 0.12521393E+04</rscale>
<asrwt>0</asrwt>
<pdfrwt beam="1">  1        2 0.52097817E+00 0.12521393E+04</pdfrwt>
<pdfrwt beam="2">  1       -2 0.12497648E+00 0.12521393E+04</pdfrwt>
<totfact> 0.46121049E-01</totfact>
</mgrwt>
</event>
<event>
 4    1  0.2202466E-008  0.8068374E+03  0.7818608E-02  0.9550173E-01
          2   -1    0    0  501    0  0.00000000000E+00  0.00000000000E+00  0.14099757359E+04  0.14099757359E+04  0.25500000000E-02 0. -1.
         -2   -1    0    0    0  501 -0.00000000000E+00 -0.00000000000E+00 -0.85943839538E+03  0.85943839538E+03  0.25500000000E-02 0.  1.
    8880022    1    1    2    0    0  0.31326443986E+02 -0.79158924290E+03 -0.49665588935E+03  0.94744583012E+03  0.15294330000E+03 0.  0.
    8880022    1    1    2    0    0 -0.31326443986E+02  0.79158924290E+03  0.10471932298E+04  0.13219683011E+04  0.15294330000E+03 0.  0.
<mgrwt>
<rscale>  0 0.80683736E+03</rscale>
<asrwt>0</asrwt>
<pdfrwt beam="1">  1        2 0.21691934E+00 0.80683736E+03</pdfrwt>
<pdfrwt beam="2">  1       -2 0.13222129E+00 0.80683736E+03</pdfrwt>
<totfact> 0.60354443E+00</totfact>
</mgrwt>
</event>
<event>
 4    1  0.2202466E-008  0.6440219E+03  0.7818608E-02  0.9818062E-01
         -2   -1    0    0    0  501 -0.00000000000E+00  0.00000000000E+00  0.87653637332E+03  0.87653637332E+03  0.25500000000E-02 0.  1.
          2   -1    0    0  501    0  0.00000000000E+00 -0.00000000000E+00 -0.55954530030E+03  0.55954530031E+03  0.25500000000E-02 0. -1.
    8880022    1    1    2    0    0  0.19092702945E+03  0.59575115233E+03  0.44058545866E+03  0.78030748136E+03  0.15294330000E+03 0.  0.
    8880022    1    1    2    0    0 -0.19092702945E+03 -0.59575115233E+03 -0.12359438564E+03  0.65577419227E+03  0.15294330000E+03 0.  0.
<mgrwt>
<rscale>  0 0.64402191E+03</rscale>
<asrwt>0</asrwt>
<pdfrwt beam="1">  1        2 0.86083893E-01 0.64402191E+03</pdfrwt>
<pdfrwt beam="2">  1       -2 0.13485175E+00 0.64402191E+03</pdfrwt>
<totfact> 0.21835934E+01</totfact>
</mgrwt>
</event>
<event>
 4    1  0.2202466E-008  0.5997493E+03  0.7818608E-02  0.9905926E-01
          2   -1    0    0  501    0  0.00000000000E+00  0.00000000000E+00  0.25420863207E+04  0.25420863207E+04  0.25500000000E-02 0. -1.
         -2   -1    0    0    0  501 -0.00000000000E+00 -0.00000000000E+00 -0.14858709880E+03  0.14858709882E+03  0.25500000000E-02 0.  1.
    8880022    1    1    2    0    0 -0.57981725155E+03  0.10930910399E+02  0.90288494550E+03  0.10839282300E+04  0.15294330000E+03 0.  0.
    8880022    1    1    2    0    0  0.57981725155E+03 -0.10930910399E+02  0.14906142764E+04  0.16067451895E+04  0.15294330000E+03 0.  0.
<mgrwt>
<rscale>  0 0.59974927E+03</rscale>
<asrwt>0</asrwt>
<pdfrwt beam="1">  1        2 0.39109021E+00 0.59974927E+03</pdfrwt>
<pdfrwt beam="2">  1       -2 0.22859553E-01 0.59974927E+03</pdfrwt>
<totfact> 0.58977186E+01</totfact>
</mgrwt>
</event>
<event>
 4    1  0.2202466E-008  0.9109158E+03  0.7818608E-02  0.9412038E-01
          2   -1    0    0  501    0  0.00000000000E+00  0.00000000000E+00  0.42035540139E+04  0.42035540139E+04  0.25500000000E-02 0. -1.
         -2   -1    0    0    0  501 -0.00000000000E+00 -0.00000000000E+00 -0.26142730729E+03  0.26142730730E+03  0.25500000000E-02 0.  1.
    8880022    1    1    2    0    0 -0.55492751774E+03 -0.70599678196E+03  0.86620141741E+03  0.12570093693E+04  0.15294330000E+03 0.  0.
    8880022    1    1    2    0    0  0.55492751774E+03  0.70599678196E+03  0.30759252892E+04  0.32079719518E+04  0.15294330000E+03 0.  0.
<mgrwt>
<rscale>  0 0.91091584E+03</rscale>
<asrwt>0</asrwt>
<pdfrwt beam="1">  1        2 0.64670059E+00 0.91091584E+03</pdfrwt>
<pdfrwt beam="2">  1       -2 0.40219587E-01 0.91091584E+03</pdfrwt>
<totfact> 0.14607397E+00</totfact>
</mgrwt>
</event>
<event>
 4    1  0.2202466E-008  0.7662545E+03  0.7818608E-02  0.9610189E-01
          2   -1    0    0  501    0  0.00000000000E+00  0.00000000000E+00  0.20471436590E+04  0.20471436590E+04  0.25500000000E-02 0. -1.
         -2   -1    0    0    0  501 -0.00000000000E+00 -0.00000000000E+00 -0.48185584397E+03  0.48185584398E+03  0.25500000000E-02 0.  1.
    8880022    1    1    2    0    0  0.69600162709E+03 -0.28166648655E+03  0.15871438216E+04  0.17624333854E+04  0.15294330000E+03 0.  0.
    8880022    1    1    2    0    0 -0.69600162709E+03  0.28166648655E+03 -0.21856006576E+02  0.76656611756E+03  0.15294330000E+03 0.  0.
<mgrwt>
<rscale>  0 0.76625448E+03</rscale>
<asrwt>0</asrwt>
<pdfrwt beam="1">  1        2 0.31494518E+00 0.76625448E+03</pdfrwt>
<pdfrwt beam="2">  1       -2 0.74131668E-01 0.76625448E+03</pdfrwt>
<totfact> 0.10654929E+01</totfact>
</mgrwt>
</event>
<event>
 4    1  0.2202466E-008  0.7137656E+03  0.7818608E-02  0.9693977E-01
          2   -1    0    0  501    0  0.00000000000E+00  0.00000000000E+00  0.10839637244E+04  0.10839637244E+04  0.25500000000E-02 0. -1.
         -2   -1    0    0    0  501 -0.00000000000E+00 -0.00000000000E+00 -0.76945479522E+03  0.76945479522E+03  0.25500000000E-02 0.  1.
    8880022    1    1    2    0    0  0.28455001752E+03 -0.63647540091E+03 -0.42086645714E+03  0.82860719053E+03  0.15294330000E+03 0.  1.
    8880022    1    1    2    0    0 -0.28455001752E+03  0.63647540091E+03  0.73537538634E+03  0.10248113291E+04  0.15294330000E+03 0.  0.
<mgrwt>
<rscale>  0 0.71376558E+03</rscale>
<asrwt>0</asrwt>
<pdfrwt beam="1">  1        2 0.16676365E+00 0.71376558E+03</pdfrwt>
<pdfrwt beam="2">  1       -2 0.11837766E+00 0.71376558E+03</pdfrwt>
<totfact> 0.12518134E+01</totfact>
</mgrwt>
</event>
<event>
 4    1  0.2202466E-008  0.3954585E+03  0.7818608E-02  0.1045364E+00
         -2   -1    0    0    0  501 -0.00000000000E+00  0.00000000000E+00  0.47350407096E+03  0.47350407097E+03  0.25500000000E-02 0.  1.
          2   -1    0    0  501    0  0.00000000000E+00 -0.00000000000E+00 -0.15937404534E+04  0.15937404534E+04  0.25500000000E-02 0. -1.
    8880022    1    1    2    0    0 -0.18208850070E+03  0.31597394073E+03 -0.14804288119E+04  0.15323370626E+04  0.15294330000E+03 0.  0.
    8880022    1    1    2    0    0  0.18208850070E+03 -0.31597394073E+03  0.36019242951E+03  0.53490746172E+03  0.15294330000E+03 0.  0.
<mgrwt>
<rscale>  0 0.39545848E+03</rscale>
<asrwt>0</asrwt>
<pdfrwt beam="1">  1        2 0.24519084E+00 0.39545848E+03</pdfrwt>
<pdfrwt beam="2">  1       -2 0.72846781E-01 0.39545848E+03</pdfrwt>
<totfact> 0.20874961E+01</totfact>
</mgrwt>
</event>
<event>
 4    1  0.2202466E-008  0.4192960E+03  0.7818608E-02  0.1037296E+00
          2   -1    0    0  501    0  0.00000000000E+00  0.00000000000E+00  0.56947282834E+03  0.56947282834E+03  0.25500000000E-02 0. -1.
         -2   -1    0    0    0  501 -0.00000000000E+00 -0.00000000000E+00 -0.13418747286E+04  0.13418747286E+04  0.25500000000E-02 0.  1.
    8880022    1    1    2    0    0  0.14088032099E+03 -0.36410191335E+03  0.45236229808E+03  0.61679880827E+03  0.15294330000E+03 0.  0.
    8880022    1    1    2    0    0 -0.14088032099E+03  0.36410191335E+03 -0.12247641984E+04  0.12945487487E+04  0.15294330000E+03 0.  0.
<mgrwt>
<rscale>  0 0.41929598E+03</rscale>
<asrwt>0</asrwt>
<pdfrwt beam="1">  1        2 0.87611205E-01 0.41929598E+03</pdfrwt>
<pdfrwt beam="2">  1       -2 0.20644226E+00 0.41929598E+03</pdfrwt>
<totfact> 0.68604465E+00</totfact>
</mgrwt>
</event>
<event>
 4    1  0.2202466E-008  0.1246666E+04  0.7818608E-02  0.9072962E-01
          2   -1    0    0  501    0  0.00000000000E+00  0.00000000000E+00  0.17291186639E+04  0.17291186639E+04  0.25500000000E-02 0. -1.
         -2   -1    0    0    0  501 -0.00000000000E+00 -0.00000000000E+00 -0.99661292369E+03  0.99661292369E+03  0.25500000000E-02 0.  1.
    8880022    1    1    2    0    0  0.36846488787E+03  0.11811093294E+04  0.79315628846E+03  0.14775906647E+04  0.15294330000E+03 0.  0.
    8880022    1    1    2    0    0 -0.36846488787E+03 -0.11811093294E+04 -0.60650548211E+02  0.12481409229E+04  0.15294330000E+03 0.  0.
<mgrwt>
<rscale>  0 0.12466665E+04</rscale>
<asrwt>0</asrwt>
<pdfrwt beam="1">  1        2 0.26601825E+00 0.12466665E+04</pdfrwt>
<pdfrwt beam="2">  1       -2 0.15332507E+00 0.12466665E+04</pdfrwt>
<totfact> 0.25828864E+00</totfact>
</mgrwt>
</event>
<event>
 4    1  0.2202466E-008  0.9290768E+03  0.7818608E-02  0.9389947E-01
         -2   -1    0    0    0  501 -0.00000000000E+00  0.00000000000E+00  0.20648051245E+04  0.20648051245E+04  0.25500000000E-02 0.  1.
          2   -1    0    0  501    0  0.00000000000E+00 -0.00000000000E+00 -0.51942758775E+03  0.51942758776E+03  0.25500000000E-02 0. -1.
    8880022    1    1    2    0    0  0.51541299801E+03  0.75772120730E+03  0.20184332151E+03  0.95074937074E+03  0.15294330000E+03 0.  0.
    8880022    1    1    2    0    0 -0.51541299801E+03 -0.75772120730E+03  0.13435342153E+04  0.16334833415E+04  0.15294330000E+03 0.  0.
<mgrwt>
<rscale>  0 0.92907677E+03</rscale>
<asrwt>0</asrwt>
<pdfrwt beam="1">  1        2 0.79911936E-01 0.92907677E+03</pdfrwt>
<pdfrwt beam="2">  1       -2 0.31766233E+00 0.92907677E+03</pdfrwt>
<totfact> 0.14852777E+00</totfact>
</mgrwt>
</event>
<event>
 4    1  0.2202466E-008  0.1369525E+04  0.7818608E-02  0.8976178E-01
         -2   -1    0    0    0  501 -0.00000000000E+00  0.00000000000E+00  0.17661079377E+04  0.17661079377E+04  0.25500000000E-02 0.  1.
          2   -1    0    0  501    0  0.00000000000E+00 -0.00000000000E+00 -0.14649170777E+04  0.14649170777E+04  0.25500000000E-02 0. -1.
    8880022    1    1    2    0    0  0.35038664935E+03 -0.13150798952E+04 -0.69666007771E+03  0.15365327369E+04  0.15294330000E+03 0. -1.
    8880022    1    1    2    0    0 -0.35038664935E+03  0.13150798952E+04  0.99785093772E+03  0.16944922784E+04  0.15294330000E+03 0.  0.
<mgrwt>
<rscale>  0 0.13695246E+04</rscale>
<asrwt>0</asrwt>
<pdfrwt beam="1">  1        2 0.22537186E+00 0.13695246E+04</pdfrwt>
<pdfrwt beam="2">  1       -2 0.27170891E+00 0.13695246E+04</pdfrwt>
<totfact> 0.59974764E-01</totfact>
</mgrwt>
</event>
<event>
 4    1  0.2202466E-008  0.1942311E+04  0.7818608E-02  0.8634077E-01
          2   -1    0    0  501    0  0.00000000000E+00  0.00000000000E+00  0.28758111768E+04  0.28758111768E+04  0.25500000000E-02 0. -1.
         -2   -1    0    0    0  501 -0.00000000000E+00 -0.00000000000E+00 -0.17053929517E+04  0.17053929517E+04  0.25500000000E-02 0.  1.
    8880022    1    1    2    0    0  0.62046080136E+03 -0.18341779000E+04  0.16855954797E+04  0.25717317024E+04  0.15294330000E+03 0.  0.
    8880022    1    1    2    0    0 -0.62046080136E+03  0.18341779000E+04 -0.51517725454E+03  0.20094724261E+04  0.15294330000E+03 0.  0.
<mgrwt>
<rscale>  0 0.19423110E+04</rscale>
<asrwt>0</asrwt>
<pdfrwt beam="1">  1        2 0.44243248E+00 0.19423110E+04</pdfrwt>
<pdfrwt beam="2">  1       -2 0.26236815E+00 0.19423110E+04</pdfrwt>
<totfact> 0.10013090E-01</totfact>
</mgrwt>
</event>
<event>
 4    1  0.2202466E-008  0.1431570E+04  0.7818608E-02  0.8931278E-01
         -2   -1    0    0    0  501 -0.00000000000E+00  0.00000000000E+00  0.11185126284E+04  0.11185126284E+04  0.25500000000E-02 0.  1.
          2   -1    0    0  501    0  0.00000000000E+00 -0.00000000000E+00 -0.34217074540E+04  0.34217074540E+04  0.25500000000E-02 0. -1.
    8880022    1    1    2    0    0  0.98081343180E+03 -0.10315069876E+04  0.39561557856E+03  0.14852289360E+04  0.15294330000E+03 0.  0.
    8880022    1    1    2    0    0 -0.98081343180E+03  0.10315069876E+04 -0.26988104042E+04  0.30549911464E+04  0.15294330000E+03 0.  0.
<mgrwt>
<rscale>  0 0.14315702E+04</rscale>
<asrwt>0</asrwt>
<pdfrwt beam="1">  1        2 0.52641653E+00 0.14315702E+04</pdfrwt>
<pdfrwt beam="2">  1       -2 0.17207887E+00 0.14315702E+04</pdfrwt>
<totfact> 0.18184311E-01</totfact>
</mgrwt>
</event>
<event>
 4    1  0.2202466E-008  0.1024087E+04  0.7818608E-02  0.9282514E-01
          2   -1    0    0  501    0  0.00000000000E+00  0.00000000000E+00  0.19579346926E+04  0.19579346926E+04  0.25500000000E-02 0. -1.
         -2   -1    0    0    0  501 -0.00000000000E+00 -0.00000000000E+00 -0.62956316633E+03  0.62956316634E+03  0.25500000000E-02 0.  1.
    8880022    1    1    2    0    0 -0.87495560648E+03 -0.50972024650E+03  0.16448484401E+03  0.10372121094E+04  0.15294330000E+03 0.  0.
    8880022    1    1    2    0    0  0.87495560648E+03  0.50972024650E+03  0.11638866823E+04  0.15502857495E+04  0.15294330000E+03 0.  0.
<mgrwt>
<rscale>  0 0.10240868E+04</rscale>
<asrwt>0</asrwt>
<pdfrwt beam="1">  1        2 0.30122072E+00 0.10240868E+04</pdfrwt>
<pdfrwt beam="2">  1       -2 0.96855874E-01 0.10240868E+04</pdfrwt>
<totfact> 0.62638996E+00</totfact>
</mgrwt>
</event>
<event>
 4    1  0.2202466E-008  0.2243625E+03  0.7818608E-02  0.1130672E+00
         -2   -1    0    0    0  501 -0.00000000000E+00  0.00000000000E+00  0.25069750864E+03  0.25069750865E+03  0.25500000000E-02 0.  1.
          2   -1    0    0  501    0  0.00000000000E+00 -0.00000000000E+00 -0.26146720732E+04  0.26146720732E+04  0.25500000000E-02 0. -1.
    8880022    1    1    2    0    0  0.12234066685E+03  0.10945156268E+03 -0.25585617437E+04  0.25683801769E+04  0.15294330000E+03 0. -1.
    8880022    1    1    2    0    0 -0.12234066685E+03 -0.10945156268E+03  0.19458717920E+03  0.29698940497E+03  0.15294330000E+03 0.  0.
<mgrwt>
<rscale>  0 0.22436251E+03</rscale>
<asrwt>0</asrwt>
<pdfrwt beam="1">  1        2 0.40225722E+00 0.22436251E+03</pdfrwt>
<pdfrwt beam="2">  1       -2 0.38568849E-01 0.22436251E+03</pdfrwt>
<totfact> 0.22971170E+01</totfact>
</mgrwt>
</event>
<event>
 4    1  0.2202466E-008  0.8289551E+03  0.7818608E-02  0.9519026E-01
         -2   -1    0    0    0  501 -0.00000000000E+00  0.00000000000E+00  0.62250671856E+03  0.62250671856E+03  0.25500000000E-02 0.  1.
          2   -1    0    0  501    0  0.00000000000E+00 -0.00000000000E+00 -0.42741568973E+04  0.42741568973E+04  0.25500000000E-02 0. -1.
    8880022    1    1    2    0    0  0.16440368356E+03 -0.79796389928E+03 -0.39344256353E+04  0.40208048558E+04  0.15294330000E+03 0.  0.
    8880022    1    1    2    0    0 -0.16440368356E+03  0.79796389928E+03  0.28277545656E+03  0.87585876006E+03  0.15294330000E+03 0.  0.
<mgrwt>
<rscale>  0 0.82895513E+03</rscale>
<asrwt>0</asrwt>
<pdfrwt beam="1">  1        2 0.65756258E+00 0.82895513E+03</pdfrwt>
<pdfrwt beam="2">  1       -2 0.95770267E-01 0.82895513E+03</pdfrwt>
<totfact> 0.20240849E-01</totfact>
</mgrwt>
</event>
<event>
 4    1  0.2202466E-008  0.3331114E+03  0.7818608E-02  0.1069768E+00
          2   -1    0    0  501    0  0.00000000000E+00  0.00000000000E+00  0.12437960214E+04  0.12437960214E+04  0.25500000000E-02 0. -1.
         -2   -1    0    0    0  501 -0.00000000000E+00 -0.00000000000E+00 -0.69295965072E+03  0.69295965072E+03  0.25500000000E-02 0.  1.
    8880022    1    1    2    0    0 -0.16473185713E+03  0.24583519634E+03 -0.62847709073E+03  0.71129925847E+03  0.15294330000E+03 0.  0.
    8880022    1    1    2    0    0  0.16473185713E+03 -0.24583519634E+03  0.11793134614E+04  0.12254564137E+04  0.15294330000E+03 0. -1.
<mgrwt>
<rscale>  0 0.33311137E+03</rscale>
<asrwt>0</asrwt>
<pdfrwt beam="1">  1        2 0.19135324E+00 0.33311137E+03</pdfrwt>
<pdfrwt beam="2">  1       -2 0.10660918E+00 0.33311137E+03</pdfrwt>
<totfact> 0.13902974E+01</totfact>
</mgrwt>
</event>
<event>
 4    1  0.2202466E-008  0.1774633E+03  0.7818608E-02  0.1170281E+00
         -2   -1    0    0    0  501 -0.00000000000E+00  0.00000000000E+00  0.66318093499E+03  0.66318093500E+03  0.25500000000E-02 0.  1.
          2   -1    0    0  501    0  0.00000000000E+00 -0.00000000000E+00 -0.20795292982E+04  0.20795292982E+04  0.25500000000E-02 0. -1.
    8880022    1    1    2    0    0 -0.24185568259E+02 -0.86698474117E+02  0.64743237603E+03  0.67131356434E+03  0.15294330000E+03 0.  1.
    8880022    1    1    2    0    0  0.24185568259E+02  0.86698474117E+02 -0.20637807392E+04  0.20713966689E+04  0.15294330000E+03 0.  0.
<mgrwt>
<rscale>  0 0.17746329E+03</rscale>
<asrwt>0</asrwt>
<pdfrwt beam="1">  1        2 0.31992758E+00 0.17746329E+03</pdfrwt>
<pdfrwt beam="2">  1       -2 0.10202784E+00 0.17746329E+03</pdfrwt>
<totfact> 0.59541634E+00</totfact>
</mgrwt>
</event>
<event>
 4    1  0.2202466E-008  0.5688634E+03  0.7818608E-02  0.9972197E-01
         -2   -1    0    0    0  501 -0.00000000000E+00  0.00000000000E+00  0.31233381851E+03  0.31233381852E+03  0.25500000000E-02 0.  1.
          2   -1    0    0  501    0  0.00000000000E+00 -0.00000000000E+00 -0.26708752485E+04  0.26708752485E+04  0.25500000000E-02 0. -1.
    8880022    1    1    2    0    0  0.42603743389E+03 -0.34453738198E+03 -0.12306834609E+02  0.56899649721E+03  0.15294330000E+03 0.  0.
    8880022    1    1    2    0    0 -0.42603743389E+03  0.34453738198E+03 -0.23462345954E+04  0.24142125698E+04  0.15294330000E+03 0.  0.
<mgrwt>
<rscale>  0 0.56886339E+03</rscale>
<asrwt>0</asrwt>
<pdfrwt beam="1">  1        2 0.41090387E+00 0.56886339E+03</pdfrwt>
<pdfrwt beam="2">  1       -2 0.48051358E-01 0.56886339E+03</pdfrwt>
<totfact> 0.12362672E+01</totfact>
</mgrwt>
</event>
<event>
 4    1  0.2202466E-008  0.3882832E+03  0.7818608E-02  0.1047914E+00
          2   -1    0    0  501    0  0.00000000000E+00  0.00000000000E+00  0.21695023845E+03  0.21695023846E+03  0.25500000000E-02 0. -1.
         -2   -1    0    0    0  501 -0.00000000000E+00 -0.00000000000E+00 -0.89436170823E+03  0.89436170824E+03  0.25500000000E-02 0.  1.
    8880022    1    1    2    0    0  0.26821366505E+03  0.23544344121E+03 -0.60109948111E+03  0.71560074297E+03  0.15294330000E+03 0.  0.
    8880022    1    1    2    0    0 -0.26821366505E+03 -0.23544344121E+03 -0.76311988670E+02  0.39571120373E+03  0.15294330000E+03 0.  0.
<mgrwt>
<rscale>  0 0.38828319E+03</rscale>
<asrwt>0</asrwt>
<pdfrwt beam="1">  1        2 0.33376960E-01 0.38828319E+03</pdfrwt>
<pdfrwt beam="2">  1       -2 0.13759411E+00 0.38828319E+03</pdfrwt>
<totfact> 0.61351797E+01</totfact>
</mgrwt>
</event>
<event>
 4    1  0.2202466E-008  0.1143718E+04  0.7818608E-02  0.9163598E-01
         -2   -1    0    0    0  501 -0.00000000000E+00  0.00000000000E+00  0.25401980894E+04  0.25401980894E+04  0.25500000000E-02 0.  1.
          2   -1    0    0  501    0  0.00000000000E+00 -0.00000000000E+00 -0.71106487756E+03  0.71106487757E+03  0.25500000000E-02 0. -1.
    8880022    1    1    2    0    0  0.11297795081E+04  0.91093419342E+02  0.60846298760E+02  0.11453356159E+04  0.15294330000E+03 0.  0.
    8880022    1    1    2    0    0 -0.11297795081E+04 -0.91093419342E+02  0.17682869130E+04  0.21059273510E+04  0.15294330000E+03 0.  0.
<mgrwt>
<rscale>  0 0.11437182E+04</rscale>
<asrwt>0</asrwt>
<pdfrwt beam="1">  1        2 0.10939460E+00 0.11437182E+04</pdfrwt>
<pdfrwt beam="2">  1       -2 0.39079970E+00 0.11437182E+04</pdfrwt>
<totfact> 0.34116582E-01</totfact>
</mgrwt>
</event>
<event>
 4    1  0.2202466E-008  0.1464285E+04  0.7818608E-02  0.8908556E-01
          2   -1    0    0  501    0  0.00000000000E+00  0.00000000000E+00  0.31902997540E+04  0.31902997540E+04  0.25500000000E-02 0. -1.
         -2   -1    0    0    0  501 -0.00000000000E+00 -0.00000000000E+00 -0.11537068153E+04  0.11537068153E+04  0.25500000000E-02 0.  1.
    8880022    1    1    2    0    0 -0.13755930628E+04 -0.47799992694E+03  0.24216553801E+04  0.28299375678E+04  0.15294330000E+03 0.  0.
    8880022    1    1    2    0    0  0.13755930628E+04  0.47799992694E+03 -0.38506244136E+03  0.15140690016E+04  0.15294330000E+03 0.  0.
<mgrwt>
<rscale>  0 0.14642854E+04</rscale>
<asrwt>0</asrwt>
<pdfrwt beam="1">  1        2 0.49081535E+00 0.14642854E+04</pdfrwt>
<pdfrwt beam="2">  1       -2 0.17749336E+00 0.14642854E+04</pdfrwt>
<totfact> 0.23605129E-01</totfact>
</mgrwt>
</event>
<event>
 4    1  0.2202466E-008  0.5629492E+03  0.7818608E-02  0.9985403E-01
         -2   -1    0    0    0  501 -0.00000000000E+00  0.00000000000E+00  0.92649604396E+03  0.92649604396E+03  0.25500000000E-02 0.  1.
          2   -1    0    0  501    0  0.00000000000E+00 -0.00000000000E+00 -0.10733735416E+04  0.10733735416E+04  0.25500000000E-02 0. -1.
    8880022    1    1    2    0    0  0.17102444759E+03  0.51407279770E+03 -0.89881081979E+03  0.10605530377E+04  0.15294330000E+03 0.  0.
    8880022    1    1    2    0    0 -0.17102444759E+03 -0.51407279770E+03  0.75193332217E+03  0.93931654783E+03  0.15294330000E+03 0.  1.
<mgrwt>
<rscale>  0 0.56294925E+03</rscale>
<asrwt>0</asrwt>
<pdfrwt beam="1">  1        2 0.16513439E+00 0.56294925E+03</pdfrwt>
<pdfrwt beam="2">  1       -2 0.14253785E+00 0.56294925E+03</pdfrwt>
<totfact> 0.81237261E+00</totfact>
</mgrwt>
</event>
<event>
 4    1  0.2202466E-008  0.3179183E+03  0.7818608E-02  0.1076611E+00
          2   -1    0    0  501    0  0.00000000000E+00  0.00000000000E+00  0.32774322497E+04  0.32774322497E+04  0.25500000000E-02 0. -1.
         -2   -1    0    0    0  501 -0.00000000000E+00 -0.00000000000E+00 -0.40737668636E+03  0.40737668637E+03  0.25500000000E-02 0.  1.
    8880022    1    1    2    0    0 -0.20380510472E+03  0.19011545322E+03 -0.33626860209E+03  0.46276196044E+03  0.15294330000E+03 0.  0.
    8880022    1    1    2    0    0  0.20380510472E+03 -0.19011545322E+03  0.32063241654E+04  0.32220469756E+04  0.15294330000E+03 0.  0.
<mgrwt>
<rscale>  0 0.31791832E+03</rscale>
<asrwt>0</asrwt>
<pdfrwt beam="1">  1        2 0.50422036E+00 0.31791832E+03</pdfrwt>
<pdfrwt beam="2">  1       -2 0.62673334E-01 0.31791832E+03</pdfrwt>
<totfact> 0.33735696E+00</totfact>
</mgrwt>
</event>
<event>
 4    1  0.2202466E-008  0.7413342E+03  0.7818608E-02  0.9649045E-01
         -2   -1    0    0    0  501 -0.00000000000E+00  0.00000000000E+00  0.37658053927E+03  0.37658053928E+03  0.25500000000E-02 0.  1.
          2   -1    0    0  501    0  0.00000000000E+00 -0.00000000000E+00 -0.26841946500E+04  0.26841946500E+04  0.25500000000E-02 0. -1.
    8880022    1    1    2    0    0  0.52533218339E+03 -0.50021077543E+03 -0.21875880689E+04  0.23097874221E+04  0.15294330000E+03 0.  0.
    8880022    1    1    2    0    0 -0.52533218339E+03  0.50021077543E+03 -0.12002604177E+03  0.75098776720E+03  0.15294330000E+03 0.  0.
<mgrwt>
<rscale>  0 0.74133419E+03</rscale>
<asrwt>0</asrwt>
<pdfrwt beam="1">  1        2 0.41295301E+00 0.74133419E+03</pdfrwt>
<pdfrwt beam="2">  1       -2 0.57935469E-01 0.74133419E+03</pdfrwt>
<totfact> 0.79919804E+00</totfact>
</mgrwt>
</event>
<event>
 4    1  0.2202466E-008  0.7244103E+03  0.7818608E-02  0.9676374E-01
          2   -1    0    0  501    0  0.00000000000E+00  0.00000000000E+00  0.12032277694E+04  0.12032277694E+04  0.25500000000E-02 0. -1.
         -2   -1    0    0    0  501 -0.00000000000E+00 -0.00000000000E+00 -0.65617344591E+03  0.65617344592E+03  0.25500000000E-02 0.  1.
    8880022    1    1    2    0    0 -0.46736603392E+03 -0.53192827294E+03 -0.26484497589E+03  0.77130617234E+03  0.15294330000E+03 0.  0.
    8880022    1    1    2    0    0  0.46736603392E+03  0.53192827294E+03  0.81189929937E+03  0.10880950430E+04  0.15294330000E+03 0.  0.
<mgrwt>
<rscale>  0 0.72441035E+03</rscale>
<asrwt>0</asrwt>
<pdfrwt beam="1">  1        2 0.18511196E+00 0.72441035E+03</pdfrwt>
<pdfrwt beam="2">  1       -2 0.10094976E+00 0.72441035E+03</pdfrwt>
<totfact> 0.15571912E+01</totfact>
</mgrwt>
</event>
<event>
 4    1  0.2202466E-008  0.7513264E+03  0.7818608E-02  0.9633272E-01
          2   -1    0    0  501    0  0.00000000000E+00  0.00000000000E+00  0.13377812443E+04  0.13377812443E+04  0.25500000000E-02 0. -1.
         -2   -1    0    0    0  501 -0.00000000000E+00 -0.00000000000E+00 -0.30135072739E+04  0.30135072739E+04  0.25500000000E-02 0.  1.
    8880022    1    1    2    0    0 -0.34594359962E+03  0.64917083455E+03  0.11797192608E+04  0.13986525423E+04  0.15294330000E+03 0.  0.
    8880022    1    1    2    0    0  0.34594359962E+03 -0.64917083455E+03 -0.28554452904E+04  0.29526359759E+04  0.15294330000E+03 0.  0.
<mgrwt>
<rscale>  0 0.75132643E+03</rscale>
<asrwt>0</asrwt>
<pdfrwt beam="1">  1        2 0.20581250E+00 0.75132643E+03</pdfrwt>
<pdfrwt beam="2">  1       -2 0.46361650E+00 0.75132643E+03</pdfrwt>
<totfact> 0.47725168E-02</totfact>
</mgrwt>
</event>
<event>
 4    1  0.2202466E-008  0.4376187E+03  0.7818608E-02  0.1031480E+00
         -2   -1    0    0    0  501 -0.00000000000E+00  0.00000000000E+00  0.19556322266E+03  0.19556322268E+03  0.25500000000E-02 0.  1.
          2   -1    0    0  501    0  0.00000000000E+00 -0.00000000000E+00 -0.22858280159E+04  0.22858280159E+04  0.25500000000E-02 0. -1.
    8880022    1    1    2    0    0 -0.35852256060E+03  0.19894738288E+03 -0.10712336362E+03  0.45053918327E+03  0.15294330000E+03 0.  0.
    8880022    1    1    2    0    0  0.35852256060E+03 -0.19894738288E+03 -0.19831414296E+04  0.20308520553E+04  0.15294330000E+03 0.  0.
<mgrwt>
<rscale>  0 0.43761872E+03</rscale>
<asrwt>0</asrwt>
<pdfrwt beam="1">  1        2 0.35166583E+00 0.43761872E+03</pdfrwt>
<pdfrwt beam="2">  1       -2 0.30086651E-01 0.43761872E+03</pdfrwt>
<totfact> 0.51393497E+01</totfact>
</mgrwt>
</event>
<event>
 4    1  0.2202466E-008  0.8081919E+03  0.7818608E-02  0.9548235E-01
         -2   -1    0    0    0  501 -0.00000000000E+00  0.00000000000E+00  0.13615798007E+04  0.13615798007E+04  0.25500000000E-02 0.  1.
          2   -1    0    0  501    0  0.00000000000E+00 -0.00000000000E+00 -0.88428571379E+03  0.88428571379E+03  0.25500000000E-02 0. -1.
    8880022    1    1    2    0    0  0.49484681001E+03 -0.62041045151E+03  0.99819138539E+03  0.12843520501E+04  0.15294330000E+03 0.  0.
    8880022    1    1    2    0    0 -0.49484681001E+03  0.62041045151E+03 -0.52089729844E+03  0.96151346442E+03  0.15294330000E+03 0.  0.
<mgrwt>
<rscale>  0 0.80819190E+03</rscale>
<asrwt>0</asrwt>
<pdfrwt beam="1">  1        2 0.13604396E+00 0.80819190E+03</pdfrwt>
<pdfrwt beam="2">  1       -2 0.20947382E+00 0.80819190E+03</pdfrwt>
<totfact> 0.35242183E+00</totfact>
</mgrwt>
</event>
<event>
 4    1  0.2202466E-008  0.1006452E+04  0.7818608E-02  0.9301496E-01
         -2   -1    0    0    0  501 -0.00000000000E+00  0.00000000000E+00  0.10192502303E+04  0.10192502303E+04  0.25500000000E-02 0.  1.
          2   -1    0    0  501    0  0.00000000000E+00 -0.00000000000E+00 -0.20525508582E+04  0.20525508582E+04  0.25500000000E-02 0. -1.
    8880022    1    1    2    0    0  0.82487593748E+03 -0.55599802763E+03  0.58643733442E+03  0.11648409845E+04  0.15294330000E+03 0.  0.
    8880022    1    1    2    0    0 -0.82487593748E+03  0.55599802763E+03 -0.16197379623E+04  0.19069601041E+04  0.15294330000E+03 0.  0.
<mgrwt>
<rscale>  0 0.10064521E+04</rscale>
<asrwt>0</asrwt>
<pdfrwt beam="1">  1        2 0.31577705E+00 0.10064521E+04</pdfrwt>
<pdfrwt beam="2">  1       -2 0.15680773E+00 0.10064521E+04</pdfrwt>
<totfact> 0.16574209E+00</totfact>
</mgrwt>
</event>
<event>
 4    1  0.2202466E-008  0.5358640E+03  0.7818608E-02  0.1004820E+00
         -2   -1    0    0    0  501 -0.00000000000E+00  0.00000000000E+00  0.70179882786E+03  0.70179882786E+03  0.25500000000E-02 0.  1.
          2   -1    0    0  501    0  0.00000000000E+00 -0.00000000000E+00 -0.86520808056E+03  0.86520808056E+03  0.25500000000E-02 0. -1.
    8880022    1    1    2    0    0 -0.42364643448E+02  0.51182397809E+03 -0.65053720382E+03  0.84282195874E+03  0.15294330000E+03 0.  0.
    8880022    1    1    2    0    0  0.42364643448E+02 -0.51182397809E+03  0.48712795112E+03  0.72418494968E+03  0.15294330000E+03 0.  0.
<mgrwt>
<rscale>  0 0.53586398E+03</rscale>
<asrwt>0</asrwt>
<pdfrwt beam="1">  1        2 0.13310894E+00 0.53586398E+03</pdfrwt>
<pdfrwt beam="2">  1       -2 0.10796905E+00 0.53586398E+03</pdfrwt>
<totfact> 0.22153153E+01</totfact>
</mgrwt>
</event>
<event>
 4    1  0.2202466E-008  0.4967404E+03  0.7818608E-02  0.1014633E+00
          2   -1    0    0  501    0  0.00000000000E+00  0.00000000000E+00  0.32052817702E+04  0.32052817702E+04  0.25500000000E-02 0. -1.
         -2   -1    0    0    0  501 -0.00000000000E+00 -0.00000000000E+00 -0.49966709641E+03  0.49966709641E+03  0.25500000000E-02 0.  1.
    8880022    1    1    2    0    0  0.15302435158E+03 -0.44714981202E+03  0.30566127147E+04  0.30967131522E+04  0.15294330000E+03 0.  0.
    8880022    1    1    2    0    0 -0.15302435158E+03  0.44714981202E+03 -0.35099804088E+03  0.60823571441E+03  0.15294330000E+03 0.  0.
<mgrwt>
<rscale>  0 0.49674043E+03</rscale>
<asrwt>0</asrwt>
<pdfrwt beam="1">  1        2 0.49312027E+00 0.49674043E+03</pdfrwt>
<pdfrwt beam="2">  1       -2 0.76871861E-01 0.49674043E+03</pdfrwt>
<totfact> 0.22371111E+00</totfact>
</mgrwt>
</event>
<event>
 4    1  0.2202466E-008  0.8660560E+03  0.7818608E-02  0.9469037E-01
          2   -1    0    0  501    0  0.00000000000E+00  0.00000000000E+00  0.16459038325E+04  0.16459038325E+04  0.25500000000E-02 0. -1.
         -2   -1    0    0    0  501 -0.00000000000E+00 -0.00000000000E+00 -0.60542307391E+03  0.60542307391E+03  0.25500000000E-02 0.  1.
    8880022    1    1    2    0    0  0.44014896296E+03  0.73002069948E+03 -0.39530854686E+02  0.86695771105E+03  0.15294330000E+03 0.  0.
    8880022    1    1    2    0    0 -0.44014896296E+03 -0.73002069948E+03  0.10800116133E+04  0.13843691954E+04  0.15294330000E+03 0.  0.
<mgrwt>
<rscale>  0 0.86605599E+03</rscale>
<asrwt>0</asrwt>
<pdfrwt beam="1">  1        2 0.25321597E+00 0.86605599E+03</pdfrwt>
<pdfrwt beam="2">  1       -2 0.93142012E-01 0.86605599E+03</pdfrwt>
<totfact> 0.10383705E+01</totfact>
</mgrwt>
</event>
<event>
 4    1  0.2202466E-008  0.7569115E+03  0.7818608E-02  0.9624569E-01
         -2   -1    0    0    0  501 -0.00000000000E+00  0.00000000000E+00  0.56825741766E+03  0.56825741767E+03  0.25500000000E-02 0.  1.
          2   -1    0    0  501    0  0.00000000000E+00 -0.00000000000E+00 -0.18955237777E+04  0.18955237777E+04  0.25500000000E-02 0. -1.
    8880022    1    1    2    0    0 -0.50115880301E+03  0.54622629028E+03  0.17921531606E+03  0.77783872914E+03  0.15294330000E+03 0.  0.
    8880022    1    1    2    0    0  0.50115880301E+03 -0.54622629028E+03 -0.15064816761E+04  0.16859424662E+04  0.15294330000E+03 0.  0.
<mgrwt>
<rscale>  0 0.75691146E+03</rscale>
<asrwt>0</asrwt>
<pdfrwt beam="1">  1        2 0.29161904E+00 0.75691146E+03</pdfrwt>
<pdfrwt beam="2">  1       -2 0.87424219E-01 0.75691146E+03</pdfrwt>
<totfact> 0.89047264E+00</totfact>
</mgrwt>
</event>
<event>
 4    1  0.2202466E-008  0.1593619E+04  0.7818608E-02  0.8824478E-01
          2   -1    0    0  501    0  0.00000000000E+00  0.00000000000E+00  0.33299464097E+04  0.33299464097E+04  0.25500000000E-02 0. -1.
         -2   -1    0    0    0  501 -0.00000000000E+00 -0.00000000000E+00 -0.14035014276E+04  0.14035014276E+04  0.25500000000E-02 0.  1.
    8880022    1    1    2    0    0 -0.15389238522E+04 -0.38463353364E+03 -0.63602626782E+03  0.17158527456E+04  0.15294330000E+03 0.  0.
    8880022    1    1    2    0    0  0.15389238522E+04  0.38463353364E+03  0.25624712498E+04  0.30175950917E+04  0.15294330000E+03 0.  0.
<mgrwt>
<rscale>  0 0.15936189E+04</rscale>
<asrwt>0</asrwt>
<pdfrwt beam="1">  1        2 0.51229945E+00 0.15936189E+04</pdfrwt>
<pdfrwt beam="2">  1       -2 0.21592330E+00 0.15936189E+04</pdfrwt>
<totfact> 0.10414731E-01</totfact>
</mgrwt>
</event>
<event>
 4    1  0.2202466E-008  0.7953680E+03  0.7818608E-02  0.9566746E-01
         -2   -1    0    0    0  501 -0.00000000000E+00  0.00000000000E+00  0.81511752305E+03  0.81511752305E+03  0.25500000000E-02 0.  1.
          2   -1    0    0  501    0  0.00000000000E+00 -0.00000000000E+00 -0.15049222798E+04  0.15049222798E+04  0.25500000000E-02 0. -1.
    8880022    1    1    2    0    0 -0.60855283563E+03  0.48875568864E+03 -0.11521747591E+04  0.14000417870E+04  0.15294330000E+03 0.  0.
    8880022    1    1    2    0    0  0.60855283563E+03 -0.48875568864E+03  0.46237000238E+03  0.91999801578E+03  0.15294330000E+03 0.  0.
<mgrwt>
<rscale>  0 0.79536805E+03</rscale>
<asrwt>0</asrwt>
<pdfrwt beam="1">  1        2 0.23152650E+00 0.79536805E+03</pdfrwt>
<pdfrwt beam="2">  1       -2 0.12540270E+00 0.79536805E+03</pdfrwt>
<totfact> 0.61117976E+00</totfact>
</mgrwt>
</event>
<event>
 4    1  0.2202466E-008  0.2462879E+04  0.7818608E-02  0.8416331E-01
          2   -1    0    0  501    0  0.00000000000E+00  0.00000000000E+00  0.26021878558E+04  0.26021878558E+04  0.25500000000E-02 0. -1.
         -2   -1    0    0    0  501 -0.00000000000E+00 -0.00000000000E+00 -0.25897845152E+04  0.25897845152E+04  0.25500000000E-02 0.  1.
    8880022    1    1    2    0    0  0.49196379678E+03  0.24083916797E+04  0.82677411925E+03  0.25979464886E+04  0.15294330000E+03 0.  0.
    8880022    1    1    2    0    0 -0.49196379678E+03 -0.24083916797E+04 -0.81437077870E+03  0.25940258824E+04  0.15294330000E+03 0.  0.
<mgrwt>
<rscale>  0 0.24628785E+04</rscale>
<asrwt>0</asrwt>
<pdfrwt beam="1">  1        2 0.40033659E+00 0.24628785E+04</pdfrwt>
<pdfrwt beam="2">  1       -2 0.39842839E+00 0.24628785E+04</pdfrwt>
<totfact> 0.19405705E-02</totfact>
</mgrwt>
</event>
<event>
 4    1  0.2204351E-008  0.1330595E+04  0.7818608E-02  0.9005649E-01
          2   -1    0    0  501    0  0.00000000000E+00  0.00000000000E+00  0.26084916193E+04  0.26084916193E+04  0.25500000000E-02 0. -1.
         -2   -1    0    0    0  501 -0.00000000000E+00 -0.00000000000E+00 -0.17878252242E+04  0.17878252242E+04  0.25500000000E-02 0.  1.
    8880022    1    1    2    0    0  0.93524413210E+03  0.93402839583E+03 -0.13209946623E+04  0.18749691149E+04  0.15294330000E+03 0.  0.
    8880022    1    1    2    0    0 -0.93524413210E+03 -0.93402839583E+03  0.21416610574E+04  0.25213477286E+04  0.15294330000E+03 0.  0.
<mgrwt>
<rscale>  0 0.13305947E+04</rscale>
<asrwt>0</asrwt>
<pdfrwt beam="1">  1        2 0.40130640E+00 0.13305947E+04</pdfrwt>
<pdfrwt beam="2">  1       -2 0.27505003E+00 0.13305947E+04</pdfrwt>
<totfact> 0.13047495E-01</totfact>
</mgrwt>
</event>
<event>
 4    1  0.2202466E-008  0.8396940E+03  0.7818608E-02  0.9504275E-01
         -2   -1    0    0    0  501 -0.00000000000E+00  0.00000000000E+00  0.65626347239E+03  0.65626347239E+03  0.25500000000E-02 0.  1.
          2   -1    0    0  501    0  0.00000000000E+00 -0.00000000000E+00 -0.18169669501E+04  0.18169669501E+04  0.25500000000E-02 0. -1.
    8880022    1    1    2    0    0  0.60806292649E+03  0.55852825705E+03 -0.13709037201E+04  0.16076265111E+04  0.15294330000E+03 0.  0.
    8880022    1    1    2    0    0 -0.60806292649E+03 -0.55852825705E+03  0.21020024237E+03  0.86560391138E+03  0.15294330000E+03 0.  1.
<mgrwt>
<rscale>  0 0.83969399E+03</rscale>
<asrwt>0</asrwt>
<pdfrwt beam="1">  1        2 0.27953337E+00 0.83969399E+03</pdfrwt>
<pdfrwt beam="2">  1       -2 0.10096361E+00 0.83969399E+03</pdfrwt>
<totfact> 0.69414222E+00</totfact>
</mgrwt>
</event>
<event>
 4    1  0.2202466E-008  0.6949240E+03  0.7818608E-02  0.9725952E-01
          2   -1    0    0  501    0  0.00000000000E+00  0.00000000000E+00  0.14174094194E+04  0.14174094194E+04  0.25500000000E-02 0. -1.
         -2   -1    0    0    0  501 -0.00000000000E+00 -0.00000000000E+00 -0.87671945821E+03  0.87671945821E+03  0.25500000000E-02 0.  1.
    8880022    1    1    2    0    0 -0.67080519638E+03  0.97714489266E+02  0.11672479986E+04  0.13584503216E+04  0.15294330000E+03 0.  0.
    8880022    1    1    2    0    0  0.67080519638E+03 -0.97714489266E+02 -0.62655803744E+03  0.93567855602E+03  0.15294330000E+03 0.  0.
<mgrwt>
<rscale>  0 0.69492401E+03</rscale>
<asrwt>0</asrwt>
<pdfrwt beam="1">  1        2 0.21806299E+00 0.69492401E+03</pdfrwt>
<pdfrwt beam="2">  1       -2 0.13487992E+00 0.69492401E+03</pdfrwt>
<totfact> 0.57746886E+00</totfact>
</mgrwt>
</event>
<event>
 4    1  0.2202466E-008  0.6479329E+03  0.7818608E-02  0.9810666E-01
          2   -1    0    0  501    0  0.00000000000E+00  0.00000000000E+00  0.18088092299E+04  0.18088092299E+04  0.25500000000E-02 0. -1.
         -2   -1    0    0    0  501 -0.00000000000E+00 -0.00000000000E+00 -0.46272494748E+03  0.46272494748E+03  0.25500000000E-02 0.  1.
    8880022    1    1    2    0    0 -0.61586195784E+03 -0.13091790631E+03  0.14748769012E+04  0.16109248822E+04  0.15294330000E+03 0.  0.
    8880022    1    1    2    0    0  0.61586195784E+03  0.13091790631E+03 -0.12879261874E+03  0.66060929524E+03  0.15294330000E+03 0.  0.
<mgrwt>
<rscale>  0 0.64793295E+03</rscale>
<asrwt>0</asrwt>
<pdfrwt beam="1">  1        2 0.27827834E+00 0.64793295E+03</pdfrwt>
<pdfrwt beam="2">  1       -2 0.71188454E-01 0.64793295E+03</pdfrwt>
<totfact> 0.15990535E+01</totfact>
</mgrwt>
</event>
<event>
 4    1  0.2202466E-008  0.2052062E+03  0.7818608E-02  0.1145419E+00
         -2   -1    0    0    0  501 -0.00000000000E+00  0.00000000000E+00  0.41397499205E+03  0.41397499205E+03  0.25500000000E-02 0.  1.
          2   -1    0    0  501    0  0.00000000000E+00 -0.00000000000E+00 -0.17755143635E+03  0.17755143637E+03  0.25500000000E-02 0. -1.
    8880022    1    1    2    0    0  0.13414257347E+03 -0.26901782316E+02  0.31150042155E+03  0.37301756199E+03  0.15294330000E+03 0.  1.
    8880022    1    1    2    0    0 -0.13414257347E+03  0.26901782316E+02 -0.75076865853E+02  0.21850886643E+03  0.15294330000E+03 0.  0.
<mgrwt>
<rscale>  0 0.20520621E+03</rscale>
<asrwt>0</asrwt>
<pdfrwt beam="1">  1        2 0.27315606E-01 0.20520621E+03</pdfrwt>
<pdfrwt beam="2">  1       -2 0.63688459E-01 0.20520621E+03</pdfrwt>
<totfact> 0.45520460E+02</totfact>
</mgrwt>
</event>
<event>
 4    1  0.2202466E-008  0.8189341E+03  0.7818608E-02  0.9533008E-01
         -2   -1    0    0    0  501 -0.00000000000E+00  0.00000000000E+00  0.47206159705E+03  0.47206159706E+03  0.25500000000E-02 0.  1.
          2   -1    0    0  501    0  0.00000000000E+00 -0.00000000000E+00 -0.17183341960E+04  0.17183341961E+04  0.25500000000E-02 0. -1.
    8880022    1    1    2    0    0  0.64977660575E+03 -0.47439621223E+03 -0.10789503419E+04  0.13545430583E+04  0.15294330000E+03 0.  0.
    8880022    1    1    2    0    0 -0.64977660575E+03  0.47439621223E+03 -0.16732225712E+03  0.83585273481E+03  0.15294330000E+03 0.  0.
<mgrwt>
<rscale>  0 0.81893410E+03</rscale>
<asrwt>0</asrwt>
<pdfrwt beam="1">  1        2 0.26435910E+00 0.81893410E+03</pdfrwt>
<pdfrwt beam="2">  1       -2 0.72624862E-01 0.81893410E+03</pdfrwt>
<totfact> 0.16744044E+01</totfact>
</mgrwt>
</event>
<event>
 4    1  0.2202466E-008  0.1260854E+04  0.7818608E-02  0.9061198E-01
         -2   -1    0    0    0  501 -0.00000000000E+00  0.00000000000E+00  0.83730295517E+03  0.83730295518E+03  0.25500000000E-02 0.  1.
          2   -1    0    0  501    0  0.00000000000E+00 -0.00000000000E+00 -0.21378134730E+04  0.21378134730E+04  0.25500000000E-02 0. -1.
    8880022    1    1    2    0    0 -0.11603018287E+04  0.46910648803E+03 -0.11477955084E+04  0.17050476277E+04  0.15294330000E+03 0.  0.
    8880022    1    1    2    0    0  0.11603018287E+04 -0.46910648803E+03 -0.15271500942E+03  0.12700688004E+04  0.15294330000E+03 0.  0.
<mgrwt>
<rscale>  0 0.12608540E+04</rscale>
<asrwt>0</asrwt>
<pdfrwt beam="1">  1        2 0.32889438E+00 0.12608540E+04</pdfrwt>
<pdfrwt beam="2">  1       -2 0.12881584E+00 0.12608540E+04</pdfrwt>
<totfact> 0.24122416E+00</totfact>
</mgrwt>
</event>
<event>
 4    1  0.2202466E-008  0.5979283E+03  0.7818608E-02  0.9909714E-01
         -2   -1    0    0    0  501 -0.00000000000E+00  0.00000000000E+00  0.82418380418E+03  0.82418380418E+03  0.25500000000E-02 0.  1.
          2   -1    0    0  501    0  0.00000000000E+00 -0.00000000000E+00 -0.15711636130E+04  0.15711636130E+04  0.25500000000E-02 0. -1.
    8880022    1    1    2    0    0  0.18821613752E+03  0.54653570687E+03 -0.13925045217E+04  0.15154494678E+04  0.15294330000E+03 0.  0.
    8880022    1    1    2    0    0 -0.18821613752E+03 -0.54653570687E+03  0.64552471294E+03  0.87989794939E+03  0.15294330000E+03 0.  0.
<mgrwt>
<rscale>  0 0.59792830E+03</rscale>
<asrwt>0</asrwt>
<pdfrwt beam="1">  1        2 0.24171748E+00 0.59792830E+03</pdfrwt>
<pdfrwt beam="2">  1       -2 0.12679751E+00 0.59792830E+03</pdfrwt>
<totfact> 0.56404688E+00</totfact>
</mgrwt>
</event>
<event>
 4    1  0.2202466E-008  0.8486974E+03  0.7818608E-02  0.9492087E-01
         -2   -1    0    0    0  501 -0.00000000000E+00  0.00000000000E+00  0.43536168875E+03  0.43536168876E+03  0.25500000000E-02 0.  1.
          2   -1    0    0  501    0  0.00000000000E+00 -0.00000000000E+00 -0.29277404275E+04  0.29277404275E+04  0.25500000000E-02 0. -1.
    8880022    1    1    2    0    0 -0.15768922130E+03 -0.81977416617E+03 -0.13725382521E+03  0.85972428114E+03  0.15294330000E+03 0.  0.
    8880022    1    1    2    0    0  0.15768922130E+03  0.81977416617E+03 -0.23551249135E+04  0.25033778351E+04  0.15294330000E+03 0.  0.
<mgrwt>
<rscale>  0 0.84869737E+03</rscale>
<asrwt>0</asrwt>
<pdfrwt beam="1">  1        2 0.45042159E+00 0.84869737E+03</pdfrwt>
<pdfrwt beam="2">  1       -2 0.66978723E-01 0.84869737E+03</pdfrwt>
<totfact> 0.41296641E+00</totfact>
</mgrwt>
</event>
<event>
 4    1  0.2202466E-008  0.1010652E+04  0.7818608E-02  0.9296939E-01
          2   -1    0    0  501    0  0.00000000000E+00  0.00000000000E+00  0.26449075087E+04  0.26449075087E+04  0.25500000000E-02 0. -1.
         -2   -1    0    0    0  501 -0.00000000000E+00 -0.00000000000E+00 -0.51965410817E+03  0.51965410817E+03  0.25500000000E-02 0.  1.
    8880022    1    1    2    0    0  0.18206170396E+03  0.98228254205E+03  0.18645276976E+04  0.21208207479E+04  0.15294330000E+03 0.  0.
    8880022    1    1    2    0    0 -0.18206170396E+03 -0.98228254205E+03  0.26072570295E+03  0.10437408690E+04  0.15294330000E+03 0.  0.
<mgrwt>
<rscale>  0 0.10106518E+04</rscale>
<asrwt>0</asrwt>
<pdfrwt beam="1">  1        2 0.40690884E+00 0.10106518E+04</pdfrwt>
<pdfrwt beam="2">  1       -2 0.79946788E-01 0.10106518E+04</pdfrwt>
<totfact> 0.40100743E+00</totfact>
</mgrwt>
</event>
<event>
 4    1  0.2202466E-008  0.1000621E+04  0.7818608E-02  0.9307864E-01
          2   -1    0    0  501    0  0.00000000000E+00  0.00000000000E+00  0.15922985418E+04  0.15922985418E+04  0.25500000000E-02 0. -1.
         -2   -1    0    0    0  501 -0.00000000000E+00 -0.00000000000E+00 -0.96577679163E+03  0.96577679164E+03  0.25500000000E-02 0.  1.
    8880022    1    1    2    0    0 -0.98467866870E+03 -0.90873665442E+02  0.10687759829E+04  0.14640778184E+04  0.15294330000E+03 0.  0.
    8880022    1    1    2    0    0  0.98467866870E+03  0.90873665442E+02 -0.44225423269E+03  0.10939975151E+04  0.15294330000E+03 0.  0.
<mgrwt>
<rscale>  0 0.10006207E+04</rscale>
<asrwt>0</asrwt>
<pdfrwt beam="1">  1        2 0.24496901E+00 0.10006207E+04</pdfrwt>
<pdfrwt beam="2">  1       -2 0.14858105E+00 0.10006207E+04</pdfrwt>
<totfact> 0.34377364E+00</totfact>
</mgrwt>
</event>
<event>
 4    1  0.2202466E-008  0.4904988E+03  0.7818608E-02  0.1016289E+00
         -2   -1    0    0    0  501 -0.00000000000E+00  0.00000000000E+00  0.26780633395E+03  0.26780633396E+03  0.25500000000E-02 0.  1.
          2   -1    0    0  501    0  0.00000000000E+00 -0.00000000000E+00 -0.26264238590E+04  0.26264238590E+04  0.25500000000E-02 0. -1.
    8880022    1    1    2    0    0 -0.97768515497E+02  0.45567391632E+03 -0.54945563326E+01  0.49052955446E+03  0.15294330000E+03 0.  0.
    8880022    1    1    2    0    0  0.97768515497E+02 -0.45567391632E+03 -0.23531229687E+04  0.24037006385E+04  0.15294330000E+03 0.  0.
<mgrwt>
<rscale>  0 0.49049878E+03</rscale>
<asrwt>0</asrwt>
<pdfrwt beam="1">  1        2 0.40406519E+00 0.49049878E+03</pdfrwt>
<pdfrwt beam="2">  1       -2 0.41200976E-01 0.49049878E+03</pdfrwt>
<totfact> 0.18101892E+01</totfact>
</mgrwt>
</event>
<event>
 4    1  0.2202466E-008  0.4896772E+03  0.7818608E-02  0.1016509E+00
          2   -1    0    0  501    0  0.00000000000E+00  0.00000000000E+00  0.13168186906E+03  0.13168186908E+03  0.25500000000E-02 0. -1.
         -2   -1    0    0    0  501 -0.00000000000E+00 -0.00000000000E+00 -0.21963897634E+04  0.21963897634E+04  0.25500000000E-02 0.  1.
    8880022    1    1    2    0    0 -0.44049133822E+03  0.14953086529E+03 -0.15136275958E+04  0.15908652522E+04  0.15294330000E+03 0.  0.
    8880022    1    1    2    0    0  0.44049133822E+03 -0.14953086529E+03 -0.55108029849E+03  0.73720638027E+03  0.15294330000E+03 0.  0.
<mgrwt>
<rscale>  0 0.48967719E+03</rscale>
<asrwt>0</asrwt>
<pdfrwt beam="1">  1        2 0.20258751E-01 0.48967719E+03</pdfrwt>
<pdfrwt beam="2">  1       -2 0.33790609E+00 0.48967719E+03</pdfrwt>
<totfact> 0.56607792E+00</totfact>
</mgrwt>
</event>
<event>
 4    1  0.2202466E-008  0.1303866E+04  0.7818608E-02  0.9026505E-01
          2   -1    0    0  501    0  0.00000000000E+00  0.00000000000E+00  0.34425678373E+04  0.34425678373E+04  0.25500000000E-02 0. -1.
         -2   -1    0    0    0  501 -0.00000000000E+00 -0.00000000000E+00 -0.12866614116E+04  0.12866614116E+04  0.25500000000E-02 0.  1.
    8880022    1    1    2    0    0 -0.12911225234E+04 -0.98368253652E+02 -0.77821316679E+03  0.15184469269E+04  0.15294330000E+03 0.  0.
    8880022    1    1    2    0    0  0.12911225234E+04  0.98368253652E+02  0.29341195924E+04  0.32107823220E+04  0.15294330000E+03 0.  0.
<mgrwt>
<rscale>  0 0.13038655E+04</rscale>
<asrwt>0</asrwt>
<pdfrwt beam="1">  1        2 0.52962581E+00 0.13038655E+04</pdfrwt>
<pdfrwt beam="2">  1       -2 0.19794791E+00 0.13038655E+04</pdfrwt>
<totfact> 0.11920014E-01</totfact>
</mgrwt>
</event>
<event>
 4    1  0.2202466E-008  0.3420504E+03  0.7818608E-02  0.1065926E+00
          2   -1    0    0  501    0  0.00000000000E+00  0.00000000000E+00  0.10100339355E+04  0.10100339355E+04  0.25500000000E-02 0. -1.
         -2   -1    0    0    0  501 -0.00000000000E+00 -0.00000000000E+00 -0.54686847472E+03  0.54686847473E+03  0.25500000000E-02 0.  1.
    8880022    1    1    2    0    0  0.19674945798E+03 -0.23429997839E+03 -0.45952356927E+03  0.57285285443E+03  0.15294330000E+03 0.  0.
    8880022    1    1    2    0    0 -0.19674945798E+03  0.23429997839E+03  0.92268903006E+03  0.98404955582E+03  0.15294330000E+03 0.  0.
<mgrwt>
<rscale>  0 0.34205041E+03</rscale>
<asrwt>0</asrwt>
<pdfrwt beam="1">  1        2 0.15538984E+00 0.34205041E+03</pdfrwt>
<pdfrwt beam="2">  1       -2 0.84133611E-01 0.34205041E+03</pdfrwt>
<totfact> 0.32924165E+01</totfact>
</mgrwt>
</event>
<event>
 4    1  0.2202466E-008  0.8097581E+03  0.7818608E-02  0.9545999E-01
          2   -1    0    0  501    0  0.00000000000E+00  0.00000000000E+00  0.21186169285E+04  0.21186169285E+04  0.25500000000E-02 0. -1.
         -2   -1    0    0    0  501 -0.00000000000E+00 -0.00000000000E+00 -0.43154919864E+03  0.43154919865E+03  0.25500000000E-02 0.  1.
    8880022    1    1    2    0    0 -0.55210890747E+03  0.57226946965E+03  0.15216340906E+04  0.17236816847E+04  0.15294330000E+03 0.  0.
    8880022    1    1    2    0    0  0.55210890747E+03 -0.57226946965E+03  0.16543363930E+03  0.82648444246E+03  0.15294330000E+03 0.  0.
<mgrwt>
<rscale>  0 0.80975814E+03</rscale>
<asrwt>0</asrwt>
<pdfrwt beam="1">  1        2 0.32594107E+00 0.80975814E+03</pdfrwt>
<pdfrwt beam="2">  1       -2 0.66392183E-01 0.80975814E+03</pdfrwt>
<totfact> 0.12311290E+01</totfact>
</mgrwt>
</event>
<event>
 4    1  0.2202466E-008  0.7177170E+03  0.7818608E-02  0.9687404E-01
          2   -1    0    0  501    0  0.00000000000E+00  0.00000000000E+00  0.32132302844E+04  0.32132302844E+04  0.25500000000E-02 0. -1.
         -2   -1    0    0    0  501 -0.00000000000E+00 -0.00000000000E+00 -0.29628524955E+03  0.29628524956E+03  0.25500000000E-02 0.  1.
    8880022    1    1    2    0    0  0.59280329378E+02  0.69872165141E+03  0.26472202452E+04  0.27427892342E+04  0.15294330000E+03 0.  0.
    8880022    1    1    2    0    0 -0.59280329378E+02 -0.69872165141E+03  0.26972478967E+03  0.76672629978E+03  0.15294330000E+03 0.  0.
<mgrwt>
<rscale>  0 0.71771704E+03</rscale>
<asrwt>0</asrwt>
<pdfrwt beam="1">  1        2 0.49434310E+00 0.71771704E+03</pdfrwt>
<pdfrwt beam="2">  1       -2 0.45582348E-01 0.71771704E+03</pdfrwt>
<totfact> 0.62618494E+00</totfact>
</mgrwt>
</event>
<event>
 4    1  0.2202466E-008  0.9894341E+03  0.7818608E-02  0.9320210E-01
          2   -1    0    0  501    0  0.00000000000E+00  0.00000000000E+00  0.11431191733E+04  0.11431191733E+04  0.25500000000E-02 0. -1.
         -2   -1    0    0    0  501 -0.00000000000E+00 -0.00000000000E+00 -0.92646098564E+03  0.92646098564E+03  0.25500000000E-02 0.  1.
    8880022    1    1    2    0    0  0.37575847028E+03 -0.90243767898E+03 -0.17621048476E+03  0.10050024778E+04  0.15294330000E+03 0.  0.
    8880022    1    1    2    0    0 -0.37575847028E+03  0.90243767898E+03  0.39286867245E+03  0.10645776812E+04  0.15294330000E+03 0.  0.
<mgrwt>
<rscale>  0 0.98943410E+03</rscale>
<asrwt>0</asrwt>
<pdfrwt beam="1">  1        2 0.17586449E+00 0.98943410E+03</pdfrwt>
<pdfrwt beam="2">  1       -2 0.14253246E+00 0.98943410E+03</pdfrwt>
<totfact> 0.69736447E+00</totfact>
</mgrwt>
</event>
<event>
 4    1  0.2202466E-008  0.1733917E+04  0.7818608E-02  0.8742253E-01
          2   -1    0    0  501    0  0.00000000000E+00  0.00000000000E+00  0.33537497770E+04  0.33537497770E+04  0.25500000000E-02 0. -1.
         -2   -1    0    0    0  501 -0.00000000000E+00 -0.00000000000E+00 -0.10367754939E+04  0.10367754939E+04  0.25500000000E-02 0.  1.
    8880022    1    1    2    0    0  0.95486699234E+03 -0.14392029995E+04  0.19661180207E+04  0.26214667595E+04  0.15294330000E+03 0.  0.
    8880022    1    1    2    0    0 -0.95486699234E+03  0.14392029995E+04  0.35085626244E+03  0.17690585114E+04  0.15294330000E+03 0.  0.
<mgrwt>
<rscale>  0 0.17339169E+04</rscale>
<asrwt>0</asrwt>
<pdfrwt beam="1">  1        2 0.51596151E+00 0.17339169E+04</pdfrwt>
<pdfrwt beam="2">  1       -2 0.15950392E+00 0.17339169E+04</pdfrwt>
<totfact> 0.24079456E-01</totfact>
</mgrwt>
</event>
<event>
 4    1  0.2202466E-008  0.7456074E+03  0.7818608E-02  0.9642267E-01
         -2   -1    0    0    0  501 -0.00000000000E+00  0.00000000000E+00  0.80443090043E+03  0.80443090043E+03  0.25500000000E-02 0.  1.
          2   -1    0    0  501    0  0.00000000000E+00 -0.00000000000E+00 -0.85463881674E+03  0.85463881675E+03  0.25500000000E-02 0. -1.
    8880022    1    1    2    0    0  0.20976849359E+03 -0.69895339515E+03 -0.38799258353E+03  0.84051684539E+03  0.15294330000E+03 0.  0.
    8880022    1    1    2    0    0 -0.20976849359E+03  0.69895339515E+03  0.33778466722E+03  0.81855287179E+03  0.15294330000E+03 0.  0.
<mgrwt>
<rscale>  0 0.74560735E+03</rscale>
<asrwt>0</asrwt>
<pdfrwt beam="1">  1        2 0.13148289E+00 0.74560735E+03</pdfrwt>
<pdfrwt beam="2">  1       -2 0.12375860E+00 0.74560735E+03</pdfrwt>
<totfact> 0.15733422E+01</totfact>
</mgrwt>
</event>
<event>
 4    1  0.2719500E-008  0.1009045E+04  0.7818608E-02  0.9298680E-01
          2   -1    0    0  501    0  0.00000000000E+00  0.00000000000E+00  0.23579523183E+04  0.23579523183E+04  0.25500000000E-02 0. -1.
         -2   -1    0    0    0  501 -0.00000000000E+00 -0.00000000000E+00 -0.20100260694E+04  0.20100260694E+04  0.25500000000E-02 0.  1.
    8880022    1    1    2    0    0  0.51749839270E+03  0.85262806170E+03  0.21091986852E+04  0.23381381363E+04  0.15294330000E+03 0.  0.
    8880022    1    1    2    0    0 -0.51749839270E+03 -0.85262806170E+03 -0.17612724363E+04  0.20298402513E+04  0.15294330000E+03 0.  0.
<mgrwt>
<rscale>  0 0.10090445E+04</rscale>
<asrwt>0</asrwt>
<pdfrwt beam="1">  1        2 0.36276189E+00 0.10090445E+04</pdfrwt>
<pdfrwt beam="2">  1       -2 0.30923478E+00 0.10090445E+04</pdfrwt>
<totfact> 0.11903390E-01</totfact>
</mgrwt>
</event>
<event>
 4    1  0.2202466E-008  0.8248974E+03  0.7818608E-02  0.9524662E-01
         -2   -1    0    0    0  501 -0.00000000000E+00  0.00000000000E+00  0.38013207886E+03  0.38013207887E+03  0.25500000000E-02 0.  1.
          2   -1    0    0  501    0  0.00000000000E+00 -0.00000000000E+00 -0.39767700997E+04  0.39767700997E+04  0.25500000000E-02 0. -1.
    8880022    1    1    2    0    0 -0.78745586019E+03 -0.19229512904E+03 -0.34137152665E+04  0.35119663612E+04  0.15294330000E+03 0.  0.
    8880022    1    1    2    0    0  0.78745586019E+03  0.19229512904E+03 -0.18292275432E+03  0.84493581737E+03  0.15294330000E+03 0.  0.
<mgrwt>
<rscale>  0 0.82489745E+03</rscale>
<asrwt>0</asrwt>
<pdfrwt beam="1">  1        2 0.61181076E+00 0.82489745E+03</pdfrwt>
<pdfrwt beam="2">  1       -2 0.58481861E-01 0.82489745E+03</pdfrwt>
<totfact> 0.10661041E+00</totfact>
</mgrwt>
</event>
<event>
 4    1  0.2202466E-008  0.2084602E+03  0.7818608E-02  0.1142791E+00
          2   -1    0    0  501    0  0.00000000000E+00  0.00000000000E+00  0.19927852940E+04  0.19927852940E+04  0.25500000000E-02 0. -1.
         -2   -1    0    0    0  501 -0.00000000000E+00 -0.00000000000E+00 -0.26541820908E+03  0.26541820909E+03  0.25500000000E-02 0.  1.
    8880022    1    1    2    0    0 -0.13695209353E+03 -0.36168183829E+02  0.19454083906E+04  0.19565452902E+04  0.15294330000E+03 0.  0.
    8880022    1    1    2    0    0  0.13695209353E+03  0.36168183829E+02 -0.21804130563E+03  0.30165821292E+03  0.15294330000E+03 0.  0.
<mgrwt>
<rscale>  0 0.20846023E+03</rscale>
<asrwt>0</asrwt>
<pdfrwt beam="1">  1        2 0.30658236E+00 0.20846023E+03</pdfrwt>
<pdfrwt beam="2">  1       -2 0.40833570E-01 0.20846023E+03</pdfrwt>
<totfact> 0.44606507E+01</totfact>
</mgrwt>
</event>
<event>
 4    1  0.2202466E-008  0.3855318E+03  0.7818608E-02  0.1048908E+00
          2   -1    0    0  501    0  0.00000000000E+00  0.00000000000E+00  0.20253823247E+04  0.20253823247E+04  0.25500000000E-02 0. -1.
         -2   -1    0    0    0  501 -0.00000000000E+00 -0.00000000000E+00 -0.17624036467E+04  0.17624036467E+04  0.25500000000E-02 0.  1.
    8880022    1    1    2    0    0 -0.12642218703E+03  0.33054587246E+03 -0.17225537880E+04  0.17651703456E+04  0.15294330000E+03 0.  1.
    8880022    1    1    2    0    0  0.12642218703E+03 -0.33054587246E+03  0.19855324660E+04  0.20226156258E+04  0.15294330000E+03 0.  0.
<mgrwt>
<rscale>  0 0.38553184E+03</rscale>
<asrwt>0</asrwt>
<pdfrwt beam="1">  1        2 0.31159728E+00 0.38553184E+03</pdfrwt>
<pdfrwt beam="2">  1       -2 0.27113902E+00 0.38553184E+03</pdfrwt>
<totfact> 0.36978473E-01</totfact>
</mgrwt>
</event>
<event>
 4    1  0.2202466E-008  0.1439245E+04  0.7818608E-02  0.8925891E-01
         -2   -1    0    0    0  501 -0.00000000000E+00  0.00000000000E+00  0.10351946177E+04  0.10351946178E+04  0.25500000000E-02 0.  1.
          2   -1    0    0  501    0  0.00000000000E+00 -0.00000000000E+00 -0.32506515940E+04  0.32506515940E+04  0.25500000000E-02 0. -1.
    8880022    1    1    2    0    0  0.11757382572E+04 -0.81588812812E+03  0.22093702618E+03  0.14561039487E+04  0.15294330000E+03 0.  0.
    8880022    1    1    2    0    0 -0.11757382572E+04  0.81588812812E+03 -0.24363940024E+04  0.28297422630E+04  0.15294330000E+03 0.  0.
<mgrwt>
<rscale>  0 0.14392448E+04</rscale>
<asrwt>0</asrwt>
<pdfrwt beam="1">  1        2 0.50010024E+00 0.14392448E+04</pdfrwt>
<pdfrwt beam="2">  1       -2 0.15926071E+00 0.14392448E+04</pdfrwt>
<totfact> 0.29297379E-01</totfact>
</mgrwt>
</event>
<event>
 4    1  0.2202466E-008  0.1052516E+04  0.7818608E-02  0.9252750E-01
         -2   -1    0    0    0  501 -0.00000000000E+00  0.00000000000E+00  0.17326254682E+04  0.17326254682E+04  0.25500000000E-02 0.  1.
          2   -1    0    0  501    0  0.00000000000E+00 -0.00000000000E+00 -0.85915274920E+03  0.85915274921E+03  0.25500000000E-02 0. -1.
    8880022    1    1    2    0    0 -0.62938865850E+03 -0.82961941230E+03  0.10921699169E+04  0.15167812081E+04  0.15294330000E+03 0.  1.
    8880022    1    1    2    0    0  0.62938865850E+03  0.82961941230E+03 -0.21869719792E+03  0.10749970093E+04  0.15294330000E+03 0.  0.
<mgrwt>
<rscale>  0 0.10525161E+04</rscale>
<asrwt>0</asrwt>
<pdfrwt beam="1">  1        2 0.13217735E+00 0.10525161E+04</pdfrwt>
<pdfrwt beam="2">  1       -2 0.26655776E+00 0.10525161E+04</pdfrwt>
<totfact> 0.15798932E+00</totfact>
</mgrwt>
</event>
<event>
 4    1  0.2202466E-008  0.9995811E+03  0.7818608E-02  0.9309004E-01
         -2   -1    0    0    0  501 -0.00000000000E+00  0.00000000000E+00  0.15008621666E+04  0.15008621666E+04  0.25500000000E-02 0.  1.
          2   -1    0    0  501    0  0.00000000000E+00 -0.00000000000E+00 -0.16840049025E+04  0.16840049025E+04  0.25500000000E-02 0. -1.
    8880022    1    1    2    0    0  0.97707717040E+03 -0.14522727261E+03  0.11467206995E+04  0.15212267331E+04  0.15294330000E+03 0.  0.
    8880022    1    1    2    0    0 -0.97707717040E+03  0.14522727261E+03 -0.13298634355E+04  0.16636403360E+04  0.15294330000E+03 0.  0.
<mgrwt>
<rscale>  0 0.99958112E+03</rscale>
<asrwt>0</asrwt>
<pdfrwt beam="1">  1        2 0.25907768E+00 0.99958112E+03</pdfrwt>
<pdfrwt beam="2">  1       -2 0.23090187E+00 0.99958112E+03</pdfrwt>
<totfact> 0.84280334E-01</totfact>
</mgrwt>
</event>
<event>
 4    1  0.2202466E-008  0.3547211E+03  0.7818608E-02  0.1060694E+00
          2   -1    0    0  501    0  0.00000000000E+00  0.00000000000E+00  0.29839340278E+04  0.29839340278E+04  0.25500000000E-02 0. -1.
         -2   -1    0    0    0  501 -0.00000000000E+00 -0.00000000000E+00 -0.51472920809E+02  0.51472920872E+02  0.25500000000E-02 0.  1.
    8880022    1    1    2    0    0 -0.23994375798E+03 -0.21180749931E+03  0.21115126084E+04  0.21411007852E+04  0.15294330000E+03 0.  0.
    8880022    1    1    2    0    0  0.23994375798E+03  0.21180749931E+03  0.82094849861E+03  0.89430616354E+03  0.15294330000E+03 0.  0.
<mgrwt>
<rscale>  0 0.35472113E+03</rscale>
<asrwt>0</asrwt>
<pdfrwt beam="1">  1        2 0.45906687E+00 0.35472113E+03</pdfrwt>
<pdfrwt beam="2">  1       -2 0.79189092E-02 0.35472113E+03</pdfrwt>
<totfact> 0.20027803E+02</totfact>
</mgrwt>
</event>
<event>
 4    1  0.2202466E-008  0.9837431E+03  0.7818608E-02  0.9326557E-01
          2   -1    0    0  501    0  0.00000000000E+00  0.00000000000E+00  0.11096072191E+04  0.11096072191E+04  0.25500000000E-02 0. -1.
         -2   -1    0    0    0  501 -0.00000000000E+00 -0.00000000000E+00 -0.15290694992E+04  0.15290694992E+04  0.25500000000E-02 0.  1.
    8880022    1    1    2    0    0 -0.73472322521E+03  0.63603508843E+03  0.65503105788E+03  0.11818697860E+04  0.15294330000E+03 0.  0.
    8880022    1    1    2    0    0  0.73472322521E+03 -0.63603508843E+03 -0.10744933380E+04  0.14568069322E+04  0.15294330000E+03 0.  1.
<mgrwt>
<rscale>  0 0.98374311E+03</rscale>
<asrwt>0</asrwt>
<pdfrwt beam="1">  1        2 0.17070880E+00 0.98374311E+03</pdfrwt>
<pdfrwt beam="2">  1       -2 0.23524146E+00 0.98374311E+03</pdfrwt>
<totfact> 0.16992363E+00</totfact>
</mgrwt>
</event>
<event>
 4    1  0.2202466E-008  0.7895296E+03  0.7818608E-02  0.9575297E-01
          2   -1    0    0  501    0  0.00000000000E+00  0.00000000000E+00  0.24114809443E+04  0.24114809443E+04  0.25500000000E-02 0. -1.
         -2   -1    0    0    0  501 -0.00000000000E+00 -0.00000000000E+00 -0.65173410334E+03  0.65173410335E+03  0.25500000000E-02 0.  1.
    8880022    1    1    2    0    0  0.68453166788E+03 -0.36246618861E+03 -0.30983445061E+03  0.84814761806E+03  0.15294330000E+03 0.  0.
    8880022    1    1    2    0    0 -0.68453166788E+03  0.36246618861E+03  0.20695812916E+04  0.22150674296E+04  0.15294330000E+03 0. -1.
<mgrwt>
<rscale>  0 0.78952960E+03</rscale>
<asrwt>0</asrwt>
<pdfrwt beam="1">  1        2 0.37099707E+00 0.78952960E+03</pdfrwt>
<pdfrwt beam="2">  1       -2 0.10026679E+00 0.78952960E+03</pdfrwt>
<totfact> 0.33431110E+00</totfact>
</mgrwt>
</event>
<event>
 4    1  0.2202466E-008  0.1094783E+04  0.7818608E-02  0.9210292E-01
         -2   -1    0    0    0  501 -0.00000000000E+00  0.00000000000E+00  0.15652196661E+04  0.15652196661E+04  0.25500000000E-02 0.  1.
          2   -1    0    0  501    0  0.00000000000E+00 -0.00000000000E+00 -0.11254734789E+04  0.11254734789E+04  0.25500000000E-02 0. -1.
    8880022    1    1    2    0    0  0.89133272077E+03  0.61699580229E+03 -0.54072927346E+03  0.12210395732E+04  0.15294330000E+03 0.  0.
    8880022    1    1    2    0    0 -0.89133272077E+03 -0.61699580229E+03  0.98047546069E+03  0.14696535718E+04  0.15294330000E+03 0.  0.
<mgrwt>
<rscale>  0 0.10947829E+04</rscale>
<asrwt>0</asrwt>
<pdfrwt beam="1">  1        2 0.17314977E+00 0.10947829E+04</pdfrwt>
<pdfrwt beam="2">  1       -2 0.24080303E+00 0.10947829E+04</pdfrwt>
<totfact> 0.15145277E+00</totfact>
</mgrwt>
</event>
<event>
 4    1  0.2202466E-008  0.6020985E+03  0.7818608E-02  0.9901062E-01
         -2   -1    0    0    0  501 -0.00000000000E+00  0.00000000000E+00  0.60004168189E+03  0.60004168190E+03  0.25500000000E-02 0.  1.
          2   -1    0    0  501    0  0.00000000000E+00 -0.00000000000E+00 -0.26342902875E+04  0.26342902875E+04  0.25500000000E-02 0. -1.
    8880022    1    1    2    0    0  0.53311228317E+03 -0.23435483166E+03  0.40253618322E+03  0.72426371262E+03  0.15294330000E+03 0.  0.
    8880022    1    1    2    0    0 -0.53311228317E+03  0.23435483166E+03 -0.24367847889E+04  0.25100682568E+04  0.15294330000E+03 0.  0.
<mgrwt>
<rscale>  0 0.60209845E+03</rscale>
<asrwt>0</asrwt>
<pdfrwt beam="1">  1        2 0.40527542E+00 0.60209845E+03</pdfrwt>
<pdfrwt beam="2">  1       -2 0.92314107E-01 0.60209845E+03</pdfrwt>
<totfact> 0.31516668E+00</totfact>
</mgrwt>
</event>
<event>
 4    1  0.2202466E-008  0.4436226E+03  0.7818608E-02  0.1029641E+00
         -2   -1    0    0    0  501 -0.00000000000E+00  0.00000000000E+00  0.55556932220E+03  0.55556932220E+03  0.25500000000E-02 0.  1.
          2   -1    0    0  501    0  0.00000000000E+00 -0.00000000000E+00 -0.60954210253E+03  0.60954210254E+03  0.25500000000E-02 0. -1.
    8880022    1    1    2    0    0  0.21570848601E+03  0.35620106141E+03  0.35003738812E+03  0.56509041151E+03  0.15294330000E+03 0.  0.
    8880022    1    1    2    0    0 -0.21570848601E+03 -0.35620106141E+03 -0.40401016845E+03  0.60002101323E+03  0.15294330000E+03 0. -1.
<mgrwt>
<rscale>  0 0.44362259E+03</rscale>
<asrwt>0</asrwt>
<pdfrwt beam="1">  1        2 0.93775709E-01 0.44362259E+03</pdfrwt>
<pdfrwt beam="2">  1       -2 0.85472203E-01 0.44362259E+03</pdfrwt>
<totfact> 0.60174336E+01</totfact>
</mgrwt>
</event>
<event>
 4    1  0.2202466E-008  0.4515519E+03  0.7818608E-02  0.1027260E+00
         -2   -1    0    0    0  501 -0.00000000000E+00  0.00000000000E+00  0.33571284490E+03  0.33571284491E+03  0.25500000000E-02 0.  1.
          2   -1    0    0  501    0  0.00000000000E+00 -0.00000000000E+00 -0.80182139189E+03  0.80182139190E+03  0.25500000000E-02 0. -1.
    8880022    1    1    2    0    0  0.33048977171E+03  0.26699055964E+03  0.47044066475E+02  0.45399586490E+03  0.15294330000E+03 0.  0.
    8880022    1    1    2    0    0 -0.33048977171E+03 -0.26699055964E+03 -0.51315261347E+03  0.68353837190E+03  0.15294330000E+03 0.  0.
<mgrwt>
<rscale>  0 0.45155188E+03</rscale>
<asrwt>0</asrwt>
<pdfrwt beam="1">  1        2 0.12335714E+00 0.45155188E+03</pdfrwt>
<pdfrwt beam="2">  1       -2 0.51648130E-01 0.45155188E+03</pdfrwt>
<totfact> 0.12590562E+02</totfact>
</mgrwt>
</event>
<event>
 4    1  0.2202466E-008  0.1918971E+03  0.7818608E-02  0.1156761E+00
          2   -1    0    0  501    0  0.00000000000E+00  0.00000000000E+00  0.10875810358E+04  0.10875810358E+04  0.25500000000E-02 0. -1.
         -2   -1    0    0    0  501 -0.00000000000E+00 -0.00000000000E+00 -0.66708696884E+02  0.66708696933E+02  0.25500000000E-02 0.  1.
    8880022    1    1    2    0    0 -0.68057114676E+02  0.93813960380E+02  0.10543262373E+03  0.21895323971E+03  0.15294330000E+03 0.  0.
    8880022    1    1    2    0    0  0.68057114676E+02 -0.93813960380E+02  0.91543971518E+03  0.93533649302E+03  0.15294330000E+03 0. -1.
<mgrwt>
<rscale>  0 0.19189706E+03</rscale>
<asrwt>0</asrwt>
<pdfrwt beam="1">  1        2 0.16732016E+00 0.19189706E+03</pdfrwt>
<pdfrwt beam="2">  1       -2 0.10262876E-01 0.19189706E+03</pdfrwt>
<totfact> 0.14805011E+03</totfact>
</mgrwt>
</event>
<event>
 4    1  0.2202466E-008  0.3509482E+03  0.7818608E-02  0.1062227E+00
         -2   -1    0    0    0  501 -0.00000000000E+00  0.00000000000E+00  0.11166183766E+04  0.11166183766E+04  0.25500000000E-02 0.  1.
          2   -1    0    0  501    0  0.00000000000E+00 -0.00000000000E+00 -0.63355237221E+03  0.63355237222E+03  0.25500000000E-02 0. -1.
    8880022    1    1    2    0    0 -0.27516377280E+03 -0.15510601480E+03 -0.55373620003E+03  0.65558249666E+03  0.15294330000E+03 0.  0.
    8880022    1    1    2    0    0  0.27516377280E+03  0.15510601480E+03  0.10368022044E+04  0.10945882521E+04  0.15294330000E+03 0.  0.
<mgrwt>
<rscale>  0 0.35094819E+03</rscale>
<asrwt>0</asrwt>
<pdfrwt beam="1">  1        2 0.97469595E-01 0.35094819E+03</pdfrwt>
<pdfrwt beam="2">  1       -2 0.17178744E+00 0.35094819E+03</pdfrwt>
<totfact> 0.10395526E+01</totfact>
</mgrwt>
</event>
<event>
 4    1  0.2202466E-008  0.4114395E+03  0.7818608E-02  0.1039889E+00
         -2   -1    0    0    0  501 -0.00000000000E+00  0.00000000000E+00  0.33107649403E+03  0.33107649404E+03  0.25500000000E-02 0.  1.
          2   -1    0    0  501    0  0.00000000000E+00 -0.00000000000E+00 -0.55879495058E+03  0.55879495059E+03  0.25500000000E-02 0. -1.
    8880022    1    1    2    0    0 -0.27012922010E+03 -0.27003894856E+03  0.15844466223E+02  0.41174449531E+03  0.15294330000E+03 0.  0.
    8880022    1    1    2    0    0  0.27012922010E+03  0.27003894856E+03 -0.24356292278E+03  0.47812694931E+03  0.15294330000E+03 0.  0.
<mgrwt>
<rscale>  0 0.41143952E+03</rscale>
<asrwt>0</asrwt>
<pdfrwt beam="1">  1        2 0.85968454E-01 0.41143952E+03</pdfrwt>
<pdfrwt beam="2">  1       -2 0.50934845E-01 0.41143952E+03</pdfrwt>
<totfact> 0.20238413E+02</totfact>
</mgrwt>
</event>
<event>
 4    1  0.2202466E-008  0.1111193E+04  0.7818608E-02  0.9194350E-01
          2   -1    0    0  501    0  0.00000000000E+00  0.00000000000E+00  0.18033631471E+04  0.18033631471E+04  0.25500000000E-02 0. -1.
         -2   -1    0    0    0  501 -0.00000000000E+00 -0.00000000000E+00 -0.87440997551E+03  0.87440997552E+03  0.25500000000E-02 0.  1.
    8880022    1    1    2    0    0  0.10832828312E+04 -0.19456867613E+03 -0.15917094207E+03  0.11225353910E+04  0.15294330000E+03 0.  0.
    8880022    1    1    2    0    0 -0.10832828312E+04  0.19456867613E+03  0.10881241136E+04  0.15552377316E+04  0.15294330000E+03 0.  0.
<mgrwt>
<rscale>  0 0.11111932E+04</rscale>
<asrwt>0</asrwt>
<pdfrwt beam="1">  1        2 0.27744048E+00 0.11111932E+04</pdfrwt>
<pdfrwt beam="2">  1       -2 0.13452461E+00 0.11111932E+04</pdfrwt>
<totfact> 0.33622652E+00</totfact>
</mgrwt>
</event>
<event>
 4    1  0.2202466E-008  0.5756081E+03  0.7818608E-02  0.9957345E-01
          2   -1    0    0  501    0  0.00000000000E+00  0.00000000000E+00  0.34640013538E+04  0.34640013538E+04  0.25500000000E-02 0. -1.
         -2   -1    0    0    0  501 -0.00000000000E+00 -0.00000000000E+00 -0.35594810972E+03  0.35594810973E+03  0.25500000000E-02 0.  1.
    8880022    1    1    2    0    0  0.45042353633E+03  0.32411682748E+03 -0.79294086230E+02  0.58104413349E+03  0.15294330000E+03 0.  1.
    8880022    1    1    2    0    0 -0.45042353633E+03 -0.32411682748E+03  0.31873473303E+04  0.32389053301E+04  0.15294330000E+03 0.  0.
<mgrwt>
<rscale>  0 0.57560814E+03</rscale>
<asrwt>0</asrwt>
<pdfrwt beam="1">  1        2 0.53292328E+00 0.57560814E+03</pdfrwt>
<pdfrwt beam="2">  1       -2 0.54761248E-01 0.57560814E+03</pdfrwt>
<totfact> 0.30611895E+00</totfact>
</mgrwt>
</event>
<event>
 4    1  0.2202466E-008  0.1006770E+04  0.7818608E-02  0.9301150E-01
         -2   -1    0    0    0  501 -0.00000000000E+00  0.00000000000E+00  0.62533876881E+03  0.62533876881E+03  0.25500000000E-02 0.  1.
          2   -1    0    0  501    0  0.00000000000E+00 -0.00000000000E+00 -0.29743031401E+04  0.29743031401E+04  0.25500000000E-02 0. -1.
    8880022    1    1    2    0    0  0.18495659838E+03 -0.97774523005E+03 -0.23885886312E+04  0.25920922014E+04  0.15294330000E+03 0.  0.
    8880022    1    1    2    0    0 -0.18495659838E+03  0.97774523005E+03  0.39624259927E+02  0.10075497075E+04  0.15294330000E+03 0.  0.
<mgrwt>
<rscale>  0 0.10067702E+04</rscale>
<asrwt>0</asrwt>
<pdfrwt beam="1">  1        2 0.45758509E+00 0.10067702E+04</pdfrwt>
<pdfrwt beam="2">  1       -2 0.96205966E-01 0.10067702E+04</pdfrwt>
<totfact> 0.16646127E+00</totfact>
</mgrwt>
</event>
<event>
 4    1  0.2283967E-008  0.1190474E+04  0.7818608E-02  0.9121236E-01
          2   -1    0    0  501    0  0.00000000000E+00  0.00000000000E+00  0.30776066491E+04  0.30776066491E+04  0.25500000000E-02 0. -1.
         -2   -1    0    0    0  501 -0.00000000000E+00 -0.00000000000E+00 -0.10895459730E+04  0.10895459730E+04  0.25500000000E-02 0.  1.
    8880022    1    1    2    0    0  0.51553934415E+03 -0.10620993603E+04  0.25772055611E+04  0.28388758380E+04  0.15294330000E+03 0.  0.
    8880022    1    1    2    0    0 -0.51553934415E+03  0.10620993603E+04 -0.58914488498E+03  0.13282767841E+04  0.15294330000E+03 0.  0.
<mgrwt>
<rscale>  0 0.11904737E+04</rscale>
<asrwt>0</asrwt>
<pdfrwt beam="1">  1        2 0.47347794E+00 0.11904737E+04</pdfrwt>
<pdfrwt beam="2">  1       -2 0.16762246E+00 0.11904737E+04</pdfrwt>
<totfact> 0.34006585E-01</totfact>
</mgrwt>
</event>
<event>
 4    1  0.2202466E-008  0.1038550E+04  0.7818608E-02  0.9267245E-01
          2   -1    0    0  501    0  0.00000000000E+00  0.00000000000E+00  0.27208077844E+04  0.27208077844E+04  0.25500000000E-02 0. -1.
         -2   -1    0    0    0  501 -0.00000000000E+00 -0.00000000000E+00 -0.10659367541E+04  0.10659367541E+04  0.25500000000E-02 0.  1.
    8880022    1    1    2    0    0 -0.79077936749E+03  0.65563966294E+03  0.23279855899E+04  0.25491378808E+04  0.15294330000E+03 0.  0.
    8880022    1    1    2    0    0  0.79077936749E+03 -0.65563966294E+03 -0.67311455957E+03  0.12376066576E+04  0.15294330000E+03 0.  0.
<mgrwt>
<rscale>  0 0.10385504E+04</rscale>
<asrwt>0</asrwt>
<pdfrwt beam="1">  1        2 0.41858581E+00 0.10385504E+04</pdfrwt>
<pdfrwt beam="2">  1       -2 0.16399027E+00 0.10385504E+04</pdfrwt>
<totfact> 0.60984691E-01</totfact>
</mgrwt>
</event>
<event>
 4    1  0.2202466E-008  0.6021026E+03  0.7818608E-02  0.9901053E-01
         -2   -1    0    0    0  501 -0.00000000000E+00  0.00000000000E+00  0.30901832682E+03  0.30901832683E+03  0.25500000000E-02 0.  1.
          2   -1    0    0  501    0  0.00000000000E+00 -0.00000000000E+00 -0.27468687778E+04  0.27468687778E+04  0.25500000000E-02 0. -1.
    8880022    1    1    2    0    0  0.45149047205E+03 -0.36782087430E+03 -0.62411647020E+02  0.60532859558E+03  0.15294330000E+03 0.  0.
    8880022    1    1    2    0    0 -0.45149047205E+03  0.36782087430E+03 -0.23754388040E+04  0.24505585091E+04  0.15294330000E+03 0.  0.
<mgrwt>
<rscale>  0 0.60210256E+03</rscale>
<asrwt>0</asrwt>
<pdfrwt beam="1">  1        2 0.42259518E+00 0.60210256E+03</pdfrwt>
<pdfrwt beam="2">  1       -2 0.47541283E-01 0.60210256E+03</pdfrwt>
<totfact> 0.11330874E+01</totfact>
</mgrwt>
</event>
<event>
 4    1  0.2510837E-008  0.1181463E+04  0.7818608E-02  0.9129239E-01
          2   -1    0    0  501    0  0.00000000000E+00  0.00000000000E+00  0.25294374795E+04  0.25294374795E+04  0.25500000000E-02 0. -1.
         -2   -1    0    0    0  501 -0.00000000000E+00 -0.00000000000E+00 -0.14489184741E+04  0.14489184741E+04  0.25500000000E-02 0.  1.
    8880022    1    1    2    0    0 -0.19879269095E+03  0.11545317025E+04 -0.10249267952E+04  0.15640743507E+04  0.15294330000E+03 0.  0.
    8880022    1    1    2    0    0  0.19879269095E+03 -0.11545317025E+04  0.21054458006E+04  0.24142816029E+04  0.15294330000E+03 0.  0.
<mgrwt>
<rscale>  0 0.11814625E+04</rscale>
<asrwt>0</asrwt>
<pdfrwt beam="1">  1        2 0.38914423E+00 0.11814625E+04</pdfrwt>
<pdfrwt beam="2">  1       -2 0.22291054E+00 0.11814625E+04</pdfrwt>
<totfact> 0.31045280E-01</totfact>
</mgrwt>
</event>
<event>
 4    1  0.2202466E-008  0.6454419E+03  0.7818608E-02  0.9815370E-01
         -2   -1    0    0    0  501 -0.00000000000E+00  0.00000000000E+00  0.70404841954E+03  0.70404841954E+03  0.25500000000E-02 0.  1.
          2   -1    0    0  501    0  0.00000000000E+00 -0.00000000000E+00 -0.71235057846E+03  0.71235057846E+03  0.25500000000E-02 0. -1.
    8880022    1    1    2    0    0 -0.51531848564E+03  0.35728200891E+03  0.28728843147E+03  0.70649123944E+03  0.15294330000E+03 0.  0.
    8880022    1    1    2    0    0  0.51531848564E+03 -0.35728200891E+03 -0.29559059039E+03  0.70990775857E+03  0.15294330000E+03 0.  0.
<mgrwt>
<rscale>  0 0.64544189E+03</rscale>
<asrwt>0</asrwt>
<pdfrwt beam="1">  1        2 0.10959240E+00 0.64544189E+03</pdfrwt>
<pdfrwt beam="2">  1       -2 0.10831514E+00 0.64544189E+03</pdfrwt>
<totfact> 0.27974806E+01</totfact>
</mgrwt>
</event>
<event>
 4    1  0.2202466E-008  0.3681046E+03  0.7818608E-02  0.1055420E+00
          2   -1    0    0  501    0  0.00000000000E+00  0.00000000000E+00  0.19365658964E+04  0.19365658964E+04  0.25500000000E-02 0. -1.
         -2   -1    0    0    0  501 -0.00000000000E+00 -0.00000000000E+00 -0.57076553395E+03  0.57076553396E+03  0.25500000000E-02 0.  1.
    8880022    1    1    2    0    0 -0.83269833420E+02  0.32430766326E+03 -0.49141107270E+03  0.61399171085E+03  0.15294330000E+03 0.  1.
    8880022    1    1    2    0    0  0.83269833420E+02 -0.32430766326E+03  0.18572114352E+04  0.18933397195E+04  0.15294330000E+03 0.  0.
<mgrwt>
<rscale>  0 0.36810458E+03</rscale>
<asrwt>0</asrwt>
<pdfrwt beam="1">  1        2 0.29793322E+00 0.36810458E+03</pdfrwt>
<pdfrwt beam="2">  1       -2 0.87810082E-01 0.36810458E+03</pdfrwt>
<totfact> 0.91080450E+00</totfact>
</mgrwt>
</event>
<event>
 4    1  0.2202466E-008  0.1674613E+04  0.7818608E-02  0.8775977E-01
         -2   -1    0    0    0  501 -0.00000000000E+00  0.00000000000E+00  0.24135871313E+04  0.24135871313E+04  0.25500000000E-02 0.  1.
          2   -1    0    0  501    0  0.00000000000E+00 -0.00000000000E+00 -0.28050406055E+04  0.28050406055E+04  0.25500000000E-02 0. -1.
    8880022    1    1    2    0    0  0.26871489612E+03 -0.16458217604E+04  0.18013516464E+04  0.24595114087E+04  0.15294330000E+03 0.  0.
    8880022    1    1    2    0    0 -0.26871489612E+03  0.16458217604E+04 -0.21928051205E+04  0.27591163281E+04  0.15294330000E+03 0.  0.
<mgrwt>
<rscale>  0 0.16746130E+04</rscale>
<asrwt>0</asrwt>
<pdfrwt beam="1">  1        2 0.43154471E+00 0.16746130E+04</pdfrwt>
<pdfrwt beam="2">  1       -2 0.37132109E+00 0.16746130E+04</pdfrwt>
<totfact> 0.24001401E-02</totfact>
</mgrwt>
</event>
<event>
 4    1  0.2202466E-008  0.1293223E+04  0.7818608E-02  0.9034957E-01
         -2   -1    0    0    0  501 -0.00000000000E+00  0.00000000000E+00  0.88522200188E+03  0.88522200189E+03  0.25500000000E-02 0.  1.
          2   -1    0    0  501    0  0.00000000000E+00 -0.00000000000E+00 -0.26849715712E+04  0.26849715712E+04  0.25500000000E-02 0. -1.
    8880022    1    1    2    0    0  0.81216918298E+03  0.99469361150E+03  0.71901456158E+02  0.12952203036E+04  0.15294330000E+03 0.  0.
    8880022    1    1    2    0    0 -0.81216918298E+03 -0.99469361150E+03 -0.18716510254E+04  0.22749732694E+04  0.15294330000E+03 0.  0.
<mgrwt>
<rscale>  0 0.12932230E+04</rscale>
<asrwt>0</asrwt>
<pdfrwt beam="1">  1        2 0.41307254E+00 0.12932230E+04</pdfrwt>
<pdfrwt beam="2">  1       -2 0.13618800E+00 0.12932230E+04</pdfrwt>
<totfact> 0.10141902E+00</totfact>
</mgrwt>
</event>
<event>
 4    1  0.2202466E-008  0.3625298E+04  0.7818608E-02  0.8084721E-01
         -2   -1    0    0    0  501 -0.00000000000E+00  0.00000000000E+00  0.46744726557E+04  0.46744726557E+04  0.25500000000E-02 0.  1.
          2   -1    0    0  501    0  0.00000000000E+00 -0.00000000000E+00 -0.37901287434E+04  0.37901287434E+04  0.25500000000E-02 0. -1.
    8880022    1    1    2    0    0 -0.51383770573E+03  0.35854382832E+04 -0.17083029170E+04  0.40076286479E+04  0.15294330000E+03 0.  0.
    8880022    1    1    2    0    0  0.51383770573E+03 -0.35854382832E+04  0.25926468293E+04  0.44569727512E+04  0.15294330000E+03 0.  0.
<mgrwt>
<rscale>  0 0.36252984E+04</rscale>
<asrwt>0</asrwt>
<pdfrwt beam="1">  1        2 0.58309673E+00 0.36252984E+04</pdfrwt>
<pdfrwt beam="2">  1       -2 0.71914964E+00 0.36252984E+04</pdfrwt>
<totfact> 0.70202792E-05</totfact>
</mgrwt>
</event>
<event>
 4    1  0.2202466E-008  0.1587386E+04  0.7818608E-02  0.8828335E-01
         -2   -1    0    0    0  501 -0.00000000000E+00  0.00000000000E+00  0.14041403050E+04  0.14041403050E+04  0.25500000000E-02 0.  1.
          2   -1    0    0  501    0  0.00000000000E+00 -0.00000000000E+00 -0.26513011878E+04  0.26513011878E+04  0.25500000000E-02 0. -1.
    8880022    1    1    2    0    0 -0.14204519707E+04 -0.69189447332E+03 -0.17762561863E+04  0.23822005490E+04  0.15294330000E+03 0.  0.
    8880022    1    1    2    0    0  0.14204519707E+04  0.69189447332E+03  0.52909530348E+03  0.16732409439E+04  0.15294330000E+03 0.  0.
<mgrwt>
<rscale>  0 0.15873857E+04</rscale>
<asrwt>0</asrwt>
<pdfrwt beam="1">  1        2 0.40789249E+00 0.15873857E+04</pdfrwt>
<pdfrwt beam="2">  1       -2 0.21602159E+00 0.15873857E+04</pdfrwt>
<totfact> 0.27654457E-01</totfact>
</mgrwt>
</event>
<event>
 4    1  0.2202466E-008  0.1707101E+04  0.7818608E-02  0.8757325E-01
          2   -1    0    0  501    0  0.00000000000E+00  0.00000000000E+00  0.24822308961E+04  0.24822308961E+04  0.25500000000E-02 0. -1.
         -2   -1    0    0    0  501 -0.00000000000E+00 -0.00000000000E+00 -0.24385219212E+04  0.24385219212E+04  0.25500000000E-02 0.  1.
    8880022    1    1    2    0    0  0.16494254079E+04 -0.41254883935E+03  0.17935852090E+04  0.24761139465E+04  0.15294330000E+03 0.  0.
    8880022    1    1    2    0    0 -0.16494254079E+04  0.41254883935E+03 -0.17498762341E+04  0.24446388709E+04  0.15294330000E+03 0.  0.
<mgrwt>
<rscale>  0 0.17071006E+04</rscale>
<asrwt>0</asrwt>
<pdfrwt beam="1">  1        2 0.38188167E+00 0.17071006E+04</pdfrwt>
<pdfrwt beam="2">  1       -2 0.37515722E+00 0.17071006E+04</pdfrwt>
<totfact> 0.35045895E-02</totfact>
</mgrwt>
</event>
<event>
 4    1  0.2202466E-008  0.7351339E+03  0.7818608E-02  0.9658966E-01
         -2   -1    0    0    0  501 -0.00000000000E+00  0.00000000000E+00  0.49001316437E+03  0.49001316438E+03  0.25500000000E-02 0.  1.
          2   -1    0    0  501    0  0.00000000000E+00 -0.00000000000E+00 -0.17191177955E+04  0.17191177955E+04  0.25500000000E-02 0. -1.
    8880022    1    1    2    0    0  0.71793520767E+03  0.39990811098E+02  0.46773649365E+02  0.73662042781E+03  0.15294330000E+03 0.  0.
    8880022    1    1    2    0    0 -0.71793520767E+03 -0.39990811098E+02 -0.12758782805E+04  0.14725105320E+04  0.15294330000E+03 0.  0.
<mgrwt>
<rscale>  0 0.73513392E+03</rscale>
<asrwt>0</asrwt>
<pdfrwt beam="1">  1        2 0.26447966E+00 0.73513392E+03</pdfrwt>
<pdfrwt beam="2">  1       -2 0.75386642E-01 0.73513392E+03</pdfrwt>
<totfact> 0.15569493E+01</totfact>
</mgrwt>
</event>
<event>
 4    1  0.2202466E-008  0.9175002E+03  0.7818608E-02  0.9403966E-01
          2   -1    0    0  501    0  0.00000000000E+00  0.00000000000E+00  0.12625237616E+04  0.12625237616E+04  0.25500000000E-02 0. -1.
         -2   -1    0    0    0  501 -0.00000000000E+00 -0.00000000000E+00 -0.87639171951E+03  0.87639171951E+03  0.25500000000E-02 0.  1.
    8880022    1    1    2    0    0  0.11406481239E+03 -0.89744309354E+03 -0.32997759900E+03  0.97503423346E+03  0.15294330000E+03 0.  1.
    8880022    1    1    2    0    0 -0.11406481239E+03  0.89744309354E+03  0.71610964111E+03  0.11638812477E+04  0.15294330000E+03 0.  0.
<mgrwt>
<rscale>  0 0.91750016E+03</rscale>
<asrwt>0</asrwt>
<pdfrwt beam="1">  1        2 0.19423442E+00 0.91750016E+03</pdfrwt>
<pdfrwt beam="2">  1       -2 0.13482950E+00 0.91750016E+03</pdfrwt>
<totfact> 0.68874521E+00</totfact>
</mgrwt>
</event>
<event>
 4    1  0.2202466E-008  0.1621383E+04  0.7818608E-02  0.8807518E-01
         -2   -1    0    0    0  501 -0.00000000000E+00  0.00000000000E+00  0.23459687808E+04  0.23459687809E+04  0.25500000000E-02 0.  1.
          2   -1    0    0  501    0  0.00000000000E+00 -0.00000000000E+00 -0.26397839355E+04  0.26397839355E+04  0.25500000000E-02 0. -1.
    8880022    1    1    2    0    0 -0.10995786824E+04 -0.11817016499E+04 -0.20380414335E+04  0.26043226769E+04  0.15294330000E+03 0.  0.
    8880022    1    1    2    0    0  0.10995786824E+04  0.11817016499E+04  0.17442262788E+04  0.23814300394E+04  0.15294330000E+03 0.  0.
<mgrwt>
<rscale>  0 0.16213833E+04</rscale>
<asrwt>0</asrwt>
<pdfrwt beam="1">  1        2 0.40612060E+00 0.16213833E+04</pdfrwt>
<pdfrwt beam="2">  1       -2 0.36091828E+00 0.16213833E+04</pdfrwt>
<totfact> 0.35362628E-02</totfact>
</mgrwt>
</event>
<event>
 4    1  0.2202466E-008  0.7491473E+03  0.7818608E-02  0.9636689E-01
         -2   -1    0    0    0  501 -0.00000000000E+00  0.00000000000E+00  0.13475612929E+04  0.13475612929E+04  0.25500000000E-02 0.  1.
          2   -1    0    0  501    0  0.00000000000E+00 -0.00000000000E+00 -0.30263492332E+04  0.30263492332E+04  0.25500000000E-02 0. -1.
    8880022    1    1    2    0    0  0.34232365567E+03  0.64857119459E+03  0.11915147556E+04  0.14074548467E+04  0.15294330000E+03 0.  0.
    8880022    1    1    2    0    0 -0.34232365567E+03 -0.64857119459E+03 -0.28703026958E+04  0.29664556795E+04  0.15294330000E+03 0.  0.
<mgrwt>
<rscale>  0 0.74914734E+03</rscale>
<asrwt>0</asrwt>
<pdfrwt beam="1">  1        2 0.46559219E+00 0.74914734E+03</pdfrwt>
<pdfrwt beam="2">  1       -2 0.20731712E+00 0.74914734E+03</pdfrwt>
<totfact> 0.21538147E-01</totfact>
</mgrwt>
</event>
<event>
 4    1  0.2202466E-008  0.3902237E+03  0.7818608E-02  0.1047218E+00
          2   -1    0    0  501    0  0.00000000000E+00  0.00000000000E+00  0.13184118358E+04  0.13184118358E+04  0.25500000000E-02 0. -1.
         -2   -1    0    0    0  501 -0.00000000000E+00 -0.00000000000E+00 -0.17915291087E+03  0.17915291089E+03  0.25500000000E-02 0.  1.
    8880022    1    1    2    0    0 -0.11808860317E+03  0.33902507515E+03  0.12329751639E+03  0.40923935581E+03  0.15294330000E+03 0.  0.
    8880022    1    1    2    0    0  0.11808860317E+03 -0.33902507515E+03  0.10159614086E+04  0.10883253909E+04  0.15294330000E+03 0.  0.
<mgrwt>
<rscale>  0 0.39022375E+03</rscale>
<asrwt>0</asrwt>
<pdfrwt beam="1">  1        2 0.20283259E+00 0.39022375E+03</pdfrwt>
<pdfrwt beam="2">  1       -2 0.27561986E-01 0.39022375E+03</pdfrwt>
<totfact> 0.20265559E+02</totfact>
</mgrwt>
</event>
<event>
 4    1  0.2202466E-008  0.9135119E+03  0.7818608E-02  0.9408847E-01
          2   -1    0    0  501    0  0.00000000000E+00  0.00000000000E+00  0.10145695800E+04  0.10145695800E+04  0.25500000000E-02 0. -1.
         -2   -1    0    0    0  501 -0.00000000000E+00 -0.00000000000E+00 -0.12058166373E+04  0.12058166373E+04  0.25500000000E-02 0.  1.
    8880022    1    1    2    0    0  0.51849564600E+03  0.73639292691E+03 -0.72155286489E+03  0.11641058661E+04  0.15294330000E+03 0.  0.
    8880022    1    1    2    0    0 -0.51849564600E+03 -0.73639292691E+03  0.53030580755E+03  0.10562803512E+04  0.15294330000E+03 0.  0.
<mgrwt>
<rscale>  0 0.91351187E+03</rscale>
<asrwt>0</asrwt>
<pdfrwt beam="1">  1        2 0.15608763E+00 0.91351187E+03</pdfrwt>
<pdfrwt beam="2">  1       -2 0.18551025E+00 0.91351187E+03</pdfrwt>
<totfact> 0.41018878E+00</totfact>
</mgrwt>
</event>
<event>
 4    1  0.2202466E-008  0.1249038E+04  0.7818608E-02  0.9070984E-01
          2   -1    0    0  501    0  0.00000000000E+00  0.00000000000E+00  0.34697227671E+04  0.34697227671E+04  0.25500000000E-02 0. -1.
         -2   -1    0    0    0  501 -0.00000000000E+00 -0.00000000000E+00 -0.60554425370E+03  0.60554425370E+03  0.25500000000E-02 0.  1.
    8880022    1    1    2    0    0 -0.42150329648E+03  0.11657782837E+04  0.39815163434E+03  0.13109616366E+04  0.15294330000E+03 0.  0.
    8880022    1    1    2    0    0  0.42150329648E+03 -0.11657782837E+04  0.24660268791E+04  0.27643053842E+04  0.15294330000E+03 0.  0.
<mgrwt>
<rscale>  0 0.12490379E+04</rscale>
<asrwt>0</asrwt>
<pdfrwt beam="1">  1        2 0.53380350E+00 0.12490379E+04</pdfrwt>
<pdfrwt beam="2">  1       -2 0.93160654E-01 0.12490379E+04</pdfrwt>
<totfact> 0.82745671E-01</totfact>
</mgrwt>
</event>
<event>
 4    1  0.2202466E-008  0.5509776E+03  0.7818608E-02  0.1001268E+00
          2   -1    0    0  501    0  0.00000000000E+00  0.00000000000E+00  0.11012498661E+04  0.11012498661E+04  0.25500000000E-02 0. -1.
         -2   -1    0    0    0  501 -0.00000000000E+00 -0.00000000000E+00 -0.33415556943E+03  0.33415556944E+03  0.25500000000E-02 0.  1.
    8880022    1    1    2    0    0  0.48637260498E+03  0.20886912679E+03  0.83276845123E+02  0.55723541609E+03  0.15294330000E+03 0.  0.
    8880022    1    1    2    0    0 -0.48637260498E+03 -0.20886912679E+03  0.68381745150E+03  0.87817001941E+03  0.15294330000E+03 0.  0.
<mgrwt>
<rscale>  0 0.55097756E+03</rscale>
<asrwt>0</asrwt>
<pdfrwt beam="1">  1        2 0.16942306E+00 0.55097756E+03</pdfrwt>
<pdfrwt beam="2">  1       -2 0.51408549E-01 0.55097756E+03</pdfrwt>
<totfact> 0.80434333E+01</totfact>
</mgrwt>
</event>
<event>
 4    1  0.2202466E-008  0.1772600E+04  0.7818608E-02  0.8721008E-01
          2   -1    0    0  501    0  0.00000000000E+00  0.00000000000E+00  0.33606835094E+04  0.33606835094E+04  0.25500000000E-02 0. -1.
         -2   -1    0    0    0  501 -0.00000000000E+00 -0.00000000000E+00 -0.10919903573E+04  0.10919903573E+04  0.25500000000E-02 0.  1.
    8880022    1    1    2    0    0 -0.16043171267E+04 -0.73816271478E+03  0.19785972018E+04  0.26564932104E+04  0.15294330000E+03 0.  0.
    8880022    1    1    2    0    0  0.16043171267E+04  0.73816271478E+03  0.29009595030E+03  0.17961806563E+04  0.15294330000E+03 0.  0.
<mgrwt>
<rscale>  0 0.17725996E+04</rscale>
<asrwt>0</asrwt>
<pdfrwt beam="1">  1        2 0.51702823E+00 0.17725996E+04</pdfrwt>
<pdfrwt beam="2">  1       -2 0.16799852E+00 0.17725996E+04</pdfrwt>
<totfact> 0.20539699E-01</totfact>
</mgrwt>
</event>
<event>
 4    1  0.2202466E-008  0.9589666E+03  0.7818608E-02  0.9354731E-01
         -2   -1    0    0    0  501 -0.00000000000E+00  0.00000000000E+00  0.22298710409E+04  0.22298710409E+04  0.25500000000E-02 0.  1.
          2   -1    0    0  501    0  0.00000000000E+00 -0.00000000000E+00 -0.93500437659E+03  0.93500437659E+03  0.25500000000E-02 0. -1.
    8880022    1    1    2    0    0  0.48135148347E+03 -0.81518467573E+03  0.18304829026E+04  0.20664666985E+04  0.15294330000E+03 0.  0.
    8880022    1    1    2    0    0 -0.48135148347E+03  0.81518467573E+03 -0.53561623831E+03  0.10984087190E+04  0.15294330000E+03 0.  0.
<mgrwt>
<rscale>  0 0.95896661E+03</rscale>
<asrwt>0</asrwt>
<pdfrwt beam="1">  1        2 0.14384683E+00 0.95896661E+03</pdfrwt>
<pdfrwt beam="2">  1       -2 0.34305708E+00 0.95896661E+03</pdfrwt>
<totfact> 0.48606432E-01</totfact>
</mgrwt>
</event>
<event>
 4    1  0.2202466E-008  0.4706435E+03  0.7818608E-02  0.1021739E+00
         -2   -1    0    0    0  501 -0.00000000000E+00  0.00000000000E+00  0.12564989732E+03  0.12564989735E+03  0.25500000000E-02 0.  1.
          2   -1    0    0  501    0  0.00000000000E+00 -0.00000000000E+00 -0.20147068841E+04  0.20147068841E+04  0.25500000000E-02 0. -1.
    8880022    1    1    2    0    0  0.12821724805E+03  0.42623230482E+03 -0.13228874480E+04  0.14041141312E+04  0.15294330000E+03 0. -1.
    8880022    1    1    2    0    0 -0.12821724805E+03 -0.42623230482E+03 -0.56616953877E+03  0.73624265023E+03  0.15294330000E+03 0.  1.
<mgrwt>
<rscale>  0 0.47064349E+03</rscale>
<asrwt>0</asrwt>
<pdfrwt beam="1">  1        2 0.30995488E+00 0.47064349E+03</pdfrwt>
<pdfrwt beam="2">  1       -2 0.19330755E-01 0.47064349E+03</pdfrwt>
<totfact> 0.15740247E+02</totfact>
</mgrwt>
</event>
<event>
 4    1  0.2202466E-008  0.2586528E+03  0.7818608E-02  0.1107955E+00
         -2   -1    0    0    0  501 -0.00000000000E+00  0.00000000000E+00  0.63311467782E+03  0.63311467783E+03  0.25500000000E-02 0.  1.
          2   -1    0    0  501    0  0.00000000000E+00 -0.00000000000E+00 -0.10110809784E+04  0.10110809784E+04  0.25500000000E-02 0. -1.
    8880022    1    1    2    0    0 -0.17366148488E+03  0.11554787027E+03  0.58896990585E+03  0.64326264051E+03  0.15294330000E+03 0.  0.
    8880022    1    1    2    0    0  0.17366148488E+03 -0.11554787027E+03 -0.96693620641E+03  0.10009330157E+04  0.15294330000E+03 0.  0.
<mgrwt>
<rscale>  0 0.25865281E+03</rscale>
<asrwt>0</asrwt>
<pdfrwt beam="1">  1        2 0.15555092E+00 0.25865281E+03</pdfrwt>
<pdfrwt beam="2">  1       -2 0.97402258E-01 0.25865281E+03</pdfrwt>
<totfact> 0.24049457E+01</totfact>
</mgrwt>
</event>
<event>
 4    1  0.2202466E-008  0.3207075E+03  0.7818608E-02  0.1075324E+00
         -2   -1    0    0    0  501 -0.00000000000E+00  0.00000000000E+00  0.10305450935E+04  0.10305450935E+04  0.25500000000E-02 0.  1.
          2   -1    0    0  501    0  0.00000000000E+00 -0.00000000000E+00 -0.13252973471E+03  0.13252973473E+03  0.25500000000E-02 0. -1.
    8880022    1    1    2    0    0 -0.24660296641E+03 -0.13655989215E+03  0.16003231444E+03  0.35841822201E+03  0.15294330000E+03 0. -1.
    8880022    1    1    2    0    0  0.24660296641E+03  0.13655989215E+03  0.73798304435E+03  0.80465660623E+03  0.15294330000E+03 0.  0.
<mgrwt>
<rscale>  0 0.32070747E+03</rscale>
<asrwt>0</asrwt>
<pdfrwt beam="1">  1        2 0.20389190E-01 0.32070747E+03</pdfrwt>
<pdfrwt beam="2">  1       -2 0.15854540E+00 0.32070747E+03</pdfrwt>
<totfact> 0.74482137E+01</totfact>
</mgrwt>
</event>
<event>
 4    1  0.2202466E-008  0.6406372E+03  0.7818608E-02  0.9824508E-01
         -2   -1    0    0    0  501 -0.00000000000E+00  0.00000000000E+00  0.74724923770E+03  0.74724923770E+03  0.25500000000E-02 0.  1.
          2   -1    0    0  501    0  0.00000000000E+00 -0.00000000000E+00 -0.16041447478E+04  0.16041447478E+04  0.25500000000E-02 0. -1.
    8880022    1    1    2    0    0  0.40513165891E+03 -0.47211519165E+03 -0.13818608417E+04  0.15231399982E+04  0.15294330000E+03 0.  0.
    8880022    1    1    2    0    0 -0.40513165891E+03  0.47211519165E+03  0.52496533155E+03  0.82825398736E+03  0.15294330000E+03 0.  0.
<mgrwt>
<rscale>  0 0.64063724E+03</rscale>
<asrwt>0</asrwt>
<pdfrwt beam="1">  1        2 0.24679150E+00 0.64063724E+03</pdfrwt>
<pdfrwt beam="2">  1       -2 0.11496142E+00 0.64063724E+03</pdfrwt>
<totfact> 0.68417837E+00</totfact>
</mgrwt>
</event>
<event>
 4    1  0.2202466E-008  0.9306204E+03  0.7818608E-02  0.9388094E-01
         -2   -1    0    0    0  501 -0.00000000000E+00  0.00000000000E+00  0.53672564559E+03  0.53672564560E+03  0.25500000000E-02 0.  1.
          2   -1    0    0  501    0  0.00000000000E+00 -0.00000000000E+00 -0.22786009385E+04  0.22786009385E+04  0.25500000000E-02 0. -1.
    8880022    1    1    2    0    0 -0.90907798066E+03  0.12743607930E+03 -0.11047217188E+03  0.93715446059E+03  0.15294330000E+03 0.  0.
    8880022    1    1    2    0    0  0.90907798066E+03 -0.12743607930E+03 -0.16314031211E+04  0.18781721236E+04  0.15294330000E+03 0.  0.
<mgrwt>
<rscale>  0 0.93062043E+03</rscale>
<asrwt>0</asrwt>
<pdfrwt beam="1">  1        2 0.35055398E+00 0.93062043E+03</pdfrwt>
<pdfrwt beam="2">  1       -2 0.82573178E-01 0.93062043E+03</pdfrwt>
<totfact> 0.60907854E+00</totfact>
</mgrwt>
</event>
<event>
 4    1  0.2202466E-008  0.1958516E+04  0.7818608E-02  0.8626265E-01
         -2   -1    0    0    0  501 -0.00000000000E+00  0.00000000000E+00  0.17565538662E+04  0.17565538662E+04  0.25500000000E-02 0.  1.
          2   -1    0    0  501    0  0.00000000000E+00 -0.00000000000E+00 -0.25856975554E+04  0.25856975554E+04  0.25500000000E-02 0. -1.
    8880022    1    1    2    0    0  0.60605263890E+03  0.18560963751E+04  0.44149616067E+03  0.20076613429E+04  0.15294330000E+03 0.  0.
    8880022    1    1    2    0    0 -0.60605263890E+03 -0.18560963751E+04 -0.12706398499E+04  0.23345900788E+04  0.15294330000E+03 0.  0.
<mgrwt>
<rscale>  0 0.19585161E+04</rscale>
<asrwt>0</asrwt>
<pdfrwt beam="1">  1        2 0.39779962E+00 0.19585161E+04</pdfrwt>
<pdfrwt beam="2">  1       -2 0.27023906E+00 0.19585161E+04</pdfrwt>
<totfact> 0.13360953E-01</totfact>
</mgrwt>
</event>
<event>
 4    1  0.2202466E-008  0.8268676E+03  0.7818608E-02  0.9521921E-01
         -2   -1    0    0    0  501 -0.00000000000E+00  0.00000000000E+00  0.32254660046E+03  0.32254660047E+03  0.25500000000E-02 0.  1.
          2   -1    0    0  501    0  0.00000000000E+00 -0.00000000000E+00 -0.24405938222E+04  0.24405938222E+04  0.25500000000E-02 0. -1.
    8880022    1    1    2    0    0 -0.52644862475E+03  0.61900751211E+03 -0.55807989190E+03  0.99757870532E+03  0.15294330000E+03 0.  0.
    8880022    1    1    2    0    0  0.52644862475E+03 -0.61900751211E+03 -0.15599673298E+04  0.17655617173E+04  0.15294330000E+03 0.  0.
<mgrwt>
<rscale>  0 0.82686765E+03</rscale>
<asrwt>0</asrwt>
<pdfrwt beam="1">  1        2 0.37547596E+00 0.82686765E+03</pdfrwt>
<pdfrwt beam="2">  1       -2 0.49622555E-01 0.82686765E+03</pdfrwt>
<totfact> 0.14966977E+01</totfact>
</mgrwt>
</event>
<event>
 4    1  0.2202466E-008  0.5316908E+03  0.7818608E-02  0.1005823E+00
         -2   -1    0    0    0  501 -0.00000000000E+00  0.00000000000E+00  0.99881805987E+03  0.99881805988E+03  0.25500000000E-02 0.  1.
          2   -1    0    0  501    0  0.00000000000E+00 -0.00000000000E+00 -0.93845427202E+03  0.93845427202E+03  0.25500000000E-02 0. -1.
    8880022    1    1    2    0    0  0.30755763513E+03 -0.40584695189E+03 -0.77931559718E+03  0.94341290022E+03  0.15294330000E+03 0.  0.
    8880022    1    1    2    0    0 -0.30755763513E+03  0.40584695189E+03  0.83967938503E+03  0.99385943168E+03  0.15294330000E+03 0.  0.
<mgrwt>
<rscale>  0 0.53169079E+03</rscale>
<asrwt>0</asrwt>
<pdfrwt beam="1">  1        2 0.14437758E+00 0.53169079E+03</pdfrwt>
<pdfrwt beam="2">  1       -2 0.15366432E+00 0.53169079E+03</pdfrwt>
<totfact> 0.81594463E+00</totfact>
</mgrwt>
</event>
<event>
 4    1  0.2202466E-008  0.1059189E+04  0.7818608E-02  0.9245908E-01
          2   -1    0    0  501    0  0.00000000000E+00  0.00000000000E+00  0.25602294199E+04  0.25602294199E+04  0.25500000000E-02 0. -1.
         -2   -1    0    0    0  501 -0.00000000000E+00 -0.00000000000E+00 -0.99383778834E+03  0.99383778835E+03  0.25500000000E-02 0.  1.
    8880022    1    1    2    0    0 -0.58393481114E+03  0.87035056914E+03 -0.54553020116E+03  0.11914213488E+04  0.15294330000E+03 0.  0.
    8880022    1    1    2    0    0  0.58393481114E+03 -0.87035056914E+03  0.21119218327E+04  0.23626458595E+04  0.15294330000E+03 0.  0.
<mgrwt>
<rscale>  0 0.10591891E+04</rscale>
<asrwt>0</asrwt>
<pdfrwt beam="1">  1        2 0.39388144E+00 0.10591891E+04</pdfrwt>
<pdfrwt beam="2">  1       -2 0.15289813E+00 0.10591891E+04</pdfrwt>
<totfact> 0.91219664E-01</totfact>
</mgrwt>
</event>
<event>
 4    1  0.2202466E-008  0.2949925E+03  0.7818608E-02  0.1087771E+00
          2   -1    0    0  501    0  0.00000000000E+00  0.00000000000E+00  0.29219570222E+04  0.29219570222E+04  0.25500000000E-02 0. -1.
         -2   -1    0    0    0  501 -0.00000000000E+00 -0.00000000000E+00 -0.76565358272E+02  0.76565358315E+02  0.25500000000E-02 0.  1.
    8880022    1    1    2    0    0 -0.23711781196E+03  0.86046933787E+02  0.25074701098E+03  0.38716230200E+03  0.15294330000E+03 0.  0.
    8880022    1    1    2    0    0  0.23711781196E+03 -0.86046933787E+02  0.25946446529E+04  0.26113600785E+04  0.15294330000E+03 0.  0.
<mgrwt>
<rscale>  0 0.29499252E+03</rscale>
<asrwt>0</asrwt>
<pdfrwt beam="1">  1        2 0.44953188E+00 0.29499252E+03</pdfrwt>
<pdfrwt beam="2">  1       -2 0.11779285E-01 0.29499252E+03</pdfrwt>
<totfact> 0.11744696E+02</totfact>
</mgrwt>
</event>
<event>
 4    1  0.2202466E-008  0.1536683E+04  0.7818608E-02  0.8860419E-01
          2   -1    0    0  501    0  0.00000000000E+00  0.00000000000E+00  0.20116259096E+04  0.20116259096E+04  0.25500000000E-02 0. -1.
         -2   -1    0    0    0  501 -0.00000000000E+00 -0.00000000000E+00 -0.13812731391E+04  0.13812731391E+04  0.25500000000E-02 0.  1.
    8880022    1    1    2    0    0  0.34000936354E+03  0.14907700606E+04  0.97253998688E+03  0.18185784063E+04  0.15294330000E+03 0.  0.
    8880022    1    1    2    0    0 -0.34000936354E+03 -0.14907700606E+04 -0.34218721638E+03  0.15743206423E+04  0.15294330000E+03 0.  0.
<mgrwt>
<rscale>  0 0.15366826E+04</rscale>
<asrwt>0</asrwt>
<pdfrwt beam="1">  1        2 0.30948091E+00 0.15366826E+04</pdfrwt>
<pdfrwt beam="2">  1       -2 0.21250356E+00 0.15366826E+04</pdfrwt>
<totfact> 0.67919511E-01</totfact>
</mgrwt>
</event>
<event>
 4    1  0.2202466E-008  0.7444752E+03  0.7818608E-02  0.9644058E-01
          2   -1    0    0  501    0  0.00000000000E+00  0.00000000000E+00  0.80979820919E+03  0.80979820920E+03  0.25500000000E-02 0. -1.
         -2   -1    0    0    0  501 -0.00000000000E+00 -0.00000000000E+00 -0.90654475705E+03  0.90654475706E+03  0.25500000000E-02 0.  1.
    8880022    1    1    2    0    0 -0.64852982325E+03  0.33205541690E+03 -0.47316531792E+03  0.88211609363E+03  0.15294330000E+03 0.  0.
    8880022    1    1    2    0    0  0.64852982325E+03 -0.33205541690E+03  0.37641877006E+03  0.83422687263E+03  0.15294330000E+03 0.  0.
<mgrwt>
<rscale>  0 0.74447524E+03</rscale>
<asrwt>0</asrwt>
<pdfrwt beam="1">  1        2 0.12458434E+00 0.74447524E+03</pdfrwt>
<pdfrwt beam="2">  1       -2 0.13946842E+00 0.74447524E+03</pdfrwt>
<totfact> 0.12492226E+01</totfact>
</mgrwt>
</event>
<event>
 4    1  0.2202466E-008  0.1294490E+04  0.7818608E-02  0.9033946E-01
          2   -1    0    0  501    0  0.00000000000E+00  0.00000000000E+00  0.74346247559E+03  0.74346247560E+03  0.25500000000E-02 0. -1.
         -2   -1    0    0    0  501 -0.00000000000E+00 -0.00000000000E+00 -0.28169693681E+04  0.28169693681E+04  0.25500000000E-02 0.  1.
    8880022    1    1    2    0    0  0.91805911789E+03 -0.89971115663E+03 -0.18326473124E+04  0.22437247010E+04  0.15294330000E+03 0.  0.
    8880022    1    1    2    0    0 -0.91805911789E+03  0.89971115663E+03 -0.24085958012E+03  0.13167071427E+04  0.15294330000E+03 0.  0.
<mgrwt>
<rscale>  0 0.12944900E+04</rscale>
<asrwt>0</asrwt>
<pdfrwt beam="1">  1        2 0.11437884E+00 0.12944900E+04</pdfrwt>
<pdfrwt beam="2">  1       -2 0.43337990E+00 0.12944900E+04</pdfrwt>
<totfact> 0.16577338E-01</totfact>
</mgrwt>
</event>
<event>
 4    1  0.2202466E-008  0.1227737E+04  0.7818608E-02  0.9088919E-01
         -2   -1    0    0    0  501 -0.00000000000E+00  0.00000000000E+00  0.78477006037E+03  0.78477006038E+03  0.25500000000E-02 0.  1.
          2   -1    0    0  501    0  0.00000000000E+00 -0.00000000000E+00 -0.24541328468E+04  0.24541328468E+04  0.25500000000E-02 0. -1.
    8880022    1    1    2    0    0  0.64179303458E+03  0.10353980117E+04 -0.15896738688E+04  0.20085820879E+04  0.15294330000E+03 0.  0.
    8880022    1    1    2    0    0 -0.64179303458E+03 -0.10353980117E+04 -0.79688917689E+02  0.12303208193E+04  0.15294330000E+03 0.  0.
<mgrwt>
<rscale>  0 0.12277373E+04</rscale>
<asrwt>0</asrwt>
<pdfrwt beam="1">  1        2 0.37755889E+00 0.12277373E+04</pdfrwt>
<pdfrwt beam="2">  1       -2 0.12073386E+00 0.12277373E+04</pdfrwt>
<totfact> 0.18906550E+00</totfact>
</mgrwt>
</event>
<event>
 4    1  0.2202466E-008  0.2910233E+03  0.7818608E-02  0.1089816E+00
         -2   -1    0    0    0  501 -0.00000000000E+00  0.00000000000E+00  0.51752345762E+03  0.51752345763E+03  0.25500000000E-02 0.  1.
          2   -1    0    0  501    0  0.00000000000E+00 -0.00000000000E+00 -0.12341264452E+04  0.12341264452E+04  0.25500000000E-02 0. -1.
    8880022    1    1    2    0    0 -0.22738045348E+03 -0.97984975541E+02  0.45738883102E+03  0.54212463678E+03  0.15294330000E+03 0.  1.
    8880022    1    1    2    0    0  0.22738045348E+03  0.97984975541E+02 -0.11739918186E+04  0.12095252661E+04  0.15294330000E+03 0.  0.
<mgrwt>
<rscale>  0 0.29102333E+03</rscale>
<asrwt>0</asrwt>
<pdfrwt beam="1">  1        2 0.18986561E+00 0.29102333E+03</pdfrwt>
<pdfrwt beam="2">  1       -2 0.79618994E-01 0.29102333E+03</pdfrwt>
<totfact> 0.27815559E+01</totfact>
</mgrwt>
</event>
<event>
 4    1  0.2202466E-008  0.8398157E+03  0.7818608E-02  0.9504109E-01
         -2   -1    0    0    0  501 -0.00000000000E+00  0.00000000000E+00  0.14306225736E+04  0.14306225736E+04  0.25500000000E-02 0.  1.
          2   -1    0    0  501    0  0.00000000000E+00 -0.00000000000E+00 -0.68332598504E+03  0.68332598505E+03  0.25500000000E-02 0. -1.
    8880022    1    1    2    0    0  0.67451903956E+03  0.47636409115E+03  0.93148200103E+03  0.12541726569E+04  0.15294330000E+03 0.  0.
    8880022    1    1    2    0    0 -0.67451903956E+03 -0.47636409115E+03 -0.18418541246E+03  0.85977590176E+03  0.15294330000E+03 0.  0.
<mgrwt>
<rscale>  0 0.83981566E+03</rscale>
<asrwt>0</asrwt>
<pdfrwt beam="1">  1        2 0.10512708E+00 0.83981566E+03</pdfrwt>
<pdfrwt beam="2">  1       -2 0.22009578E+00 0.83981566E+03</pdfrwt>
<totfact> 0.42219710E+00</totfact>
</mgrwt>
</event>
<event>
 4    1  0.2584083E-008  0.1073615E+04  0.7818608E-02  0.9231297E-01
         -2   -1    0    0    0  501 -0.00000000000E+00  0.00000000000E+00  0.17392436635E+04  0.17392436635E+04  0.25500000000E-02 0.  1.
          2   -1    0    0  501    0  0.00000000000E+00 -0.00000000000E+00 -0.21686444556E+04  0.21686444556E+04  0.25500000000E-02 0. -1.
    8880022    1    1    2    0    0  0.64507681897E+03 -0.84447216839E+03 -0.18429391796E+04  0.21328557893E+04  0.15294330000E+03 0.  0.
    8880022    1    1    2    0    0 -0.64507681897E+03  0.84447216839E+03  0.14135383875E+04  0.17750323297E+04  0.15294330000E+03 0.  0.
<mgrwt>
<rscale>  0 0.10736149E+04</rscale>
<asrwt>0</asrwt>
<pdfrwt beam="1">  1        2 0.33363761E+00 0.10736149E+04</pdfrwt>
<pdfrwt beam="2">  1       -2 0.26757595E+00 0.10736149E+04</pdfrwt>
<totfact> 0.26835817E-01</totfact>
</mgrwt>
</event>
<event>
 4    1  0.2202466E-008  0.9107668E+03  0.7818608E-02  0.9412222E-01
          2   -1    0    0  501    0  0.00000000000E+00  0.00000000000E+00  0.99369466052E+03  0.99369466053E+03  0.25500000000E-02 0. -1.
         -2   -1    0    0    0  501 -0.00000000000E+00 -0.00000000000E+00 -0.11317030646E+04  0.11317030646E+04  0.25500000000E-02 0.  1.
    8880022    1    1    2    0    0  0.17701830767E+02 -0.89765874613E+03 -0.61335742714E+03  0.10980453387E+04  0.15294330000E+03 0.  0.
    8880022    1    1    2    0    0 -0.17701830767E+02  0.89765874613E+03  0.47534902304E+03  0.10273523865E+04  0.15294330000E+03 0.  0.
<mgrwt>
<rscale>  0 0.91076684E+03</rscale>
<asrwt>0</asrwt>
<pdfrwt beam="1">  1        2 0.15287610E+00 0.91076684E+03</pdfrwt>
<pdfrwt beam="2">  1       -2 0.17410816E+00 0.91076684E+03</pdfrwt>
<totfact> 0.50715039E+00</totfact>
</mgrwt>
</event>
<event>
 4    1  0.2202466E-008  0.6183468E+03  0.7818608E-02  0.9868057E-01
          2   -1    0    0  501    0  0.00000000000E+00  0.00000000000E+00  0.20320693597E+04  0.20320693597E+04  0.25500000000E-02 0. -1.
         -2   -1    0    0    0  501 -0.00000000000E+00 -0.00000000000E+00 -0.51892944823E+03  0.51892944823E+03  0.25500000000E-02 0.  1.
    8880022    1    1    2    0    0 -0.49582223567E+03 -0.33633529232E+03  0.17749016202E+04  0.18795288060E+04  0.15294330000E+03 0.  0.
    8880022    1    1    2    0    0  0.49582223567E+03  0.33633529232E+03 -0.26176170876E+03  0.67147000188E+03  0.15294330000E+03 0.  0.
<mgrwt>
<rscale>  0 0.61834681E+03</rscale>
<asrwt>0</asrwt>
<pdfrwt beam="1">  1        2 0.31262606E+00 0.61834681E+03</pdfrwt>
<pdfrwt beam="2">  1       -2 0.79835298E-01 0.61834681E+03</pdfrwt>
<totfact> 0.94367777E+00</totfact>
</mgrwt>
</event>
<event>
 4    1  0.2202466E-008  0.4041868E+03  0.7818608E-02  0.1042339E+00
          2   -1    0    0  501    0  0.00000000000E+00  0.00000000000E+00  0.11812059147E+04  0.11812059147E+04  0.25500000000E-02 0. -1.
         -2   -1    0    0    0  501 -0.00000000000E+00 -0.00000000000E+00 -0.17251558875E+03  0.17251558877E+03  0.25500000000E-02 0.  1.
    8880022    1    1    2    0    0 -0.37314801392E+03  0.27127527821E+02  0.80575939663E+03  0.90145171881E+03  0.15294330000E+03 0.  0.
    8880022    1    1    2    0    0  0.37314801392E+03 -0.27127527821E+02  0.20293092936E+03  0.45226978471E+03  0.15294330000E+03 0.  0.
<mgrwt>
<rscale>  0 0.40418683E+03</rscale>
<asrwt>0</asrwt>
<pdfrwt beam="1">  1        2 0.18172398E+00 0.40418683E+03</pdfrwt>
<pdfrwt beam="2">  1       -2 0.26540861E-01 0.40418683E+03</pdfrwt>
<totfact> 0.25940738E+02</totfact>
</mgrwt>
</event>
<event>
 4    1  0.2202466E-008  0.7062206E+03  0.7818608E-02  0.9706653E-01
          2   -1    0    0  501    0  0.00000000000E+00  0.00000000000E+00  0.28209031896E+04  0.28209031896E+04  0.25500000000E-02 0. -1.
         -2   -1    0    0    0  501 -0.00000000000E+00 -0.00000000000E+00 -0.19549048895E+03  0.19549048897E+03  0.25500000000E-02 0.  1.
    8880022    1    1    2    0    0 -0.13216183993E+03  0.67667502396E+03  0.17789972069E+04  0.19140476889E+04  0.15294330000E+03 0.  0.
    8880022    1    1    2    0    0  0.13216183993E+03 -0.67667502396E+03  0.84641549370E+03  0.11023459897E+04  0.15294330000E+03 0. -1.
<mgrwt>
<rscale>  0 0.70622057E+03</rscale>
<asrwt>0</asrwt>
<pdfrwt beam="1">  1        2 0.43398511E+00 0.70622057E+03</pdfrwt>
<pdfrwt beam="2">  1       -2 0.30075460E-01 0.70622057E+03</pdfrwt>
<totfact> 0.24302136E+01</totfact>
</mgrwt>
</event>
<event>
 4    1  0.2202466E-008  0.7458486E+03  0.7818608E-02  0.9641886E-01
          2   -1    0    0  501    0  0.00000000000E+00  0.00000000000E+00  0.29984183560E+04  0.29984183560E+04  0.25500000000E-02 0. -1.
         -2   -1    0    0    0  501 -0.00000000000E+00 -0.00000000000E+00 -0.44642240940E+03  0.44642240941E+03  0.25500000000E-02 0.  1.
    8880022    1    1    2    0    0  0.64974844073E+03  0.33275423386E+03  0.25927339005E+04  0.26978804919E+04  0.15294330000E+03 0. -1.
    8880022    1    1    2    0    0 -0.64974844073E+03 -0.33275423386E+03 -0.40737953915E+02  0.74696027357E+03  0.15294330000E+03 0.  0.
<mgrwt>
<rscale>  0 0.74584856E+03</rscale>
<asrwt>0</asrwt>
<pdfrwt beam="1">  1        2 0.46129512E+00 0.74584856E+03</pdfrwt>
<pdfrwt beam="2">  1       -2 0.68680373E-01 0.74584856E+03</pdfrwt>
<totfact> 0.36101862E+00</totfact>
</mgrwt>
</event>
<event>
 4    1  0.2202466E-008  0.9413356E+03  0.7818608E-02  0.9375336E-01
          2   -1    0    0  501    0  0.00000000000E+00  0.00000000000E+00  0.22378887464E+04  0.22378887464E+04  0.25500000000E-02 0. -1.
         -2   -1    0    0    0  501 -0.00000000000E+00 -0.00000000000E+00 -0.58733995209E+03  0.58733995210E+03  0.25500000000E-02 0.  1.
    8880022    1    1    2    0    0  0.18338098957E+03  0.91054512657E+03  0.18916293329E+02  0.94152562048E+03  0.15294330000E+03 0.  0.
    8880022    1    1    2    0    0 -0.18338098957E+03 -0.91054512657E+03  0.16316325010E+04  0.18837030780E+04  0.15294330000E+03 0.  0.
<mgrwt>
<rscale>  0 0.94133558E+03</rscale>
<asrwt>0</asrwt>
<pdfrwt beam="1">  1        2 0.34429058E+00 0.94133558E+03</pdfrwt>
<pdfrwt beam="2">  1       -2 0.90359993E-01 0.94133558E+03</pdfrwt>
<totfact> 0.52119007E+00</totfact>
</mgrwt>
</event>
<event>
 4    1  0.2202466E-008  0.2783468E+03  0.7818608E-02  0.1096595E+00
          2   -1    0    0  501    0  0.00000000000E+00  0.00000000000E+00  0.13597032144E+04  0.13597032144E+04  0.25500000000E-02 0. -1.
         -2   -1    0    0    0  501 -0.00000000000E+00 -0.00000000000E+00 -0.49185505525E+03  0.49185505526E+03  0.25500000000E-02 0.  1.
    8880022    1    1    2    0    0 -0.23247351593E+03  0.64325300994E+01  0.13044278805E+04  0.13337949848E+04  0.15294330000E+03 0.  0.
    8880022    1    1    2    0    0  0.23247351593E+03 -0.64325300994E+01 -0.43657972134E+03  0.51776328487E+03  0.15294330000E+03 0.  1.
<mgrwt>
<rscale>  0 0.27834684E+03</rscale>
<asrwt>0</asrwt>
<pdfrwt beam="1">  1        2 0.20918511E+00 0.27834684E+03</pdfrwt>
<pdfrwt beam="2">  1       -2 0.75670008E-01 0.27834684E+03</pdfrwt>
<totfact> 0.26582231E+01</totfact>
</mgrwt>
</event>
<event>
 4    1  0.2202466E-008  0.1868308E+03  0.7818608E-02  0.1161351E+00
          2   -1    0    0  501    0  0.00000000000E+00  0.00000000000E+00  0.34225831892E+03  0.34225831893E+03  0.25500000000E-02 0. -1.
         -2   -1    0    0    0  501 -0.00000000000E+00 -0.00000000000E+00 -0.22030003806E+03  0.22030003808E+03  0.25500000000E-02 0.  1.
    8880022    1    1    2    0    0  0.77545234016E+02  0.74167483501E+02  0.26711212856E+03  0.32596720873E+03  0.15294330000E+03 0. -1.
    8880022    1    1    2    0    0 -0.77545234016E+02 -0.74167483501E+02 -0.14515384770E+03  0.23659114828E+03  0.15294330000E+03 0.  0.
<mgrwt>
<rscale>  0 0.18683076E+03</rscale>
<asrwt>0</asrwt>
<pdfrwt beam="1">  1        2 0.52655126E-01 0.18683076E+03</pdfrwt>
<pdfrwt beam="2">  1       -2 0.33892314E-01 0.18683076E+03</pdfrwt>
<totfact> 0.77268120E+02</totfact>
</mgrwt>
</event>
<event>
 4    1  0.2202466E-008  0.1030731E+04  0.7818608E-02  0.9275467E-01
          2   -1    0    0  501    0  0.00000000000E+00  0.00000000000E+00  0.13347101955E+04  0.13347101955E+04  0.25500000000E-02 0. -1.
         -2   -1    0    0    0  501 -0.00000000000E+00 -0.00000000000E+00 -0.11688518438E+04  0.11688518438E+04  0.25500000000E-02 0.  1.
    8880022    1    1    2    0    0 -0.78273749608E+03  0.65294455955E+03 -0.62408292326E+03  0.12049422118E+04  0.15294330000E+03 0.  0.
    8880022    1    1    2    0    0  0.78273749608E+03 -0.65294455955E+03  0.78994127493E+03  0.12986198275E+04  0.15294330000E+03 0.  0.
<mgrwt>
<rscale>  0 0.10307309E+04</rscale>
<asrwt>0</asrwt>
<pdfrwt beam="1">  1        2 0.20534003E+00 0.10307309E+04</pdfrwt>
<pdfrwt beam="2">  1       -2 0.17982336E+00 0.10307309E+04</pdfrwt>
<totfact> 0.28358805E+00</totfact>
</mgrwt>
</event>
<event>
 4    1  0.2202466E-008  0.6706589E+03  0.7818608E-02  0.9768768E-01
         -2   -1    0    0    0  501 -0.00000000000E+00  0.00000000000E+00  0.32964985462E+03  0.32964985463E+03  0.25500000000E-02 0.  1.
          2   -1    0    0  501    0  0.00000000000E+00 -0.00000000000E+00 -0.27607880651E+04  0.27607880651E+04  0.25500000000E-02 0. -1.
    8880022    1    1    2    0    0 -0.63980818725E+03  0.13052652081E+03 -0.23145047859E+04  0.24097127933E+04  0.15294330000E+03 0.  0.
    8880022    1    1    2    0    0  0.63980818725E+03 -0.13052652081E+03 -0.11663342463E+03  0.68072512651E+03  0.15294330000E+03 0.  1.
<mgrwt>
<rscale>  0 0.67065889E+03</rscale>
<asrwt>0</asrwt>
<pdfrwt beam="1">  1        2 0.42473661E+00 0.67065889E+03</pdfrwt>
<pdfrwt beam="2">  1       -2 0.50715364E-01 0.67065889E+03</pdfrwt>
<totfact> 0.96216831E+00</totfact>
</mgrwt>
</event>
<event>
 4    1  0.2202466E-008  0.1340669E+04  0.7818608E-02  0.8997921E-01
         -2   -1    0    0    0  501 -0.00000000000E+00  0.00000000000E+00  0.12721349607E+04  0.12721349607E+04  0.25500000000E-02 0.  1.
          2   -1    0    0  501    0  0.00000000000E+00 -0.00000000000E+00 -0.16558543820E+04  0.16558543820E+04  0.25500000000E-02 0. -1.
    8880022    1    1    2    0    0  0.13295562195E+04  0.79266317607E+02  0.36892254900E+03  0.13905029270E+04  0.15294330000E+03 0.  0.
    8880022    1    1    2    0    0 -0.13295562195E+04 -0.79266317607E+02 -0.75264197035E+03  0.15374864157E+04  0.15294330000E+03 0.  0.
<mgrwt>
<rscale>  0 0.13406694E+04</rscale>
<asrwt>0</asrwt>
<pdfrwt beam="1">  1        2 0.25474683E+00 0.13406694E+04</pdfrwt>
<pdfrwt beam="2">  1       -2 0.19571307E+00 0.13406694E+04</pdfrwt>
<totfact> 0.14080587E+00</totfact>
</mgrwt>
</event>
<event>
 4    1  0.2202466E-008  0.1699294E+04  0.7818608E-02  0.8761767E-01
          2   -1    0    0  501    0  0.00000000000E+00  0.00000000000E+00  0.37109060984E+04  0.37109060984E+04  0.25500000000E-02 0. -1.
         -2   -1    0    0    0  501 -0.00000000000E+00 -0.00000000000E+00 -0.10310837582E+04  0.10310837582E+04  0.25500000000E-02 0.  1.
    8880022    1    1    2    0    0 -0.15593386943E+04  0.65777628596E+03  0.16556259141E+03  0.17073398696E+04  0.15294330000E+03 0.  0.
    8880022    1    1    2    0    0  0.15593386943E+04 -0.65777628596E+03  0.25142597488E+04  0.30346499870E+04  0.15294330000E+03 0.  0.
<mgrwt>
<rscale>  0 0.16992935E+04</rscale>
<asrwt>0</asrwt>
<pdfrwt beam="1">  1        2 0.57090863E+00 0.16992935E+04</pdfrwt>
<pdfrwt beam="2">  1       -2 0.15862827E+00 0.16992935E+04</pdfrwt>
<totfact> 0.13762482E-01</totfact>
</mgrwt>
</event>
<event>
 4    1  0.2202466E-008  0.4652263E+03  0.7818608E-02  0.1023276E+00
         -2   -1    0    0    0  501 -0.00000000000E+00  0.00000000000E+00  0.27396281780E+03  0.27396281781E+03  0.25500000000E-02 0.  1.
          2   -1    0    0  501    0  0.00000000000E+00 -0.00000000000E+00 -0.37994407729E+04  0.37994407729E+04  0.25500000000E-02 0. -1.
    8880022    1    1    2    0    0 -0.43888101716E+03 -0.20671273414E+02 -0.35753692255E+04  0.36055097560E+04  0.15294330000E+03 0.  0.
    8880022    1    1    2    0    0  0.43888101716E+03  0.20671273414E+02  0.49891270346E+02  0.46789383480E+03  0.15294330000E+03 0.  0.
<mgrwt>
<rscale>  0 0.46522629E+03</rscale>
<asrwt>0</asrwt>
<pdfrwt beam="1">  1        2 0.58452931E+00 0.46522629E+03</pdfrwt>
<pdfrwt beam="2">  1       -2 0.42148129E-01 0.46522629E+03</pdfrwt>
<totfact> 0.31279329E+00</totfact>
</mgrwt>
</event>
<event>
 4    1  0.2202466E-008  0.9491833E+03  0.7818608E-02  0.9366106E-01
         -2   -1    0    0    0  501 -0.00000000000E+00  0.00000000000E+00  0.15535094298E+04  0.15535094298E+04  0.25500000000E-02 0.  1.
          2   -1    0    0  501    0  0.00000000000E+00 -0.00000000000E+00 -0.24410863578E+04  0.24410863578E+04  0.25500000000E-02 0. -1.
    8880022    1    1    2    0    0  0.84998480860E+03  0.39380598526E+03 -0.21877665787E+04  0.23848001142E+04  0.15294330000E+03 0.  0.
    8880022    1    1    2    0    0 -0.84998480860E+03 -0.39380598526E+03  0.13001896508E+04  0.16097956733E+04  0.15294330000E+03 0.  0.
<mgrwt>
<rscale>  0 0.94918332E+03</rscale>
<asrwt>0</asrwt>
<pdfrwt beam="1">  1        2 0.37555175E+00 0.94918332E+03</pdfrwt>
<pdfrwt beam="2">  1       -2 0.23900145E+00 0.94918332E+03</pdfrwt>
<totfact> 0.28820422E-01</totfact>
</mgrwt>
</event>
<event>
 4    1  0.2202466E-008  0.9251921E+03  0.7818608E-02  0.9394627E-01
         -2   -1    0    0    0  501 -0.00000000000E+00  0.00000000000E+00  0.80426718133E+03  0.80426718133E+03  0.25500000000E-02 0.  1.
          2   -1    0    0  501    0  0.00000000000E+00 -0.00000000000E+00 -0.19555516749E+04  0.19555516749E+04  0.25500000000E-02 0. -1.
    8880022    1    1    2    0    0  0.75310801721E+03  0.51518648272E+03  0.35592980254E+03  0.99129535201E+03  0.15294330000E+03 0.  0.
    8880022    1    1    2    0    0 -0.75310801721E+03 -0.51518648272E+03 -0.15072142961E+04  0.17685235042E+04  0.15294330000E+03 0.  0.
<mgrwt>
<rscale>  0 0.92519212E+03</rscale>
<asrwt>0</asrwt>
<pdfrwt beam="1">  1        2 0.30085410E+00 0.92519212E+03</pdfrwt>
<pdfrwt beam="2">  1       -2 0.12373341E+00 0.92519212E+03</pdfrwt>
<totfact> 0.35071929E+00</totfact>
</mgrwt>
</event>
<event>
 4    1  0.2202466E-008  0.7941861E+03  0.7818608E-02  0.9568471E-01
          2   -1    0    0  501    0  0.00000000000E+00  0.00000000000E+00  0.72088884884E+03  0.72088884885E+03  0.25500000000E-02 0. -1.
         -2   -1    0    0    0  501 -0.00000000000E+00 -0.00000000000E+00 -0.18730465479E+04  0.18730465479E+04  0.25500000000E-02 0.  1.
    8880022    1    1    2    0    0  0.51139420542E+03  0.58806116269E+03 -0.15228482079E+04  0.17174976803E+04  0.15294330000E+03 0.  0.
    8880022    1    1    2    0    0 -0.51139420542E+03 -0.58806116269E+03  0.37069050890E+03  0.87643771644E+03  0.15294330000E+03 0.  0.
<mgrwt>
<rscale>  0 0.79418614E+03</rscale>
<asrwt>0</asrwt>
<pdfrwt beam="1">  1        2 0.11090598E+00 0.79418614E+03</pdfrwt>
<pdfrwt beam="2">  1       -2 0.28816100E+00 0.79418614E+03</pdfrwt>
<totfact> 0.15304649E+00</totfact>
</mgrwt>
</event>
<event>
 4    1  0.2202466E-008  0.4936264E+03  0.7818608E-02  0.1015456E+00
          2   -1    0    0  501    0  0.00000000000E+00  0.00000000000E+00  0.11471182683E+04  0.11471182683E+04  0.25500000000E-02 0. -1.
         -2   -1    0    0    0  501 -0.00000000000E+00 -0.00000000000E+00 -0.91834492514E+03  0.91834492514E+03  0.25500000000E-02 0.  1.
    8880022    1    1    2    0    0  0.41719566718E+03 -0.21499573941E+03  0.10198374181E+04  0.11330204787E+04  0.15294330000E+03 0.  0.
    8880022    1    1    2    0    0 -0.41719566718E+03  0.21499573941E+03 -0.79106407494E+03  0.93244271479E+03  0.15294330000E+03 0.  0.
<mgrwt>
<rscale>  0 0.49362642E+03</rscale>
<asrwt>0</asrwt>
<pdfrwt beam="1">  1        2 0.17647973E+00 0.49362642E+03</pdfrwt>
<pdfrwt beam="2">  1       -2 0.14128383E+00 0.49362642E+03</pdfrwt>
<totfact> 0.76006873E+00</totfact>
</mgrwt>
</event>
<event>
 4    1  0.2202466E-008  0.8984157E+03  0.7818608E-02  0.9427564E-01
         -2   -1    0    0    0  501 -0.00000000000E+00  0.00000000000E+00  0.10869868340E+04  0.10869868340E+04  0.25500000000E-02 0.  1.
          2   -1    0    0  501    0  0.00000000000E+00 -0.00000000000E+00 -0.16387174059E+04  0.16387174059E+04  0.25500000000E-02 0. -1.
    8880022    1    1    2    0    0 -0.43348679831E+03 -0.77191212788E+03 -0.12837000385E+04  0.15668556345E+04  0.15294330000E+03 0.  0.
    8880022    1    1    2    0    0  0.43348679831E+03  0.77191212788E+03  0.73196946647E+03  0.11588486054E+04  0.15294330000E+03 0.  0.
<mgrwt>
<rscale>  0 0.89841571E+03</rscale>
<asrwt>0</asrwt>
<pdfrwt beam="1">  1        2 0.25211037E+00 0.89841571E+03</pdfrwt>
<pdfrwt beam="2">  1       -2 0.16722874E+00 0.89841571E+03</pdfrwt>
<totfact> 0.23841954E+00</totfact>
</mgrwt>
</event>
<event>
 4    1  0.2202466E-008  0.3695084E+03  0.7818608E-02  0.1054881E+00
          2   -1    0    0  501    0  0.00000000000E+00  0.00000000000E+00  0.97617829349E+03  0.97617829349E+03  0.25500000000E-02 0. -1.
         -2   -1    0    0    0  501 -0.00000000000E+00 -0.00000000000E+00 -0.42203924202E+03  0.42203924203E+03  0.25500000000E-02 0.  1.
    8880022    1    1    2    0    0 -0.42694557569E+02  0.33364943979E+03 -0.29457289959E+03  0.47255647293E+03  0.15294330000E+03 0.  0.
    8880022    1    1    2    0    0  0.42694557569E+02 -0.33364943979E+03  0.84871195106E+03  0.92566106260E+03  0.15294330000E+03 0.  0.
<mgrwt>
<rscale>  0 0.36950836E+03</rscale>
<asrwt>0</asrwt>
<pdfrwt beam="1">  1        2 0.15018127E+00 0.36950836E+03</pdfrwt>
<pdfrwt beam="2">  1       -2 0.64929115E-01 0.36950836E+03</pdfrwt>
<totfact> 0.60570970E+01</totfact>
</mgrwt>
</event>
<event>
 4    1  0.2202466E-008  0.1217611E+04  0.7818608E-02  0.9097579E-01
          2   -1    0    0  501    0  0.00000000000E+00  0.00000000000E+00  0.12717006431E+04  0.12717006431E+04  0.25500000000E-02 0. -1.
         -2   -1    0    0    0  501 -0.00000000000E+00 -0.00000000000E+00 -0.31216415451E+04  0.31216415451E+04  0.25500000000E-02 0.  1.
    8880022    1    1    2    0    0 -0.85472269318E+03 -0.85360127179E+03 -0.26637231451E+04  0.29288220602E+04  0.15294330000E+03 0.  0.
    8880022    1    1    2    0    0  0.85472269318E+03  0.85360127179E+03  0.81378224310E+03  0.14645201281E+04  0.15294330000E+03 0.  0.
<mgrwt>
<rscale>  0 0.12176115E+04</rscale>
<asrwt>0</asrwt>
<pdfrwt beam="1">  1        2 0.19564625E+00 0.12176115E+04</pdfrwt>
<pdfrwt beam="2">  1       -2 0.48025254E+00 0.12176115E+04</pdfrwt>
<totfact> 0.36914232E-02</totfact>
</mgrwt>
</event>
<event>
 4    1  0.2202466E-008  0.6679096E+03  0.7818608E-02  0.9773741E-01
          2   -1    0    0  501    0  0.00000000000E+00  0.00000000000E+00  0.12148481000E+04  0.12148481000E+04  0.25500000000E-02 0. -1.
         -2   -1    0    0    0  501 -0.00000000000E+00 -0.00000000000E+00 -0.18657903029E+04  0.18657903029E+04  0.25500000000E-02 0.  1.
    8880022    1    1    2    0    0 -0.64732575147E+03  0.60671166368E+02 -0.17059172029E+04  0.18320089451E+04  0.15294330000E+03 0.  0.
    8880022    1    1    2    0    0  0.64732575147E+03 -0.60671166368E+02  0.10549750000E+04  0.12486294577E+04  0.15294330000E+03 0.  0.
<mgrwt>
<rscale>  0 0.66790963E+03</rscale>
<asrwt>0</asrwt>
<pdfrwt beam="1">  1        2 0.18689971E+00 0.66790963E+03</pdfrwt>
<pdfrwt beam="2">  1       -2 0.28704466E+00 0.66790963E+03</pdfrwt>
<totfact> 0.75377893E-01</totfact>
</mgrwt>
</event>
<event>
 4    1  0.2202466E-008  0.1658280E+04  0.7818608E-02  0.8785523E-01
         -2   -1    0    0    0  501 -0.00000000000E+00  0.00000000000E+00  0.14787187398E+04  0.14787187398E+04  0.25500000000E-02 0.  1.
          2   -1    0    0  501    0  0.00000000000E+00 -0.00000000000E+00 -0.19141610315E+04  0.19141610315E+04  0.25500000000E-02 0. -1.
    8880022    1    1    2    0    0  0.15015272861E+03  0.16443709833E+04  0.68569577729E+02  0.16596973256E+04  0.15294330000E+03 0.  0.
    8880022    1    1    2    0    0 -0.15015272861E+03 -0.16443709833E+04 -0.50401186947E+03  0.17331824457E+04  0.15294330000E+03 0.  0.
<mgrwt>
<rscale>  0 0.16582803E+04</rscale>
<asrwt>0</asrwt>
<pdfrwt beam="1">  1        2 0.29448631E+00 0.16582803E+04</pdfrwt>
<pdfrwt beam="2">  1       -2 0.22749519E+00 0.16582803E+04</pdfrwt>
<totfact> 0.61079079E-01</totfact>
</mgrwt>
</event>
<event>
 4    1  0.2202466E-008  0.2722149E+03  0.7818608E-02  0.1100019E+00
         -2   -1    0    0    0  501 -0.00000000000E+00  0.00000000000E+00  0.33515030858E+03  0.33515030859E+03  0.25500000000E-02 0.  1.
          2   -1    0    0  501    0  0.00000000000E+00 -0.00000000000E+00 -0.15119080870E+04  0.15119080870E+04  0.25500000000E-02 0. -1.
    8880022    1    1    2    0    0  0.18123985748E+03  0.13364664846E+03  0.26495532620E+03  0.37987141309E+03  0.15294330000E+03 0.  1.
    8880022    1    1    2    0    0 -0.18123985748E+03 -0.13364664846E+03 -0.14417131046E+04  0.14671869825E+04  0.15294330000E+03 0.  0.
<mgrwt>
<rscale>  0 0.27221493E+03</rscale>
<asrwt>0</asrwt>
<pdfrwt beam="1">  1        2 0.23260124E+00 0.27221493E+03</pdfrwt>
<pdfrwt beam="2">  1       -2 0.51561587E-01 0.27221493E+03</pdfrwt>
<totfact> 0.49270771E+01</totfact>
</mgrwt>
</event>
<event>
 4    1  0.2202466E-008  0.5841301E+03  0.7818608E-02  0.9938889E-01
          2   -1    0    0  501    0  0.00000000000E+00  0.00000000000E+00  0.16142957288E+04  0.16142957288E+04  0.25500000000E-02 0. -1.
         -2   -1    0    0    0  501 -0.00000000000E+00 -0.00000000000E+00 -0.42059643458E+03  0.42059643458E+03  0.25500000000E-02 0.  1.
    8880022    1    1    2    0    0  0.50231351913E+03  0.25592460449E+03  0.13144631316E+04  0.14384092784E+04  0.15294330000E+03 0.  0.
    8880022    1    1    2    0    0 -0.50231351913E+03 -0.25592460449E+03 -0.12076383740E+03  0.59648288502E+03  0.15294330000E+03 0.  0.
<mgrwt>
<rscale>  0 0.58413006E+03</rscale>
<asrwt>0</asrwt>
<pdfrwt beam="1">  1        2 0.24835319E+00 0.58413006E+03</pdfrwt>
<pdfrwt beam="2">  1       -2 0.64707145E-01 0.58413006E+03</pdfrwt>
<totfact> 0.25330084E+01</totfact>
</mgrwt>
</event>
<event>
 4    1  0.2202466E-008  0.8501829E+03  0.7818608E-02  0.9490092E-01
         -2   -1    0    0    0  501 -0.00000000000E+00  0.00000000000E+00  0.17967528558E+04  0.17967528558E+04  0.25500000000E-02 0.  1.
          2   -1    0    0  501    0  0.00000000000E+00 -0.00000000000E+00 -0.13250046185E+04  0.13250046185E+04  0.25500000000E-02 0. -1.
    8880022    1    1    2    0    0 -0.82196225297E+03 -0.15426377125E+03  0.15384253008E+04  0.17577153682E+04  0.15294330000E+03 0.  0.
    8880022    1    1    2    0    0  0.82196225297E+03  0.15426377125E+03 -0.10666770635E+04  0.13640421061E+04  0.15294330000E+03 0.  0.
<mgrwt>
<rscale>  0 0.85018287E+03</rscale>
<asrwt>0</asrwt>
<pdfrwt beam="1">  1        2 0.20384686E+00 0.85018287E+03</pdfrwt>
<pdfrwt beam="2">  1       -2 0.27642352E+00 0.85018287E+03</pdfrwt>
<totfact> 0.72605315E-01</totfact>
</mgrwt>
</event>
<event>
 4    1  0.2202466E-008  0.4850501E+03  0.7818608E-02  0.1017756E+00
         -2   -1    0    0    0  501 -0.00000000000E+00  0.00000000000E+00  0.46796365790E+03  0.46796365791E+03  0.25500000000E-02 0.  1.
          2   -1    0    0  501    0  0.00000000000E+00 -0.00000000000E+00 -0.12229518726E+04  0.12229518726E+04  0.25500000000E-02 0. -1.
    8880022    1    1    2    0    0  0.38302874682E+03 -0.25528605789E+03 -0.10262946280E+04  0.11351450606E+04  0.15294330000E+03 0.  0.
    8880022    1    1    2    0    0 -0.38302874682E+03  0.25528605789E+03  0.27130641331E+03  0.55577046985E+03  0.15294330000E+03 0.  0.
<mgrwt>
<rscale>  0 0.48505015E+03</rscale>
<asrwt>0</asrwt>
<pdfrwt beam="1">  1        2 0.18814644E+00 0.48505015E+03</pdfrwt>
<pdfrwt beam="2">  1       -2 0.71994409E-01 0.48505015E+03</pdfrwt>
<totfact> 0.33808406E+01</totfact>
</mgrwt>
</event>
<event>
 4    1  0.2202466E-008  0.6996741E+03  0.7818608E-02  0.9717790E-01
          2   -1    0    0  501    0  0.00000000000E+00  0.00000000000E+00  0.11895307487E+04  0.11895307487E+04  0.25500000000E-02 0. -1.
         -2   -1    0    0    0  501 -0.00000000000E+00 -0.00000000000E+00 -0.16000240429E+04  0.16000240429E+04  0.25500000000E-02 0.  1.
    8880022    1    1    2    0    0  0.36555758220E+03 -0.57664532638E+03 -0.14073385060E+04  0.15716696542E+04  0.15294330000E+03 0.  0.
    8880022    1    1    2    0    0 -0.36555758220E+03  0.57664532638E+03  0.99684521190E+03  0.12178851374E+04  0.15294330000E+03 0.  0.
<mgrwt>
<rscale>  0 0.69967409E+03</rscale>
<asrwt>0</asrwt>
<pdfrwt beam="1">  1        2 0.18300473E+00 0.69967409E+03</pdfrwt>
<pdfrwt beam="2">  1       -2 0.24615754E+00 0.69967409E+03</pdfrwt>
<totfact> 0.13637175E+00</totfact>
</mgrwt>
</event>
<event>
 4    1  0.2202466E-008  0.9256098E+03  0.7818608E-02  0.9394122E-01
         -2   -1    0    0    0  501 -0.00000000000E+00  0.00000000000E+00  0.13566476002E+04  0.13566476002E+04  0.25500000000E-02 0.  1.
          2   -1    0    0  501    0  0.00000000000E+00 -0.00000000000E+00 -0.79931124642E+03  0.79931124642E+03  0.25500000000E-02 0. -1.
    8880022    1    1    2    0    0 -0.41634360392E+03  0.81241600390E+03  0.77256245160E+03  0.12056559022E+04  0.15294330000E+03 0.  0.
    8880022    1    1    2    0    0  0.41634360392E+03 -0.81241600390E+03 -0.21522609783E+03  0.95030294439E+03  0.15294330000E+03 0.  0.
<mgrwt>
<rscale>  0 0.92560975E+03</rscale>
<asrwt>0</asrwt>
<pdfrwt beam="1">  1        2 0.12297096E+00 0.92560975E+03</pdfrwt>
<pdfrwt beam="2">  1       -2 0.20871501E+00 0.92560975E+03</pdfrwt>
<totfact> 0.40303902E+00</totfact>
</mgrwt>
</event>
<event>
 4    1  0.2202466E-008  0.1451072E+04  0.7818608E-02  0.8917658E-01
         -2   -1    0    0    0  501 -0.00000000000E+00  0.00000000000E+00  0.16261116816E+04  0.16261116816E+04  0.25500000000E-02 0.  1.
          2   -1    0    0  501    0  0.00000000000E+00 -0.00000000000E+00 -0.14815200158E+04  0.14815200158E+04  0.25500000000E-02 0. -1.
    8880022    1    1    2    0    0 -0.14267472243E+04  0.21589255684E+03 -0.47921716567E+03  0.15281550913E+04  0.15294330000E+03 0.  0.
    8880022    1    1    2    0    0  0.14267472243E+04 -0.21589255684E+03  0.62380883140E+03  0.15794766061E+04  0.15294330000E+03 0.  0.
<mgrwt>
<rscale>  0 0.14510716E+04</rscale>
<asrwt>0</asrwt>
<pdfrwt beam="1">  1        2 0.22792616E+00 0.14510716E+04</pdfrwt>
<pdfrwt beam="2">  1       -2 0.25017103E+00 0.14510716E+04</pdfrwt>
<totfact> 0.78790299E-01</totfact>
</mgrwt>
</event>
<event>
 4    1  0.2202466E-008  0.8786857E+03  0.7818608E-02  0.9452625E-01
          2   -1    0    0  501    0  0.00000000000E+00  0.00000000000E+00  0.15028037718E+04  0.15028037718E+04  0.25500000000E-02 0. -1.
         -2   -1    0    0    0  501 -0.00000000000E+00 -0.00000000000E+00 -0.10461030185E+04  0.10461030185E+04  0.25500000000E-02 0.  1.
    8880022    1    1    2    0    0 -0.77499095457E+03 -0.38481927368E+03 -0.68078871033E+03  0.11115582640E+04  0.15294330000E+03 0.  0.
    8880022    1    1    2    0    0  0.77499095457E+03  0.38481927368E+03  0.11374894637E+04  0.14373485263E+04  0.15294330000E+03 0.  0.
<mgrwt>
<rscale>  0 0.87868567E+03</rscale>
<asrwt>0</asrwt>
<pdfrwt beam="1">  1        2 0.23120058E+00 0.87868567E+03</pdfrwt>
<pdfrwt beam="2">  1       -2 0.16093893E+00 0.87868567E+03</pdfrwt>
<totfact> 0.31606641E+00</totfact>
</mgrwt>
</event>
<event>
 4    1  0.2202466E-008  0.5811864E+03  0.7818608E-02  0.9945226E-01
          2   -1    0    0  501    0  0.00000000000E+00  0.00000000000E+00  0.12885963822E+04  0.12885963822E+04  0.25500000000E-02 0. -1.
         -2   -1    0    0    0  501 -0.00000000000E+00 -0.00000000000E+00 -0.67158346639E+03  0.67158346639E+03  0.25500000000E-02 0.  1.
    8880022    1    1    2    0    0 -0.51735616703E+03  0.21616790655E+03 -0.45677129313E+03  0.73920067277E+03  0.15294330000E+03 0.  0.
    8880022    1    1    2    0    0  0.51735616703E+03 -0.21616790655E+03  0.10737842089E+04  0.12209791758E+04  0.15294330000E+03 0.  0.
<mgrwt>
<rscale>  0 0.58118639E+03</rscale>
<asrwt>0</asrwt>
<pdfrwt beam="1">  1        2 0.19824559E+00 0.58118639E+03</pdfrwt>
<pdfrwt beam="2">  1       -2 0.10332054E+00 0.58118639E+03</pdfrwt>
<totfact> 0.13407619E+01</totfact>
</mgrwt>
</event>
<event>
 4    1  0.2202466E-008  0.1186292E+04  0.7818608E-02  0.9124941E-01
          2   -1    0    0  501    0  0.00000000000E+00  0.00000000000E+00  0.22019173475E+04  0.22019173475E+04  0.25500000000E-02 0. -1.
         -2   -1    0    0    0  501 -0.00000000000E+00 -0.00000000000E+00 -0.11172804289E+04  0.11172804289E+04  0.25500000000E-02 0.  1.
    8880022    1    1    2    0    0  0.21201704926E+03  0.11571281566E+04  0.16280165001E+04  0.20143798494E+04  0.15294330000E+03 0.  0.
    8880022    1    1    2    0    0 -0.21201704926E+03 -0.11571281566E+04 -0.54337958151E+03  0.13048179270E+04  0.15294330000E+03 0.  0.
<mgrwt>
<rscale>  0 0.11862919E+04</rscale>
<asrwt>0</asrwt>
<pdfrwt beam="1">  1        2 0.33875651E+00 0.11862919E+04</pdfrwt>
<pdfrwt beam="2">  1       -2 0.17188930E+00 0.11862919E+04</pdfrwt>
<totfact> 0.10379980E+00</totfact>
</mgrwt>
</event>
<event>
 4    1  0.2202466E-008  0.1396605E+04  0.7818608E-02  0.8956280E-01
          2   -1    0    0  501    0  0.00000000000E+00  0.00000000000E+00  0.31883959370E+04  0.31883959370E+04  0.25500000000E-02 0. -1.
         -2   -1    0    0    0  501 -0.00000000000E+00 -0.00000000000E+00 -0.83520085094E+03  0.83520085095E+03  0.25500000000E-02 0.  1.
    8880022    1    1    2    0    0  0.31666850743E+03  0.13516045487E+04  0.22171852899E+04  0.26203847165E+04  0.15294330000E+03 0.  0.
    8880022    1    1    2    0    0 -0.31666850743E+03 -0.13516045487E+04  0.13600979611E+03  0.14032120714E+04  0.15294330000E+03 0.  0.
<mgrwt>
<rscale>  0 0.13966050E+04</rscale>
<asrwt>0</asrwt>
<pdfrwt beam="1">  1        2 0.49052246E+00 0.13966050E+04</pdfrwt>
<pdfrwt beam="2">  1       -2 0.12849244E+00 0.13966050E+04</pdfrwt>
<totfact> 0.56942905E-01</totfact>
</mgrwt>
</event>
<event>
 4    1  0.2202466E-008  0.1954526E+03  0.7818608E-02  0.1153633E+00
         -2   -1    0    0    0  501 -0.00000000000E+00  0.00000000000E+00  0.89408228338E+03  0.89408228338E+03  0.25500000000E-02 0.  1.
          2   -1    0    0  501    0  0.00000000000E+00 -0.00000000000E+00 -0.79488109351E+03  0.79488109351E+03  0.25500000000E-02 0. -1.
    8880022    1    1    2    0    0  0.10697660709E+03 -0.58017858106E+02 -0.77187086438E+03  0.79623259831E+03  0.15294330000E+03 0. -1.
    8880022    1    1    2    0    0 -0.10697660709E+03  0.58017858106E+02  0.87107205425E+03  0.89273077858E+03  0.15294330000E+03 0.  0.
<mgrwt>
<rscale>  0 0.19545260E+03</rscale>
<asrwt>0</asrwt>
<pdfrwt beam="1">  1        2 0.12228940E+00 0.19545260E+03</pdfrwt>
<pdfrwt beam="2">  1       -2 0.13755112E+00 0.19545260E+03</pdfrwt>
<totfact> 0.14770158E+01</totfact>
</mgrwt>
</event>
<event>
 4    1  0.2202466E-008  0.1051353E+04  0.7818608E-02  0.9253948E-01
         -2   -1    0    0    0  501 -0.00000000000E+00  0.00000000000E+00  0.79273156467E+03  0.79273156467E+03  0.25500000000E-02 0.  1.
          2   -1    0    0  501    0  0.00000000000E+00 -0.00000000000E+00 -0.34737157491E+04  0.34737157491E+04  0.25500000000E-02 0. -1.
    8880022    1    1    2    0    0 -0.10323605473E+04 -0.12721629283E+03  0.30996739816E+03  0.10960947613E+04  0.15294330000E+03 0.  0.
    8880022    1    1    2    0    0  0.10323605473E+04  0.12721629283E+03 -0.29909515826E+04  0.31703525525E+04  0.15294330000E+03 0.  0.
<mgrwt>
<rscale>  0 0.10513534E+04</rscale>
<asrwt>0</asrwt>
<pdfrwt beam="1">  1        2 0.53441780E+00 0.10513534E+04</pdfrwt>
<pdfrwt beam="2">  1       -2 0.12195870E+00 0.10513534E+04</pdfrwt>
<totfact> 0.44178383E-01</totfact>
</mgrwt>
</event>
<event>
 4    1  0.2202466E-008  0.9338890E+03  0.7818608E-02  0.9384183E-01
          2   -1    0    0  501    0  0.00000000000E+00  0.00000000000E+00  0.17718391865E+04  0.17718391865E+04  0.25500000000E-02 0. -1.
         -2   -1    0    0    0  501 -0.00000000000E+00 -0.00000000000E+00 -0.10751880328E+04  0.10751880328E+04  0.25500000000E-02 0.  1.
    8880022    1    1    2    0    0  0.61270335037E+03 -0.68800559070E+03 -0.69986156500E+03  0.11670282565E+04  0.15294330000E+03 0.  0.
    8880022    1    1    2    0    0 -0.61270335037E+03  0.68800559070E+03  0.13965127187E+04  0.16799989628E+04  0.15294330000E+03 0.  0.
<mgrwt>
<rscale>  0 0.93388904E+03</rscale>
<asrwt>0</asrwt>
<pdfrwt beam="1">  1        2 0.27259064E+00 0.93388904E+03</pdfrwt>
<pdfrwt beam="2">  1       -2 0.16541355E+00 0.93388904E+03</pdfrwt>
<totfact> 0.20648543E+00</totfact>
</mgrwt>
</event>
<event>
 4    1  0.2202466E-008  0.1349610E+04  0.7818608E-02  0.8991123E-01
          2   -1    0    0  501    0  0.00000000000E+00  0.00000000000E+00  0.25477635819E+04  0.25477635819E+04  0.25500000000E-02 0. -1.
         -2   -1    0    0    0  501 -0.00000000000E+00 -0.00000000000E+00 -0.11346938843E+04  0.11346938844E+04  0.25500000000E-02 0.  1.
    8880022    1    1    2    0    0 -0.25767232605E+03  0.13159256661E+04 -0.41335708099E+03  0.14114925135E+04  0.15294330000E+03 0.  0.
    8880022    1    1    2    0    0  0.25767232605E+03 -0.13159256661E+04  0.18264267786E+04  0.22709649528E+04  0.15294330000E+03 0.  0.
<mgrwt>
<rscale>  0 0.13496100E+04</rscale>
<asrwt>0</asrwt>
<pdfrwt beam="1">  1        2 0.39196362E+00 0.13496100E+04</pdfrwt>
<pdfrwt beam="2">  1       -2 0.17456829E+00 0.13496100E+04</pdfrwt>
<totfact> 0.61915576E-01</totfact>
</mgrwt>
</event>
<event>
 4    1  0.2202466E-008  0.9338512E+03  0.7818608E-02  0.9384228E-01
         -2   -1    0    0    0  501 -0.00000000000E+00  0.00000000000E+00  0.61157481819E+03  0.61157481820E+03  0.25500000000E-02 0.  1.
          2   -1    0    0  501    0  0.00000000000E+00 -0.00000000000E+00 -0.26598294299E+04  0.26598294299E+04  0.25500000000E-02 0. -1.
    8880022    1    1    2    0    0 -0.87625661444E+03 -0.28436019933E+03 -0.21381982469E+04  0.23332316159E+04  0.15294330000E+03 0.  0.
    8880022    1    1    2    0    0  0.87625661444E+03  0.28436019933E+03  0.89943635192E+02  0.93817263221E+03  0.15294330000E+03 0.  0.
<mgrwt>
<rscale>  0 0.93385118E+03</rscale>
<asrwt>0</asrwt>
<pdfrwt beam="1">  1        2 0.40920452E+00 0.93385118E+03</pdfrwt>
<pdfrwt beam="2">  1       -2 0.94088435E-01 0.93385118E+03</pdfrwt>
<totfact> 0.27341797E+00</totfact>
</mgrwt>
</event>
<event>
 4    1  0.2202466E-008  0.1168047E+04  0.7818608E-02  0.9141294E-01
          2   -1    0    0  501    0  0.00000000000E+00  0.00000000000E+00  0.26167819373E+04  0.26167819373E+04  0.25500000000E-02 0. -1.
         -2   -1    0    0    0  501 -0.00000000000E+00 -0.00000000000E+00 -0.10141066970E+04  0.10141066970E+04  0.25500000000E-02 0.  1.
    8880022    1    1    2    0    0 -0.10888429598E+03 -0.11528605623E+04  0.20667865826E+04  0.23740138367E+04  0.15294330000E+03 0.  0.
    8880022    1    1    2    0    0  0.10888429598E+03  0.11528605623E+04 -0.46411134225E+03  0.12568747976E+04  0.15294330000E+03 0.  0.
<mgrwt>
<rscale>  0 0.11680475E+04</rscale>
<asrwt>0</asrwt>
<pdfrwt beam="1">  1        2 0.40258184E+00 0.11680475E+04</pdfrwt>
<pdfrwt beam="2">  1       -2 0.15601641E+00 0.11680475E+04</pdfrwt>
<totfact> 0.78877360E-01</totfact>
</mgrwt>
</event>
<event>
 4    1  0.2202466E-008  0.9106161E+03  0.7818608E-02  0.9412407E-01
         -2   -1    0    0    0  501 -0.00000000000E+00  0.00000000000E+00  0.37085548644E+03  0.37085548644E+03  0.25500000000E-02 0.  1.
          2   -1    0    0  501    0  0.00000000000E+00 -0.00000000000E+00 -0.34762826425E+04  0.34762826425E+04  0.25500000000E-02 0. -1.
    8880022    1    1    2    0    0  0.19092921898E+03  0.87714081344E+03 -0.40372454375E+03  0.99609996160E+03  0.15294330000E+03 0.  0.
    8880022    1    1    2    0    0 -0.19092921898E+03 -0.87714081344E+03 -0.27017026123E+04  0.28510381674E+04  0.15294330000E+03 0.  0.
<mgrwt>
<rscale>  0 0.91061607E+03</rscale>
<asrwt>0</asrwt>
<pdfrwt beam="1">  1        2 0.53481269E+00 0.91061607E+03</pdfrwt>
<pdfrwt beam="2">  1       -2 0.57054693E-01 0.91061607E+03</pdfrwt>
<totfact> 0.25583984E+00</totfact>
</mgrwt>
</event>
<event>
 4    1  0.2202466E-008  0.4183218E+03  0.7818608E-02  0.1037614E+00
          2   -1    0    0  501    0  0.00000000000E+00  0.00000000000E+00  0.29979285942E+04  0.29979285942E+04  0.25500000000E-02 0. -1.
         -2   -1    0    0    0  501 -0.00000000000E+00 -0.00000000000E+00 -0.48801643255E+03  0.48801643255E+03  0.25500000000E-02 0.  1.
    8880022    1    1    2    0    0 -0.10555212359E+03  0.37478021910E+03 -0.38045991797E+03  0.56545810244E+03  0.15294330000E+03 0.  0.
    8880022    1    1    2    0    0  0.10555212359E+03 -0.37478021910E+03  0.28903720796E+04  0.29204869243E+04  0.15294330000E+03 0.  0.
<mgrwt>
<rscale>  0 0.41832179E+03</rscale>
<asrwt>0</asrwt>
<pdfrwt beam="1">  1        2 0.46121978E+00 0.41832179E+03</pdfrwt>
<pdfrwt beam="2">  1       -2 0.75079451E-01 0.41832179E+03</pdfrwt>
<totfact> 0.32505235E+00</totfact>
</mgrwt>
</event>
<event>
 4    1  0.2202466E-008  0.5651804E+03  0.7818608E-02  0.9980401E-01
         -2   -1    0    0    0  501 -0.00000000000E+00  0.00000000000E+00  0.11511342881E+04  0.11511342882E+04  0.25500000000E-02 0.  1.
          2   -1    0    0  501    0  0.00000000000E+00 -0.00000000000E+00 -0.57624807917E+03  0.57624807917E+03  0.25500000000E-02 0. -1.
    8880022    1    1    2    0    0 -0.53727270786E+03 -0.85879555809E+02  0.90933250327E+03  0.10706607844E+04  0.15294330000E+03 0.  0.
    8880022    1    1    2    0    0  0.53727270786E+03  0.85879555809E+02 -0.33444629429E+03  0.65672158294E+03  0.15294330000E+03 0.  0.
<mgrwt>
<rscale>  0 0.56518043E+03</rscale>
<asrwt>0</asrwt>
<pdfrwt beam="1">  1        2 0.88653552E-01 0.56518043E+03</pdfrwt>
<pdfrwt beam="2">  1       -2 0.17709758E+00 0.56518043E+03</pdfrwt>
<totfact> 0.10288132E+01</totfact>
</mgrwt>
</event>
<event>
 4    1  0.2202466E-008  0.1471789E+04  0.7818608E-02  0.8903433E-01
          2   -1    0    0  501    0  0.00000000000E+00  0.00000000000E+00  0.31076446496E+04  0.31076446496E+04  0.25500000000E-02 0. -1.
         -2   -1    0    0    0  501 -0.00000000000E+00 -0.00000000000E+00 -0.87857831739E+03  0.87857831739E+03  0.25500000000E-02 0.  1.
    8880022    1    1    2    0    0 -0.84875422072E+03 -0.11926384012E+04  0.20854610066E+03  0.14864902328E+04  0.15294330000E+03 0.  0.
    8880022    1    1    2    0    0  0.84875422072E+03  0.11926384012E+04  0.20205202316E+04  0.24997327342E+04  0.15294330000E+03 0.  0.
<mgrwt>
<rscale>  0 0.14717886E+04</rscale>
<asrwt>0</asrwt>
<pdfrwt beam="1">  1        2 0.47809917E+00 0.14717886E+04</pdfrwt>
<pdfrwt beam="2">  1       -2 0.13516590E+00 0.14717886E+04</pdfrwt>
<totfact> 0.55831608E-01</totfact>
</mgrwt>
</event>
<event>
 4    1  0.2202466E-008  0.4824913E+03  0.7818608E-02  0.1018453E+00
          2   -1    0    0  501    0  0.00000000000E+00  0.00000000000E+00  0.46867163329E+03  0.46867163329E+03  0.25500000000E-02 0. -1.
         -2   -1    0    0    0  501 -0.00000000000E+00 -0.00000000000E+00 -0.67233200925E+03  0.67233200926E+03  0.25500000000E-02 0.  1.
    8880022    1    1    2    0    0 -0.29619225498E+03  0.34882131442E+03  0.18974076111E+03  0.51845864902E+03  0.15294330000E+03 0.  0.
    8880022    1    1    2    0    0  0.29619225498E+03 -0.34882131442E+03 -0.39340113708E+03  0.62254499353E+03  0.15294330000E+03 0.  0.
<mgrwt>
<rscale>  0 0.48249126E+03</rscale>
<asrwt>0</asrwt>
<pdfrwt beam="1">  1        2 0.72103329E-01 0.48249126E+03</pdfrwt>
<pdfrwt beam="2">  1       -2 0.10343569E+00 0.48249126E+03</pdfrwt>
<totfact> 0.52263714E+01</totfact>
</mgrwt>
</event>
<event>
 4    1  0.2202466E-008  0.1808588E+03  0.7818608E-02  0.1166975E+00
         -2   -1    0    0    0  501 -0.00000000000E+00  0.00000000000E+00  0.43835488803E+02  0.43835488877E+02  0.25500000000E-02 0.  1.
          2   -1    0    0  501    0  0.00000000000E+00 -0.00000000000E+00 -0.85837073283E+03  0.85837073284E+03  0.25500000000E-02 0. -1.
    8880022    1    1    2    0    0 -0.83804390139E+02  0.47906859100E+02 -0.24419367276E+03  0.30387570779E+03  0.15294330000E+03 0.  1.
    8880022    1    1    2    0    0  0.83804390139E+02 -0.47906859100E+02 -0.57034157127E+03  0.59833051392E+03  0.15294330000E+03 0.  0.
<mgrwt>
<rscale>  0 0.18085877E+03</rscale>
<asrwt>0</asrwt>
<pdfrwt beam="1">  1        2 0.13205702E+00 0.18085877E+03</pdfrwt>
<pdfrwt beam="2">  1       -2 0.67439220E-02 0.18085877E+03</pdfrwt>
<totfact> 0.39430027E+03</totfact>
</mgrwt>
</event>
<event>
 4    1  0.2202466E-008  0.1073469E+04  0.7818608E-02  0.9231444E-01
         -2   -1    0    0    0  501 -0.00000000000E+00  0.00000000000E+00  0.18783946841E+04  0.18783946841E+04  0.25500000000E-02 0.  1.
          2   -1    0    0  501    0  0.00000000000E+00 -0.00000000000E+00 -0.69036528795E+03  0.69036528795E+03  0.25500000000E-02 0. -1.
    8880022    1    1    2    0    0 -0.96936409698E+03 -0.43506006655E+03  0.10226704051E+04  0.14826295641E+04  0.15294330000E+03 0.  0.
    8880022    1    1    2    0    0  0.96936409698E+03  0.43506006655E+03  0.16535899105E+03  0.10861304079E+04  0.15294330000E+03 0.  0.
<mgrwt>
<rscale>  0 0.10734690E+04</rscale>
<asrwt>0</asrwt>
<pdfrwt beam="1">  1        2 0.10621004E+00 0.10734690E+04</pdfrwt>
<pdfrwt beam="2">  1       -2 0.28898380E+00 0.10734690E+04</pdfrwt>
<totfact> 0.15397277E+00</totfact>
</mgrwt>
</event>
<event>
 4    1  0.2202466E-008  0.4493708E+03  0.7818608E-02  0.1027910E+00
          2   -1    0    0  501    0  0.00000000000E+00  0.00000000000E+00  0.20228685091E+04  0.20228685091E+04  0.25500000000E-02 0. -1.
         -2   -1    0    0    0  501 -0.00000000000E+00 -0.00000000000E+00 -0.25787772896E+04  0.25787772896E+04  0.25500000000E-02 0.  1.
    8880022    1    1    2    0    0 -0.22264276113E+03 -0.35912766134E+03 -0.25338048215E+04  0.25733443226E+04  0.15294330000E+03 0.  0.
    8880022    1    1    2    0    0  0.22264276113E+03  0.35912766134E+03  0.19778960409E+04  0.20283014761E+04  0.15294330000E+03 0.  0.
<mgrwt>
<rscale>  0 0.44937081E+03</rscale>
<asrwt>0</asrwt>
<pdfrwt beam="1">  1        2 0.31121054E+00 0.44937081E+03</pdfrwt>
<pdfrwt beam="2">  1       -2 0.39673497E+00 0.44937081E+03</pdfrwt>
<totfact> 0.61819994E-02</totfact>
</mgrwt>
</event>
<event>
 4    1  0.2202466E-008  0.1124101E+04  0.7818608E-02  0.9182014E-01
          2   -1    0    0  501    0  0.00000000000E+00  0.00000000000E+00  0.15838366428E+04  0.15838366428E+04  0.25500000000E-02 0. -1.
         -2   -1    0    0    0  501 -0.00000000000E+00 -0.00000000000E+00 -0.12629379395E+04  0.12629379395E+04  0.25500000000E-02 0.  1.
    8880022    1    1    2    0    0 -0.39643988949E+03  0.10406957190E+04  0.10242576603E+04  0.15207588807E+04  0.15294330000E+03 0.  0.
    8880022    1    1    2    0    0  0.39643988949E+03 -0.10406957190E+04 -0.70335895698E+03  0.13260157016E+04  0.15294330000E+03 0.  0.
<mgrwt>
<rscale>  0 0.11241013E+04</rscale>
<asrwt>0</asrwt>
<pdfrwt beam="1">  1        2 0.24366717E+00 0.11241013E+04</pdfrwt>
<pdfrwt beam="2">  1       -2 0.19429815E+00 0.11241013E+04</pdfrwt>
<totfact> 0.16164603E+00</totfact>
</mgrwt>
</event>
<event>
 4    1  0.2202466E-008  0.7629817E+03  0.7818608E-02  0.9615201E-01
          2   -1    0    0  501    0  0.00000000000E+00  0.00000000000E+00  0.17690439008E+04  0.17690439008E+04  0.25500000000E-02 0. -1.
         -2   -1    0    0    0  501 -0.00000000000E+00 -0.00000000000E+00 -0.76300912375E+03  0.76300912376E+03  0.25500000000E-02 0.  1.
    8880022    1    1    2    0    0  0.74369674408E+03  0.75263055857E+02  0.14577721730E+04  0.16453694831E+04  0.15294330000E+03 0.  0.
    8880022    1    1    2    0    0 -0.74369674408E+03 -0.75263055857E+02 -0.45173739593E+03  0.88668354142E+03  0.15294330000E+03 0.  0.
<mgrwt>
<rscale>  0 0.76298167E+03</rscale>
<asrwt>0</asrwt>
<pdfrwt beam="1">  1        2 0.27216060E+00 0.76298167E+03</pdfrwt>
<pdfrwt beam="2">  1       -2 0.11738602E+00 0.76298167E+03</pdfrwt>
<totfact> 0.51780354E+00</totfact>
</mgrwt>
</event>
<event>
 4    1  0.2202466E-008  0.9252499E+03  0.7818608E-02  0.9394557E-01
         -2   -1    0    0    0  501 -0.00000000000E+00  0.00000000000E+00  0.48239652973E+03  0.48239652974E+03  0.25500000000E-02 0.  1.
          2   -1    0    0  501    0  0.00000000000E+00 -0.00000000000E+00 -0.34753248288E+04  0.34753248288E+04  0.25500000000E-02 0. -1.
    8880022    1    1    2    0    0  0.85397528107E+03 -0.32159277734E+03 -0.28807556052E+04  0.30256966478E+04  0.15294330000E+03 0.  0.
    8880022    1    1    2    0    0 -0.85397528107E+03  0.32159277734E+03 -0.11217269393E+03  0.93202471072E+03  0.15294330000E+03 0.  0.
<mgrwt>
<rscale>  0 0.92524988E+03</rscale>
<asrwt>0</asrwt>
<pdfrwt beam="1">  1        2 0.53466534E+00 0.92524988E+03</pdfrwt>
<pdfrwt beam="2">  1       -2 0.74214853E-01 0.92524988E+03</pdfrwt>
<totfact> 0.14498601E+00</totfact>
</mgrwt>
</event>
<event>
 4    1  0.2202466E-008  0.9031663E+03  0.7818608E-02  0.9421632E-01
          2   -1    0    0  501    0  0.00000000000E+00  0.00000000000E+00  0.26888778379E+04  0.26888778379E+04  0.25500000000E-02 0. -1.
         -2   -1    0    0    0  501 -0.00000000000E+00 -0.00000000000E+00 -0.54990487636E+03  0.54990487636E+03  0.25500000000E-02 0.  1.
    8880022    1    1    2    0    0  0.43693549469E+03  0.77550314388E+03  0.21537935273E+04  0.23354948007E+04  0.15294330000E+03 0.  0.
    8880022    1    1    2    0    0 -0.43693549469E+03 -0.77550314388E+03 -0.14820565742E+02  0.90328791361E+03  0.15294330000E+03 0.  0.
<mgrwt>
<rscale>  0 0.90316632E+03</rscale>
<asrwt>0</asrwt>
<pdfrwt beam="1">  1        2 0.41367350E+00 0.90316632E+03</pdfrwt>
<pdfrwt beam="2">  1       -2 0.84600752E-01 0.90316632E+03</pdfrwt>
<totfact> 0.33772824E+00</totfact>
</mgrwt>
</event>
<event>
 4    1  0.2202466E-008  0.2844009E+03  0.7818608E-02  0.1093309E+00
         -2   -1    0    0    0  501 -0.00000000000E+00  0.00000000000E+00  0.11414630417E+04  0.11414630417E+04  0.25500000000E-02 0.  1.
          2   -1    0    0  501    0  0.00000000000E+00 -0.00000000000E+00 -0.31662241803E+03  0.31662241804E+03  0.25500000000E-02 0. -1.
    8880022    1    1    2    0    0 -0.76309710275E+02  0.22730829409E+03  0.10547234327E+04  0.10923943450E+04  0.15294330000E+03 0.  0.
    8880022    1    1    2    0    0  0.76309710275E+02 -0.22730829409E+03 -0.22988280909E+03  0.36569111471E+03  0.15294330000E+03 0.  0.
<mgrwt>
<rscale>  0 0.28440092E+03</rscale>
<asrwt>0</asrwt>
<pdfrwt beam="1">  1        2 0.48711141E-01 0.28440092E+03</pdfrwt>
<pdfrwt beam="2">  1       -2 0.17560970E+00 0.28440092E+03</pdfrwt>
<totfact> 0.21624089E+01</totfact>
</mgrwt>
</event>
<event>
 4    1  0.2202466E-008  0.3615589E+03  0.7818608E-02  0.1057968E+00
         -2   -1    0    0    0  501 -0.00000000000E+00  0.00000000000E+00  0.42007335919E+03  0.42007335920E+03  0.25500000000E-02 0.  1.
          2   -1    0    0  501    0  0.00000000000E+00 -0.00000000000E+00 -0.14164123295E+04  0.14164123295E+04  0.25500000000E-02 0. -1.
    8880022    1    1    2    0    0  0.15640203114E+03 -0.28787428431E+03 -0.13092920604E+04  0.13582969305E+04  0.15294330000E+03 0.  0.
    8880022    1    1    2    0    0 -0.15640203114E+03  0.28787428431E+03  0.31295309006E+03  0.47818875824E+03  0.15294330000E+03 0.  1.
<mgrwt>
<rscale>  0 0.36155892E+03</rscale>
<asrwt>0</asrwt>
<pdfrwt beam="1">  1        2 0.21790959E+00 0.36155892E+03</pdfrwt>
<pdfrwt beam="2">  1       -2 0.64626671E-01 0.36155892E+03</pdfrwt>
<totfact> 0.33991219E+01</totfact>
</mgrwt>
</event>
<event>
 4    1  0.2202466E-008  0.6650693E+03  0.7818608E-02  0.9778906E-01
         -2   -1    0    0    0  501 -0.00000000000E+00  0.00000000000E+00  0.52816082132E+03  0.52816082133E+03  0.25500000000E-02 0.  1.
          2   -1    0    0  501    0  0.00000000000E+00 -0.00000000000E+00 -0.14382655301E+04  0.14382655301E+04  0.25500000000E-02 0. -1.
    8880022    1    1    2    0    0 -0.38571923726E+03 -0.51975591736E+03  0.18041409596E+03  0.68910553811E+03  0.15294330000E+03 0.  0.
    8880022    1    1    2    0    0  0.38571923726E+03  0.51975591736E+03 -0.10905188047E+04  0.12773208133E+04  0.15294330000E+03 0. -1.
<mgrwt>
<rscale>  0 0.66506932E+03</rscale>
<asrwt>0</asrwt>
<pdfrwt beam="1">  1        2 0.22127162E+00 0.66506932E+03</pdfrwt>
<pdfrwt beam="2">  1       -2 0.81255511E-01 0.66506932E+03</pdfrwt>
<totfact> 0.18993052E+01</totfact>
</mgrwt>
</event>
<event>
 4    1  0.2202466E-008  0.1360070E+04  0.7818608E-02  0.8983240E-01
          2   -1    0    0  501    0  0.00000000000E+00  0.00000000000E+00  0.16951766566E+04  0.16951766566E+04  0.25500000000E-02 0. -1.
         -2   -1    0    0    0  501 -0.00000000000E+00 -0.00000000000E+00 -0.13033189689E+04  0.13033189689E+04  0.25500000000E-02 0.  1.
    8880022    1    1    2    0    0  0.10331419665E+04  0.87121558111E+03 -0.40889581278E+03  0.14202064464E+04  0.15294330000E+03 0.  0.
    8880022    1    1    2    0    0 -0.10331419665E+04 -0.87121558111E+03  0.80075350047E+03  0.15782891792E+04  0.15294330000E+03 0. -1.
<mgrwt>
<rscale>  0 0.13600701E+04</rscale>
<asrwt>0</asrwt>
<pdfrwt beam="1">  1        2 0.26079641E+00 0.13600701E+04</pdfrwt>
<pdfrwt beam="2">  1       -2 0.20051061E+00 0.13600701E+04</pdfrwt>
<totfact> 0.12417846E+00</totfact>
</mgrwt>
</event>
<event>
 4    1  0.2202466E-008  0.3332133E+03  0.7818608E-02  0.1069724E+00
          2   -1    0    0  501    0  0.00000000000E+00  0.00000000000E+00  0.20362539829E+04  0.20362539829E+04  0.25500000000E-02 0. -1.
         -2   -1    0    0    0  501 -0.00000000000E+00 -0.00000000000E+00 -0.40866224482E+03  0.40866224483E+03  0.25500000000E-02 0.  1.
    8880022    1    1    2    0    0  0.67612340878E+02 -0.28821525427E+03  0.19517800281E+04  0.19800192910E+04  0.15294330000E+03 0.  0.
    8880022    1    1    2    0    0 -0.67612340878E+02  0.28821525427E+03 -0.32418829002E+03  0.46489693678E+03  0.15294330000E+03 0.  0.
<mgrwt>
<rscale>  0 0.33321332E+03</rscale>
<asrwt>0</asrwt>
<pdfrwt beam="1">  1        2 0.31326984E+00 0.33321332E+03</pdfrwt>
<pdfrwt beam="2">  1       -2 0.62871115E-01 0.33321332E+03</pdfrwt>
<totfact> 0.16934099E+01</totfact>
</mgrwt>
</event>
<event>
 4    1  0.2202466E-008  0.4251982E+03  0.7818608E-02  0.1035388E+00
         -2   -1    0    0    0  501 -0.00000000000E+00  0.00000000000E+00  0.58582570975E+03  0.58582570976E+03  0.25500000000E-02 0.  1.
          2   -1    0    0  501    0  0.00000000000E+00 -0.00000000000E+00 -0.18989096073E+04  0.18989096073E+04  0.25500000000E-02 0. -1.
    8880022    1    1    2    0    0  0.35551098955E+03  0.17610723776E+03  0.48039674404E+03  0.64154072949E+03  0.15294330000E+03 0.  0.
    8880022    1    1    2    0    0 -0.35551098955E+03 -0.17610723776E+03 -0.17934806416E+04  0.18431945876E+04  0.15294330000E+03 0.  0.
<mgrwt>
<rscale>  0 0.42519816E+03</rscale>
<asrwt>0</asrwt>
<pdfrwt beam="1">  1        2 0.29213994E+00 0.42519816E+03</pdfrwt>
<pdfrwt beam="2">  1       -2 0.90127033E-01 0.42519816E+03</pdfrwt>
<totfact> 0.88373878E+00</totfact>
</mgrwt>
</event>
<event>
 4    1  0.2202466E-008  0.4539454E+03  0.7818608E-02  0.1026552E+00
          2   -1    0    0  501    0  0.00000000000E+00  0.00000000000E+00  0.38674574949E+03  0.38674574950E+03  0.25500000000E-02 0. -1.
         -2   -1    0    0    0  501 -0.00000000000E+00 -0.00000000000E+00 -0.14513950398E+04  0.14513950398E+04  0.25500000000E-02 0.  1.
    8880022    1    1    2    0    0 -0.11826719119E+02  0.42724105063E+03 -0.12634854993E+04  0.13425580236E+04  0.15294330000E+03 0.  0.
    8880022    1    1    2    0    0  0.11826719119E+02 -0.42724105063E+03  0.19883620904E+03  0.49558276571E+03  0.15294330000E+03 0.  0.
<mgrwt>
<rscale>  0 0.45394541E+03</rscale>
<asrwt>0</asrwt>
<pdfrwt beam="1">  1        2 0.59499347E-01 0.45394541E+03</pdfrwt>
<pdfrwt beam="2">  1       -2 0.22329154E+00 0.45394541E+03</pdfrwt>
<totfact> 0.82970394E+00</totfact>
</mgrwt>
</event>
<event>
 4    1  0.2202466E-008  0.7293990E+03  0.7818608E-02  0.9668236E-01
         -2   -1    0    0    0  501 -0.00000000000E+00  0.00000000000E+00  0.49069591925E+03  0.49069591926E+03  0.25500000000E-02 0.  1.
          2   -1    0    0  501    0  0.00000000000E+00 -0.00000000000E+00 -0.28622276824E+04  0.28622276824E+04  0.25500000000E-02 0. -1.
    8880022    1    1    2    0    0  0.71204828327E+03 -0.40229688081E+02  0.13555489291E+03  0.74188810984E+03  0.15294330000E+03 0.  0.
    8880022    1    1    2    0    0 -0.71204828327E+03  0.40229688081E+02 -0.25070866561E+04  0.26110354918E+04  0.15294330000E+03 0. -1.
<mgrwt>
<rscale>  0 0.72939896E+03</rscale>
<asrwt>0</asrwt>
<pdfrwt beam="1">  1        2 0.44034271E+00 0.72939896E+03</pdfrwt>
<pdfrwt beam="2">  1       -2 0.75491681E-01 0.72939896E+03</pdfrwt>
<totfact> 0.35564185E+00</totfact>
</mgrwt>
</event>
<event>
 4    1  0.2202466E-008  0.5587002E+03  0.7818608E-02  0.9995000E-01
         -2   -1    0    0    0  501 -0.00000000000E+00  0.00000000000E+00  0.71186224918E+03  0.71186224918E+03  0.25500000000E-02 0.  1.
          2   -1    0    0  501    0  0.00000000000E+00 -0.00000000000E+00 -0.22745895920E+04  0.22745895920E+04  0.25500000000E-02 0. -1.
    8880022    1    1    2    0    0  0.10918284684E+03 -0.52614959982E+03 -0.21229600245E+04  0.21952460486E+04  0.15294330000E+03 0.  0.
    8880022    1    1    2    0    0 -0.10918284684E+03  0.52614959982E+03  0.56023268171E+03  0.79120579251E+03  0.15294330000E+03 0.  0.
<mgrwt>
<rscale>  0 0.55870023E+03</rscale>
<asrwt>0</asrwt>
<pdfrwt beam="1">  1        2 0.34993686E+00 0.55870023E+03</pdfrwt>
<pdfrwt beam="2">  1       -2 0.10951727E+00 0.55870023E+03</pdfrwt>
<totfact> 0.33825893E+00</totfact>
</mgrwt>
</event>
<event>
 4    1  0.2202466E-008  0.2958391E+03  0.7818608E-02  0.1087339E+00
          2   -1    0    0  501    0  0.00000000000E+00  0.00000000000E+00  0.19220520815E+04  0.19220520815E+04  0.25500000000E-02 0. -1.
         -2   -1    0    0    0  501 -0.00000000000E+00 -0.00000000000E+00 -0.88125581645E+02  0.88125581682E+02  0.25500000000E-02 0.  1.
    8880022    1    1    2    0    0 -0.24664808411E+03 -0.57392247388E+02  0.21823256955E+03  0.36762243523E+03  0.15294330000E+03 0.  0.
    8880022    1    1    2    0    0  0.24664808411E+03  0.57392247388E+02  0.16156939303E+04  0.16425552280E+04  0.15294330000E+03 0.  0.
<mgrwt>
<rscale>  0 0.29583915E+03</rscale>
<asrwt>0</asrwt>
<pdfrwt beam="1">  1        2 0.29570032E+00 0.29583915E+03</pdfrwt>
<pdfrwt beam="2">  1       -2 0.13557782E-01 0.29583915E+03</pdfrwt>
<totfact> 0.33016382E+02</totfact>
</mgrwt>
</event>
<event>
 4    1  0.2202466E-008  0.1031179E+04  0.7818608E-02  0.9274994E-01
         -2   -1    0    0    0  501 -0.00000000000E+00  0.00000000000E+00  0.56222599515E+03  0.56222599516E+03  0.25500000000E-02 0.  1.
          2   -1    0    0  501    0  0.00000000000E+00 -0.00000000000E+00 -0.33776206910E+04  0.33776206910E+04  0.25500000000E-02 0. -1.
    8880022    1    1    2    0    0 -0.99966857043E+03 -0.20149754910E+03 -0.27144764848E+04  0.29037411649E+04  0.15294330000E+03 0. -1.
    8880022    1    1    2    0    0  0.99966857043E+03  0.20149754910E+03 -0.10091821109E+03  0.10361055213E+04  0.15294330000E+03 0.  0.
<mgrwt>
<rscale>  0 0.10311790E+04</rscale>
<asrwt>0</asrwt>
<pdfrwt beam="1">  1        2 0.51963394E+00 0.10311790E+04</pdfrwt>
<pdfrwt beam="2">  1       -2 0.86496309E-01 0.10311790E+04</pdfrwt>
<totfact> 0.11725253E+00</totfact>
</mgrwt>
</event>
<event>
 4    1  0.2202466E-008  0.6548668E+03  0.7818608E-02  0.9797690E-01
         -2   -1    0    0    0  501 -0.00000000000E+00  0.00000000000E+00  0.13119151109E+04  0.13119151109E+04  0.25500000000E-02 0.  1.
          2   -1    0    0  501    0  0.00000000000E+00 -0.00000000000E+00 -0.37611202536E+03  0.37611202537E+03  0.25500000000E-02 0. -1.
    8880022    1    1    2    0    0 -0.40752290362E+03 -0.48926881387E+03  0.16256750053E+03  0.67474345825E+03  0.15294330000E+03 0.  0.
    8880022    1    1    2    0    0  0.40752290362E+03  0.48926881387E+03  0.77323558503E+03  0.10132836780E+04  0.15294330000E+03 0.  0.
<mgrwt>
<rscale>  0 0.65486681E+03</rscale>
<asrwt>0</asrwt>
<pdfrwt beam="1">  1        2 0.57863389E-01 0.65486681E+03</pdfrwt>
<pdfrwt beam="2">  1       -2 0.20183309E+00 0.65486681E+03</pdfrwt>
<totfact> 0.11346795E+01</totfact>
</mgrwt>
</event>
<event>
 4    1  0.2202466E-008  0.1046363E+04  0.7818608E-02  0.9259107E-01
         -2   -1    0    0    0  501 -0.00000000000E+00  0.00000000000E+00  0.24564156739E+04  0.24564156739E+04  0.25500000000E-02 0.  1.
          2   -1    0    0  501    0  0.00000000000E+00 -0.00000000000E+00 -0.88365542689E+03  0.88365542690E+03  0.25500000000E-02 0. -1.
    8880022    1    1    2    0    0 -0.47273922827E+03  0.92087034280E+03 -0.38929885048E+03  0.11164362114E+04  0.15294330000E+03 0.  0.
    8880022    1    1    2    0    0  0.47273922827E+03 -0.92087034280E+03  0.19620590975E+04  0.22236348894E+04  0.15294330000E+03 0.  0.
<mgrwt>
<rscale>  0 0.10463633E+04</rscale>
<asrwt>0</asrwt>
<pdfrwt beam="1">  1        2 0.13594699E+00 0.10463633E+04</pdfrwt>
<pdfrwt beam="2">  1       -2 0.37791010E+00 0.10463633E+04</pdfrwt>
<totfact> 0.31310766E-01</totfact>
</mgrwt>
</event>
<event>
 4    1  0.2346325E-008  0.6492760E+03  0.7818608E-02  0.9808139E-01
          2   -1    0    0  501    0  0.00000000000E+00  0.00000000000E+00  0.23063779442E+04  0.23063779442E+04  0.25500000000E-02 0. -1.
         -2   -1    0    0    0  501 -0.00000000000E+00 -0.00000000000E+00 -0.21534200508E+04  0.21534200508E+04  0.25500000000E-02 0.  1.
    8880022    1    1    2    0    0  0.41631896276E+03  0.47417944227E+03 -0.20566862614E+04  0.21567377340E+04  0.15294330000E+03 0.  0.
    8880022    1    1    2    0    0 -0.41631896276E+03 -0.47417944227E+03  0.22096441548E+04  0.23030602611E+04  0.15294330000E+03 0.  0.
<mgrwt>
<rscale>  0 0.64927596E+03</rscale>
<asrwt>0</asrwt>
<pdfrwt beam="1">  1        2 0.35482738E+00 0.64927596E+03</pdfrwt>
<pdfrwt beam="2">  1       -2 0.33129539E+00 0.64927596E+03</pdfrwt>
<totfact> 0.10237365E-01</totfact>
</mgrwt>
</event>
<event>
 4    1  0.2202466E-008  0.6419556E+03  0.7818608E-02  0.9821992E-01
          2   -1    0    0  501    0  0.00000000000E+00  0.00000000000E+00  0.14036932623E+04  0.14036932623E+04  0.25500000000E-02 0. -1.
         -2   -1    0    0    0  501 -0.00000000000E+00 -0.00000000000E+00 -0.13663456521E+04  0.13663456521E+04  0.25500000000E-02 0.  1.
    8880022    1    1    2    0    0  0.28101092953E+03  0.55655026936E+03 -0.12085576202E+04  0.13684730612E+04  0.15294330000E+03 0.  0.
    8880022    1    1    2    0    0 -0.28101092953E+03 -0.55655026936E+03  0.12459052304E+04  0.14015658533E+04  0.15294330000E+03 0.  0.
<mgrwt>
<rscale>  0 0.64195560E+03</rscale>
<asrwt>0</asrwt>
<pdfrwt beam="1">  1        2 0.21595281E+00 0.64195560E+03</pdfrwt>
<pdfrwt beam="2">  1       -2 0.21020702E+00 0.64195560E+03</pdfrwt>
<totfact> 0.17326982E+00</totfact>
</mgrwt>
</event>
<event>
 4    1  0.2202466E-008  0.6386273E+03  0.7818608E-02  0.9828356E-01
         -2   -1    0    0    0  501 -0.00000000000E+00  0.00000000000E+00  0.40850603953E+03  0.40850603953E+03  0.25500000000E-02 0.  1.
          2   -1    0    0  501    0  0.00000000000E+00 -0.00000000000E+00 -0.21575854473E+04  0.21575854473E+04  0.25500000000E-02 0. -1.
    8880022    1    1    2    0    0  0.57833684982E+03  0.22356138539E+03  0.65915405949E+02  0.64202001421E+03  0.15294330000E+03 0.  0.
    8880022    1    1    2    0    0 -0.57833684982E+03 -0.22356138539E+03 -0.18149948137E+04  0.19240714726E+04  0.15294330000E+03 0.  0.
<mgrwt>
<rscale>  0 0.63862732E+03</rscale>
<asrwt>0</asrwt>
<pdfrwt beam="1">  1        2 0.33193622E+00 0.63862732E+03</pdfrwt>
<pdfrwt beam="2">  1       -2 0.62847084E-01 0.63862732E+03</pdfrwt>
<totfact> 0.13543660E+01</totfact>
</mgrwt>
</event>
<event>
 4    1  0.2202466E-008  0.1173000E+04  0.7818608E-02  0.9136823E-01
          2   -1    0    0  501    0  0.00000000000E+00  0.00000000000E+00  0.51066086169E+04  0.51066086169E+04  0.25500000000E-02 0. -1.
         -2   -1    0    0    0  501 -0.00000000000E+00 -0.00000000000E+00 -0.36963508661E+03  0.36963508661E+03  0.25500000000E-02 0.  1.
    8880022    1    1    2    0    0 -0.44363871084E+03 -0.10750456389E+04  0.37940519241E+04  0.39712416305E+04  0.15294330000E+03 0.  0.
    8880022    1    1    2    0    0  0.44363871084E+03  0.10750456389E+04  0.94292160617E+03  0.15050020731E+04  0.15294330000E+03 0.  0.
<mgrwt>
<rscale>  0 0.11730005E+04</rscale>
<asrwt>0</asrwt>
<pdfrwt beam="1">  1        2 0.78563208E+00 0.11730005E+04</pdfrwt>
<pdfrwt beam="2">  1       -2 0.56866938E-01 0.11730005E+04</pdfrwt>
<totfact> 0.77285011E-02</totfact>
</mgrwt>
</event>
<event>
 4    1  0.2202466E-008  0.2353028E+03  0.7818608E-02  0.1122962E+00
         -2   -1    0    0    0  501 -0.00000000000E+00  0.00000000000E+00  0.25190169517E+03  0.25190169518E+03  0.25500000000E-02 0.  1.
          2   -1    0    0  501    0  0.00000000000E+00 -0.00000000000E+00 -0.39153601837E+03  0.39153601838E+03  0.25500000000E-02 0. -1.
    8880022    1    1    2    0    0  0.12257162018E+03  0.13019968291E+03  0.14325379876E+03  0.27547969685E+03  0.15294330000E+03 0.  1.
    8880022    1    1    2    0    0 -0.12257162018E+03 -0.13019968291E+03 -0.28288812196E+03  0.36795801671E+03  0.15294330000E+03 0. -1.
<mgrwt>
<rscale>  0 0.23530281E+03</rscale>
<asrwt>0</asrwt>
<pdfrwt beam="1">  1        2 0.60236310E-01 0.23530281E+03</pdfrwt>
<pdfrwt beam="2">  1       -2 0.38754107E-01 0.23530281E+03</pdfrwt>
<totfact> 0.52017551E+02</totfact>
</mgrwt>
</event>
<event>
 4    1  0.2567324E-008  0.1157202E+04  0.7818608E-02  0.9151165E-01
          2   -1    0    0  501    0  0.00000000000E+00  0.00000000000E+00  0.34286610874E+04  0.34286610874E+04  0.25500000000E-02 0. -1.
         -2   -1    0    0    0  501 -0.00000000000E+00 -0.00000000000E+00 -0.89713132317E+03  0.89713132317E+03  0.25500000000E-02 0.  1.
    8880022    1    1    2    0    0  0.10655020593E+04  0.42477104741E+03  0.28910352266E+04  0.31140329824E+04  0.15294330000E+03 0.  0.
    8880022    1    1    2    0    0 -0.10655020593E+04 -0.42477104741E+03 -0.35950546239E+03  0.12117594281E+04  0.15294330000E+03 0.  0.
<mgrwt>
<rscale>  0 0.11572021E+04</rscale>
<asrwt>0</asrwt>
<pdfrwt beam="1">  1        2 0.52748633E+00 0.11572021E+04</pdfrwt>
<pdfrwt beam="2">  1       -2 0.13802020E+00 0.11572021E+04</pdfrwt>
<totfact> 0.33994811E-01</totfact>
</mgrwt>
</event>
<event>
 4    1  0.2202466E-008  0.7308030E+03  0.7818608E-02  0.9665958E-01
         -2   -1    0    0    0  501 -0.00000000000E+00  0.00000000000E+00  0.46915681388E+03  0.46915681389E+03  0.25500000000E-02 0.  1.
          2   -1    0    0  501    0  0.00000000000E+00 -0.00000000000E+00 -0.13334637440E+04  0.13334637440E+04  0.25500000000E-02 0. -1.
    8880022    1    1    2    0    0 -0.10199225064E+03 -0.70730405018E+03 -0.77690614022E+03  0.10666096954E+04  0.15294330000E+03 0.  0.
    8880022    1    1    2    0    0  0.10199225064E+03  0.70730405018E+03 -0.87400789886E+02  0.73601086248E+03  0.15294330000E+03 0.  0.
<mgrwt>
<rscale>  0 0.73080305E+03</rscale>
<asrwt>0</asrwt>
<pdfrwt beam="1">  1        2 0.20514827E+00 0.73080305E+03</pdfrwt>
<pdfrwt beam="2">  1       -2 0.72177972E-01 0.73080305E+03</pdfrwt>
<totfact> 0.28102006E+01</totfact>
</mgrwt>
</event>
<event>
 4    1  0.2202466E-008  0.9049422E+03  0.7818608E-02  0.9419424E-01
         -2   -1    0    0    0  501 -0.00000000000E+00  0.00000000000E+00  0.66239999430E+03  0.66239999430E+03  0.25500000000E-02 0.  1.
          2   -1    0    0  501    0  0.00000000000E+00 -0.00000000000E+00 -0.13324810915E+04  0.13324810915E+04  0.25500000000E-02 0. -1.
    8880022    1    1    2    0    0  0.30250413284E+03  0.83905901021E+03 -0.60302976217E+03  0.10874581923E+04  0.15294330000E+03 0.  0.
    8880022    1    1    2    0    0 -0.30250413284E+03 -0.83905901021E+03 -0.67051335004E+02  0.90742289344E+03  0.15294330000E+03 0.  0.
<mgrwt>
<rscale>  0 0.90494222E+03</rscale>
<asrwt>0</asrwt>
<pdfrwt beam="1">  1        2 0.20499709E+00 0.90494222E+03</pdfrwt>
<pdfrwt beam="2">  1       -2 0.10190769E+00 0.90494222E+03</pdfrwt>
<totfact> 0.12544583E+01</totfact>
</mgrwt>
</event>
<event>
 4    1  0.2202466E-008  0.9385669E+03  0.7818608E-02  0.9378615E-01
         -2   -1    0    0    0  501 -0.00000000000E+00  0.00000000000E+00  0.10660346354E+04  0.10660346354E+04  0.25500000000E-02 0.  1.
          2   -1    0    0  501    0  0.00000000000E+00 -0.00000000000E+00 -0.10193044547E+04  0.10193044547E+04  0.25500000000E-02 0. -1.
    8880022    1    1    2    0    0  0.92055513417E+03 -0.10047121895E+03  0.47702721996E+03  0.10528356199E+04  0.15294330000E+03 0.  0.
    8880022    1    1    2    0    0 -0.92055513417E+03  0.10047121895E+03 -0.43029703924E+03  0.10325034702E+04  0.15294330000E+03 0. -1.
<mgrwt>
<rscale>  0 0.93856693E+03</rscale>
<asrwt>0</asrwt>
<pdfrwt beam="1">  1        2 0.15681607E+00 0.93856693E+03</pdfrwt>
<pdfrwt beam="2">  1       -2 0.16400533E+00 0.93856693E+03</pdfrwt>
<totfact> 0.57478254E+00</totfact>
</mgrwt>
</event>
<event>
 4    1  0.2202466E-008  0.1229791E+04  0.7818608E-02  0.9087173E-01
          2   -1    0    0  501    0  0.00000000000E+00  0.00000000000E+00  0.86578927587E+03  0.86578927587E+03  0.25500000000E-02 0. -1.
         -2   -1    0    0    0  501 -0.00000000000E+00 -0.00000000000E+00 -0.24273491306E+04  0.24273491307E+04  0.25500000000E-02 0.  1.
    8880022    1    1    2    0    0  0.56386028215E+02 -0.12189404918E+04  0.91054333350E+02  0.12331576749E+04  0.15294330000E+03 0.  0.
    8880022    1    1    2    0    0 -0.56386028215E+02  0.12189404918E+04 -0.16526141881E+04  0.20599807316E+04  0.15294330000E+03 0.  0.
<mgrwt>
<rscale>  0 0.12297914E+04</rscale>
<asrwt>0</asrwt>
<pdfrwt beam="1">  1        2 0.13319835E+00 0.12297914E+04</pdfrwt>
<pdfrwt beam="2">  1       -2 0.37343832E+00 0.12297914E+04</pdfrwt>
<totfact> 0.33545625E-01</totfact>
</mgrwt>
</event>
<event>
 4    1  0.2202466E-008  0.6779878E+03  0.7818608E-02  0.9755634E-01
         -2   -1    0    0    0  501 -0.00000000000E+00  0.00000000000E+00  0.40568501221E+03  0.40568501221E+03  0.25500000000E-02 0.  1.
          2   -1    0    0  501    0  0.00000000000E+00 -0.00000000000E+00 -0.17167424947E+04  0.17167424947E+04  0.25500000000E-02 0. -1.
    8880022    1    1    2    0    0  0.21163995444E+03  0.62568713170E+03 -0.36748061358E+02  0.67898301165E+03  0.15294330000E+03 0.  0.
    8880022    1    1    2    0    0 -0.21163995444E+03 -0.62568713170E+03 -0.12743094211E+04  0.14434444952E+04  0.15294330000E+03 0. -1.
<mgrwt>
<rscale>  0 0.67798784E+03</rscale>
<asrwt>0</asrwt>
<pdfrwt beam="1">  1        2 0.26411423E+00 0.67798784E+03</pdfrwt>
<pdfrwt beam="2">  1       -2 0.62413080E-01 0.67798784E+03</pdfrwt>
<totfact> 0.23721952E+01</totfact>
</mgrwt>
</event>
<event>
 4    1  0.2202466E-008  0.1322698E+04  0.7818608E-02  0.9011756E-01
         -2   -1    0    0    0  501 -0.00000000000E+00  0.00000000000E+00  0.10995953695E+04  0.10995953695E+04  0.25500000000E-02 0.  1.
          2   -1    0    0  501    0  0.00000000000E+00 -0.00000000000E+00 -0.24478756132E+04  0.24478756132E+04  0.25500000000E-02 0. -1.
    8880022    1    1    2    0    0 -0.76007638550E+03 -0.10716449427E+04  0.37524746817E+03  0.13748968363E+04  0.15294330000E+03 0.  0.
    8880022    1    1    2    0    0  0.76007638550E+03  0.10716449427E+04 -0.17235277119E+04  0.21725741464E+04  0.15294330000E+03 0.  0.
<mgrwt>
<rscale>  0 0.13226982E+04</rscale>
<asrwt>0</asrwt>
<pdfrwt beam="1">  1        2 0.37659625E+00 0.13226982E+04</pdfrwt>
<pdfrwt beam="2">  1       -2 0.16916852E+00 0.13226982E+04</pdfrwt>
<totfact> 0.77482354E-01</totfact>
</mgrwt>
</event>
<event>
 4    1  0.2202466E-008  0.1080426E+04  0.7818608E-02  0.9224483E-01
         -2   -1    0    0    0  501 -0.00000000000E+00  0.00000000000E+00  0.13514886442E+04  0.13514886442E+04  0.25500000000E-02 0.  1.
          2   -1    0    0  501    0  0.00000000000E+00 -0.00000000000E+00 -0.15194104039E+04  0.15194104039E+04  0.25500000000E-02 0. -1.
    8880022    1    1    2    0    0 -0.66337769031E+02  0.10674869880E+04 -0.10269280952E+04  0.14906046206E+04  0.15294330000E+03 0.  0.
    8880022    1    1    2    0    0  0.66337769031E+02 -0.10674869880E+04  0.85900633555E+03  0.13802944275E+04  0.15294330000E+03 0.  0.
<mgrwt>
<rscale>  0 0.10804262E+04</rscale>
<asrwt>0</asrwt>
<pdfrwt beam="1">  1        2 0.23375545E+00 0.10804262E+04</pdfrwt>
<pdfrwt beam="2">  1       -2 0.20792133E+00 0.10804262E+04</pdfrwt>
<totfact> 0.14382029E+00</totfact>
</mgrwt>
</event>
<event>
 4    1  0.2202466E-008  0.1206070E+04  0.7818608E-02  0.9107560E-01
         -2   -1    0    0    0  501 -0.00000000000E+00  0.00000000000E+00  0.81913733595E+03  0.81913733595E+03  0.25500000000E-02 0.  1.
          2   -1    0    0  501    0  0.00000000000E+00 -0.00000000000E+00 -0.26260648284E+04  0.26260648284E+04  0.25500000000E-02 0. -1.
    8880022    1    1    2    0    0 -0.11572100906E+04  0.30344269002E+03 -0.18836650248E+04  0.22366935952E+04  0.15294330000E+03 0.  0.
    8880022    1    1    2    0    0  0.11572100906E+04 -0.30344269002E+03  0.76737532324E+02  0.12085085692E+04  0.15294330000E+03 0.  0.
<mgrwt>
<rscale>  0 0.12060698E+04</rscale>
<asrwt>0</asrwt>
<pdfrwt beam="1">  1        2 0.40400997E+00 0.12060698E+04</pdfrwt>
<pdfrwt beam="2">  1       -2 0.12602113E+00 0.12060698E+04</pdfrwt>
<totfact> 0.13535801E+00</totfact>
</mgrwt>
</event>
<event>
 4    1  0.2202466E-008  0.1198327E+04  0.7818608E-02  0.9114322E-01
         -2   -1    0    0    0  501 -0.00000000000E+00  0.00000000000E+00  0.14703013041E+04  0.14703013041E+04  0.25500000000E-02 0.  1.
          2   -1    0    0  501    0  0.00000000000E+00 -0.00000000000E+00 -0.10110233914E+04  0.10110233915E+04  0.25500000000E-02 0. -1.
    8880022    1    1    2    0    0 -0.10385455827E+04 -0.57794448324E+03  0.45835893407E+03  0.12829970064E+04  0.15294330000E+03 0.  0.
    8880022    1    1    2    0    0  0.10385455827E+04  0.57794448324E+03  0.91897859264E+00  0.11983276891E+04  0.15294330000E+03 0.  0.
<mgrwt>
<rscale>  0 0.11983273E+04</rscale>
<asrwt>0</asrwt>
<pdfrwt beam="1">  1        2 0.15554206E+00 0.11983273E+04</pdfrwt>
<pdfrwt beam="2">  1       -2 0.22620020E+00 0.11983273E+04</pdfrwt>
<totfact> 0.21781374E+00</totfact>
</mgrwt>
</event>
<event>
 4    1  0.2202466E-008  0.6559703E+03  0.7818608E-02  0.9795640E-01
         -2   -1    0    0    0  501 -0.00000000000E+00  0.00000000000E+00  0.15596144231E+03  0.15596144233E+03  0.25500000000E-02 0.  1.
          2   -1    0    0  501    0  0.00000000000E+00 -0.00000000000E+00 -0.33159534629E+04  0.33159534629E+04  0.25500000000E-02 0. -1.
    8880022    1    1    2    0    0 -0.53092204040E+02 -0.63567803262E+03 -0.22914484534E+04  0.23834917686E+04  0.15294330000E+03 0.  0.
    8880022    1    1    2    0    0  0.53092204040E+02  0.63567803262E+03 -0.86854356722E+03  0.10884231367E+04  0.15294330000E+03 0.  0.
<mgrwt>
<rscale>  0 0.65597027E+03</rscale>
<asrwt>0</asrwt>
<pdfrwt beam="1">  1        2 0.51014663E+00 0.65597027E+03</pdfrwt>
<pdfrwt beam="2">  1       -2 0.23994070E-01 0.65597027E+03</pdfrwt>
<totfact> 0.18276094E+01</totfact>
</mgrwt>
</event>
<event>
 4    1  0.2202466E-008  0.8199384E+03  0.7818608E-02  0.9531597E-01
          2   -1    0    0  501    0  0.00000000000E+00  0.00000000000E+00  0.20352924762E+04  0.20352924762E+04  0.25500000000E-02 0. -1.
         -2   -1    0    0    0  501 -0.00000000000E+00 -0.00000000000E+00 -0.68753526380E+03  0.68753526380E+03  0.25500000000E-02 0.  1.
    8880022    1    1    2    0    0  0.40295561418E+03  0.69751996228E+03  0.16551911204E+04  0.18471482406E+04  0.15294330000E+03 0.  0.
    8880022    1    1    2    0    0 -0.40295561418E+03 -0.69751996228E+03 -0.30743390802E+03  0.87567949935E+03  0.15294330000E+03 0.  1.
<mgrwt>
<rscale>  0 0.81993840E+03</rscale>
<asrwt>0</asrwt>
<pdfrwt beam="1">  1        2 0.31312192E+00 0.81993840E+03</pdfrwt>
<pdfrwt beam="2">  1       -2 0.10577466E+00 0.81993840E+03</pdfrwt>
<totfact> 0.47293968E+00</totfact>
</mgrwt>
</event>
<event>
 4    1  0.2202466E-008  0.1018985E+04  0.7818608E-02  0.9287964E-01
         -2   -1    0    0    0  501 -0.00000000000E+00  0.00000000000E+00  0.11811833827E+04  0.11811833827E+04  0.25500000000E-02 0.  1.
          2   -1    0    0  501    0  0.00000000000E+00 -0.00000000000E+00 -0.21420626028E+04  0.21420626028E+04  0.25500000000E-02 0. -1.
    8880022    1    1    2    0    0 -0.98244840853E+03 -0.22300924259E+03 -0.17563457933E+04  0.20305369231E+04  0.15294330000E+03 0.  0.
    8880022    1    1    2    0    0  0.98244840853E+03  0.22300924259E+03  0.79546657323E+03  0.12927090623E+04  0.15294330000E+03 0.  0.
<mgrwt>
<rscale>  0 0.10189846E+04</rscale>
<asrwt>0</asrwt>
<pdfrwt beam="1">  1        2 0.32954809E+00 0.10189846E+04</pdfrwt>
<pdfrwt beam="2">  1       -2 0.18172052E+00 0.10189846E+04</pdfrwt>
<totfact> 0.97901565E-01</totfact>
</mgrwt>
</event>
<event>
 4    1  0.2202466E-008  0.6270462E+03  0.7818608E-02  0.9850830E-01
         -2   -1    0    0    0  501 -0.00000000000E+00  0.00000000000E+00  0.85049464671E+03  0.85049464671E+03  0.25500000000E-02 0.  1.
          2   -1    0    0  501    0  0.00000000000E+00 -0.00000000000E+00 -0.13144782564E+04  0.13144782564E+04  0.25500000000E-02 0. -1.
    8880022    1    1    2    0    0 -0.92715867687E+02  0.60099840033E+03  0.63959371348E+03  0.89569363102E+03  0.15294330000E+03 0.  0.
    8880022    1    1    2    0    0  0.92715867687E+02 -0.60099840033E+03 -0.11035773232E+04  0.12692792721E+04  0.15294330000E+03 0.  0.
<mgrwt>
<rscale>  0 0.62704622E+03</rscale>
<asrwt>0</asrwt>
<pdfrwt beam="1">  1        2 0.20222742E+00 0.62704622E+03</pdfrwt>
<pdfrwt beam="2">  1       -2 0.13084533E+00 0.62704622E+03</pdfrwt>
<totfact> 0.72117673E+00</totfact>
</mgrwt>
</event>
<event>
 4    1  0.2202466E-008  0.1106002E+04  0.7818608E-02  0.9199362E-01
          2   -1    0    0  501    0  0.00000000000E+00  0.00000000000E+00  0.12303580600E+04  0.12303580600E+04  0.25500000000E-02 0. -1.
         -2   -1    0    0    0  501 -0.00000000000E+00 -0.00000000000E+00 -0.12517557020E+04  0.12517557020E+04  0.25500000000E-02 0.  1.
    8880022    1    1    2    0    0  0.34867571791E+03 -0.10383995342E+04 -0.57362978103E+03  0.12459097590E+04  0.15294330000E+03 0.  0.
    8880022    1    1    2    0    0 -0.34867571791E+03  0.10383995342E+04  0.55223213898E+03  0.12362040030E+04  0.15294330000E+03 0.  0.
<mgrwt>
<rscale>  0 0.11060018E+04</rscale>
<asrwt>0</asrwt>
<pdfrwt beam="1">  1        2 0.18928585E+00 0.11060018E+04</pdfrwt>
<pdfrwt beam="2">  1       -2 0.19257780E+00 0.11060018E+04</pdfrwt>
<totfact> 0.26528733E+00</totfact>
</mgrwt>
</event>
<event>
 4    1  0.2202466E-008  0.1546878E+04  0.7818608E-02  0.8853864E-01
         -2   -1    0    0    0  501 -0.00000000000E+00  0.00000000000E+00  0.20410470317E+04  0.20410470317E+04  0.25500000000E-02 0.  1.
          2   -1    0    0  501    0  0.00000000000E+00 -0.00000000000E+00 -0.23756505371E+04  0.23756505371E+04  0.25500000000E-02 0. -1.
    8880022    1    1    2    0    0  0.90111900470E+03  0.12479682148E+04  0.14043724841E+04  0.20892807023E+04  0.15294330000E+03 0.  0.
    8880022    1    1    2    0    0 -0.90111900470E+03 -0.12479682148E+04 -0.17389759895E+04  0.23274168666E+04  0.15294330000E+03 0.  0.
<mgrwt>
<rscale>  0 0.15468781E+04</rscale>
<asrwt>0</asrwt>
<pdfrwt beam="1">  1        2 0.36548470E+00 0.15468781E+04</pdfrwt>
<pdfrwt beam="2">  1       -2 0.31400724E+00 0.15468781E+04</pdfrwt>
<totfact> 0.99809577E-02</totfact>
</mgrwt>
</event>
<event>
 4    1  0.2202466E-008  0.5047828E+03  0.7818608E-02  0.1012538E+00
          2   -1    0    0  501    0  0.00000000000E+00  0.00000000000E+00  0.29575865699E+04  0.29575865699E+04  0.25500000000E-02 0. -1.
         -2   -1    0    0    0  501 -0.00000000000E+00 -0.00000000000E+00 -0.73064005157E+03  0.73064005157E+03  0.25500000000E-02 0.  1.
    8880022    1    1    2    0    0  0.28736742884E+03  0.38579004170E+03  0.28454533050E+04  0.28898806479E+04  0.15294330000E+03 0.  0.
    8880022    1    1    2    0    0 -0.28736742884E+03 -0.38579004170E+03 -0.61850678661E+03  0.79834597358E+03  0.15294330000E+03 0.  0.
<mgrwt>
<rscale>  0 0.50478277E+03</rscale>
<asrwt>0</asrwt>
<pdfrwt beam="1">  1        2 0.45501331E+00 0.50478277E+03</pdfrwt>
<pdfrwt beam="2">  1       -2 0.11240616E+00 0.50478277E+03</pdfrwt>
<totfact> 0.13145085E+00</totfact>
</mgrwt>
</event>
<event>
 4    1  0.2202466E-008  0.7233739E+03  0.7818608E-02  0.9678074E-01
          2   -1    0    0  501    0  0.00000000000E+00  0.00000000000E+00  0.19921752842E+04  0.19921752842E+04  0.25500000000E-02 0. -1.
         -2   -1    0    0    0  501 -0.00000000000E+00 -0.00000000000E+00 -0.86610941720E+03  0.86610941720E+03  0.25500000000E-02 0.  1.
    8880022    1    1    2    0    0  0.64566659696E+03  0.28808462165E+03  0.17559455790E+04  0.18991089050E+04  0.15294330000E+03 0.  0.
    8880022    1    1    2    0    0 -0.64566659696E+03 -0.28808462165E+03 -0.62987971204E+03  0.95917579635E+03  0.15294330000E+03 0.  0.
<mgrwt>
<rscale>  0 0.72337387E+03</rscale>
<asrwt>0</asrwt>
<pdfrwt beam="1">  1        2 0.30648850E+00 0.72337387E+03</pdfrwt>
<pdfrwt beam="2">  1       -2 0.13324761E+00 0.72337387E+03</pdfrwt>
<totfact> 0.28675651E+00</totfact>
</mgrwt>
</event>
<event>
 4    1  0.2202466E-008  0.4254317E+03  0.7818608E-02  0.1035313E+00
         -2   -1    0    0    0  501 -0.00000000000E+00  0.00000000000E+00  0.37772267406E+03  0.37772267407E+03  0.25500000000E-02 0.  1.
          2   -1    0    0  501    0  0.00000000000E+00 -0.00000000000E+00 -0.11156692844E+04  0.11156692844E+04  0.25500000000E-02 0. -1.
    8880022    1    1    2    0    0  0.24652649361E+03  0.31116737161E+03 -0.93296951613E+03  0.10253897875E+04  0.15294330000E+03 0.  0.
    8880022    1    1    2    0    0 -0.24652649361E+03 -0.31116737161E+03  0.19502290583E+03  0.46800217096E+03  0.15294330000E+03 0.  0.
<mgrwt>
<rscale>  0 0.42543166E+03</rscale>
<asrwt>0</asrwt>
<pdfrwt beam="1">  1        2 0.17164143E+00 0.42543166E+03</pdfrwt>
<pdfrwt beam="2">  1       -2 0.58111181E-01 0.42543166E+03</pdfrwt>
<totfact> 0.62274246E+01</totfact>
</mgrwt>
</event>
<event>
 4    1  0.2202466E-008  0.1924590E+04  0.7818608E-02  0.8642712E-01
          2   -1    0    0  501    0  0.00000000000E+00  0.00000000000E+00  0.24257795383E+04  0.24257795383E+04  0.25500000000E-02 0. -1.
         -2   -1    0    0    0  501 -0.00000000000E+00 -0.00000000000E+00 -0.17887206376E+04  0.17887206376E+04  0.25500000000E-02 0.  1.
    8880022    1    1    2    0    0 -0.12954029426E+04 -0.14151274612E+04 -0.48759959319E+03  0.19853965678E+04  0.15294330000E+03 0.  0.
    8880022    1    1    2    0    0  0.12954029426E+04  0.14151274612E+04  0.11246584939E+04  0.22291036082E+04  0.15294330000E+03 0.  0.
<mgrwt>
<rscale>  0 0.19245899E+04</rscale>
<asrwt>0</asrwt>
<pdfrwt beam="1">  1        2 0.37319685E+00 0.19245899E+04</pdfrwt>
<pdfrwt beam="2">  1       -2 0.27518779E+00 0.19245899E+04</pdfrwt>
<totfact> 0.15493371E-01</totfact>
</mgrwt>
</event>
<event>
 4    1  0.2202466E-008  0.3525378E+03  0.7818608E-02  0.1061578E+00
         -2   -1    0    0    0  501 -0.00000000000E+00  0.00000000000E+00  0.22036192672E+03  0.22036192673E+03  0.25500000000E-02 0.  1.
          2   -1    0    0  501    0  0.00000000000E+00 -0.00000000000E+00 -0.13185763249E+04  0.13185763249E+04  0.25500000000E-02 0. -1.
    8880022    1    1    2    0    0 -0.30618500938E+03  0.84510117986E+02 -0.11311994083E+04  0.11848607405E+04  0.15294330000E+03 0.  0.
    8880022    1    1    2    0    0  0.30618500938E+03 -0.84510117986E+02  0.32985010094E+02  0.35407751117E+03  0.15294330000E+03 0.  1.
<mgrwt>
<rscale>  0 0.35253776E+03</rscale>
<asrwt>0</asrwt>
<pdfrwt beam="1">  1        2 0.20285789E+00 0.35253776E+03</pdfrwt>
<pdfrwt beam="2">  1       -2 0.33901836E-01 0.35253776E+03</pdfrwt>
<totfact> 0.13919650E+02</totfact>
</mgrwt>
</event>
<event>
 4    1  0.2202466E-008  0.5021689E+03  0.7818608E-02  0.1013214E+00
         -2   -1    0    0    0  501 -0.00000000000E+00  0.00000000000E+00  0.32708883084E+03  0.32708883085E+03  0.25500000000E-02 0.  1.
          2   -1    0    0  501    0  0.00000000000E+00 -0.00000000000E+00 -0.80815112183E+03  0.80815112183E+03  0.25500000000E-02 0. -1.
    8880022    1    1    2    0    0  0.39501843446E+03  0.26970799488E+03 -0.36229246565E+03  0.61921680351E+03  0.15294330000E+03 0.  0.
    8880022    1    1    2    0    0 -0.39501843446E+03 -0.26970799488E+03 -0.11876982534E+03  0.51602314918E+03  0.15294330000E+03 0.  1.
<mgrwt>
<rscale>  0 0.50216891E+03</rscale>
<asrwt>0</asrwt>
<pdfrwt beam="1">  1        2 0.12433094E+00 0.50216891E+03</pdfrwt>
<pdfrwt beam="2">  1       -2 0.50321359E-01 0.50216891E+03</pdfrwt>
<totfact> 0.13074989E+02</totfact>
</mgrwt>
</event>
<event>
 4    1  0.2202466E-008  0.3074286E+03  0.7818608E-02  0.1081585E+00
         -2   -1    0    0    0  501 -0.00000000000E+00  0.00000000000E+00  0.47169684863E+03  0.47169684864E+03  0.25500000000E-02 0.  1.
          2   -1    0    0  501    0  0.00000000000E+00 -0.00000000000E+00 -0.25520957565E+04  0.25520957565E+04  0.25500000000E-02 0. -1.
    8880022    1    1    2    0    0 -0.20156252552E+03 -0.17462306294E+03  0.41113387649E+03  0.51336476624E+03  0.15294330000E+03 0.  0.
    8880022    1    1    2    0    0  0.20156252552E+03  0.17462306294E+03 -0.24915327844E+04  0.25104278389E+04  0.15294330000E+03 0.  0.
<mgrwt>
<rscale>  0 0.30742856E+03</rscale>
<asrwt>0</asrwt>
<pdfrwt beam="1">  1        2 0.39263011E+00 0.30742856E+03</pdfrwt>
<pdfrwt beam="2">  1       -2 0.72568748E-01 0.30742856E+03</pdfrwt>
<totfact> 0.66238415E+00</totfact>
</mgrwt>
</event>
<event>
 4    1  0.2202466E-008  0.8258149E+03  0.7818608E-02  0.9523385E-01
         -2   -1    0    0    0  501 -0.00000000000E+00  0.00000000000E+00  0.18193132603E+04  0.18193132603E+04  0.25500000000E-02 0.  1.
          2   -1    0    0  501    0  0.00000000000E+00 -0.00000000000E+00 -0.90182536739E+03  0.90182536739E+03  0.25500000000E-02 0. -1.
    8880022    1    1    2    0    0  0.80560152796E+03  0.97901883451E+02  0.14987945062E+04  0.17112437657E+04  0.15294330000E+03 0.  1.
    8880022    1    1    2    0    0 -0.80560152796E+03 -0.97901883451E+02 -0.58130661331E+03  0.10098948620E+04  0.15294330000E+03 0.  0.
<mgrwt>
<rscale>  0 0.82581490E+03</rscale>
<asrwt>0</asrwt>
<pdfrwt beam="1">  1        2 0.13874237E+00 0.82581490E+03</pdfrwt>
<pdfrwt beam="2">  1       -2 0.27989434E+00 0.82581490E+03</pdfrwt>
<totfact> 0.12661532E+00</totfact>
</mgrwt>
</event>
<event>
 4    1  0.2202466E-008  0.1243053E+04  0.7818608E-02  0.9075985E-01
          2   -1    0    0  501    0  0.00000000000E+00  0.00000000000E+00  0.33908660039E+04  0.33908660039E+04  0.25500000000E-02 0. -1.
         -2   -1    0    0    0  501 -0.00000000000E+00 -0.00000000000E+00 -0.52833524059E+03  0.52833524060E+03  0.25500000000E-02 0.  1.
    8880022    1    1    2    0    0  0.36191424978E+03 -0.11793250553E+04  0.70462651440E+03  0.14288735731E+04  0.15294330000E+03 0.  0.
    8880022    1    1    2    0    0 -0.36191424978E+03  0.11793250553E+04  0.21579042489E+04  0.24903276713E+04  0.15294330000E+03 0.  0.
<mgrwt>
<rscale>  0 0.12430532E+04</rscale>
<asrwt>0</asrwt>
<pdfrwt beam="1">  1        2 0.52167168E+00 0.12430532E+04</pdfrwt>
<pdfrwt beam="2">  1       -2 0.81282346E-01 0.12430532E+04</pdfrwt>
<totfact> 0.12833438E+00</totfact>
</mgrwt>
</event>
<event>
 4    1  0.2202466E-008  0.3852357E+03  0.7818608E-02  0.1049015E+00
          2   -1    0    0  501    0  0.00000000000E+00  0.00000000000E+00  0.60184225435E+03  0.60184225436E+03  0.25500000000E-02 0. -1.
         -2   -1    0    0    0  501 -0.00000000000E+00 -0.00000000000E+00 -0.57965066582E+03  0.57965066582E+03  0.25500000000E-02 0.  1.
    8880022    1    1    2    0    0  0.28208740083E+03  0.21317028865E+03 -0.43670156930E+03  0.58233563116E+03  0.15294330000E+03 0.  0.
    8880022    1    1    2    0    0 -0.28208740083E+03 -0.21317028865E+03  0.45889315783E+03  0.59915728903E+03  0.15294330000E+03 0.  0.
<mgrwt>
<rscale>  0 0.38523568E+03</rscale>
<asrwt>0</asrwt>
<pdfrwt beam="1">  1        2 0.92591116E-01 0.38523568E+03</pdfrwt>
<pdfrwt beam="2">  1       -2 0.89177026E-01 0.38523568E+03</pdfrwt>
<totfact> 0.55874196E+01</totfact>
</mgrwt>
</event>
<event>
 4    1  0.2202466E-008  0.3082775E+03  0.7818608E-02  0.1081174E+00
         -2   -1    0    0    0  501 -0.00000000000E+00  0.00000000000E+00  0.52312878515E+03  0.52312878516E+03  0.25500000000E-02 0.  1.
          2   -1    0    0  501    0  0.00000000000E+00 -0.00000000000E+00 -0.11494216837E+04  0.11494216837E+04  0.25500000000E-02 0. -1.
    8880022    1    1    2    0    0  0.24712013832E+03 -0.10283493907E+03  0.45420137853E+03  0.54893891530E+03  0.15294330000E+03 0.  0.
    8880022    1    1    2    0    0 -0.24712013832E+03  0.10283493907E+03 -0.10804942771E+04  0.11236115535E+04  0.15294330000E+03 0. -1.
<mgrwt>
<rscale>  0 0.30827754E+03</rscale>
<asrwt>0</asrwt>
<pdfrwt beam="1">  1        2 0.17683411E+00 0.30827754E+03</pdfrwt>
<pdfrwt beam="2">  1       -2 0.80481351E-01 0.30827754E+03</pdfrwt>
<totfact> 0.30235136E+01</totfact>
</mgrwt>
</event>
<event>
 4    1  0.2202466E-008  0.4198734E+03  0.7818608E-02  0.1037108E+00
          2   -1    0    0  501    0  0.00000000000E+00  0.00000000000E+00  0.41689515377E+04  0.41689515377E+04  0.25500000000E-02 0. -1.
         -2   -1    0    0    0  501 -0.00000000000E+00 -0.00000000000E+00 -0.65217408833E+02  0.65217408883E+02  0.25500000000E-02 0.  1.
    8880022    1    1    2    0    0 -0.15179843900E+03 -0.36035988023E+03  0.79653225768E+03  0.90042062388E+03  0.15294330000E+03 0.  1.
    8880022    1    1    2    0    0  0.15179843900E+03  0.36035988023E+03  0.33072018712E+04  0.33337483227E+04  0.15294330000E+03 0.  0.
<mgrwt>
<rscale>  0 0.41987339E+03</rscale>
<asrwt>0</asrwt>
<pdfrwt beam="1">  1        2 0.64137732E+00 0.41987339E+03</pdfrwt>
<pdfrwt beam="2">  1       -2 0.10033445E-01 0.41987339E+03</pdfrwt>
<totfact> 0.20402200E+01</totfact>
</mgrwt>
</event>
<event>
 4    1  0.2202466E-008  0.1122248E+04  0.7818608E-02  0.9183775E-01
         -2   -1    0    0    0  501 -0.00000000000E+00  0.00000000000E+00  0.11239414345E+04  0.11239414345E+04  0.25500000000E-02 0.  1.
          2   -1    0    0  501    0  0.00000000000E+00 -0.00000000000E+00 -0.20003503194E+04  0.20003503194E+04  0.25500000000E-02 0. -1.
    8880022    1    1    2    0    0  0.68946721489E+03  0.87217153206E+03  0.59779378296E+03  0.12715334371E+04  0.15294330000E+03 0.  0.
    8880022    1    1    2    0    0 -0.68946721489E+03 -0.87217153206E+03 -0.14742026678E+04  0.18527583168E+04  0.15294330000E+03 0.  0.
<mgrwt>
<rscale>  0 0.11222477E+04</rscale>
<asrwt>0</asrwt>
<pdfrwt beam="1">  1        2 0.30774620E+00 0.11222477E+04</pdfrwt>
<pdfrwt beam="2">  1       -2 0.17291407E+00 0.11222477E+04</pdfrwt>
<totfact> 0.13319022E+00</totfact>
</mgrwt>
</event>
<event>
 4    1  0.2202466E-008  0.3247892E+03  0.7818608E-02  0.1073466E+00
          2   -1    0    0  501    0  0.00000000000E+00  0.00000000000E+00  0.39150471675E+03  0.39150471676E+03  0.25500000000E-02 0. -1.
         -2   -1    0    0    0  501 -0.00000000000E+00 -0.00000000000E+00 -0.88729638534E+03  0.88729638535E+03  0.25500000000E-02 0.  1.
    8880022    1    1    2    0    0  0.26812115252E+03 -0.10103174631E+03  0.28566203862E+03  0.43253996291E+03  0.15294330000E+03 0.  0.
    8880022    1    1    2    0    0 -0.26812115252E+03  0.10103174631E+03 -0.78145370721E+03  0.84626113920E+03  0.15294330000E+03 0.  1.
<mgrwt>
<rscale>  0 0.32478919E+03</rscale>
<asrwt>0</asrwt>
<pdfrwt beam="1">  1        2 0.60231495E-01 0.32478919E+03</pdfrwt>
<pdfrwt beam="2">  1       -2 0.13650714E+00 0.32478919E+03</pdfrwt>
<totfact> 0.33053573E+01</totfact>
</mgrwt>
</event>
<event>
 4    1  0.2202466E-008  0.1097650E+04  0.7818608E-02  0.9207485E-01
          2   -1    0    0  501    0  0.00000000000E+00  0.00000000000E+00  0.10230560032E+04  0.10230560032E+04  0.25500000000E-02 0. -1.
         -2   -1    0    0    0  501 -0.00000000000E+00 -0.00000000000E+00 -0.21161106759E+04  0.21161106759E+04  0.25500000000E-02 0.  1.
    8880022    1    1    2    0    0 -0.22726317129E+03  0.10629182420E+04 -0.15917664580E+04  0.19335345479E+04  0.15294330000E+03 0.  0.
    8880022    1    1    2    0    0  0.22726317129E+03 -0.10629182420E+04  0.49871178526E+03  0.12056321312E+04  0.15294330000E+03 0.  0.
<mgrwt>
<rscale>  0 0.10976499E+04</rscale>
<asrwt>0</asrwt>
<pdfrwt beam="1">  1        2 0.15739323E+00 0.10976499E+04</pdfrwt>
<pdfrwt beam="2">  1       -2 0.32555549E+00 0.10976499E+04</pdfrwt>
<totfact> 0.53512654E-01</totfact>
</mgrwt>
</event>
<event>
 4    1  0.2202466E-008  0.1152945E+04  0.7818608E-02  0.9155071E-01
         -2   -1    0    0    0  501 -0.00000000000E+00  0.00000000000E+00  0.10370966775E+04  0.10370966775E+04  0.25500000000E-02 0.  1.
          2   -1    0    0  501    0  0.00000000000E+00 -0.00000000000E+00 -0.19134623200E+04  0.19134623200E+04  0.25500000000E-02 0. -1.
    8880022    1    1    2    0    0  0.84373152300E+03  0.77071893208E+03  0.40949238076E+03  0.12235057082E+04  0.15294330000E+03 0.  0.
    8880022    1    1    2    0    0 -0.84373152300E+03 -0.77071893208E+03 -0.12858580232E+04  0.17270532893E+04  0.15294330000E+03 0.  0.
<mgrwt>
<rscale>  0 0.11529450E+04</rscale>
<asrwt>0</asrwt>
<pdfrwt beam="1">  1        2 0.29437882E+00 0.11529450E+04</pdfrwt>
<pdfrwt beam="2">  1       -2 0.15955334E+00 0.11529450E+04</pdfrwt>
<totfact> 0.18518055E+00</totfact>
</mgrwt>
</event>
<event>
 4    1  0.2202466E-008  0.1283963E+04  0.7818608E-02  0.9042380E-01
         -2   -1    0    0    0  501 -0.00000000000E+00  0.00000000000E+00  0.20273343072E+04  0.20273343072E+04  0.25500000000E-02 0.  1.
          2   -1    0    0  501    0  0.00000000000E+00 -0.00000000000E+00 -0.14389454103E+04  0.14389454103E+04  0.25500000000E-02 0. -1.
    8880022    1    1    2    0    0 -0.70380366861E+02 -0.12728767477E+04  0.14371304846E+04  0.19271492661E+04  0.15294330000E+03 0.  0.
    8880022    1    1    2    0    0  0.70380366861E+02  0.12728767477E+04 -0.84874158766E+03  0.15391304515E+04  0.15294330000E+03 0.  0.
<mgrwt>
<rscale>  0 0.12839627E+04</rscale>
<asrwt>0</asrwt>
<pdfrwt beam="1">  1        2 0.22137622E+00 0.12839627E+04</pdfrwt>
<pdfrwt beam="2">  1       -2 0.31189759E+00 0.12839627E+04</pdfrwt>
<totfact> 0.35674610E-01</totfact>
</mgrwt>
</event>
<event>
 4    1  0.2202466E-008  0.5632756E+03  0.7818608E-02  0.9984670E-01
          2   -1    0    0  501    0  0.00000000000E+00  0.00000000000E+00  0.77138822409E+03  0.77138822410E+03  0.25500000000E-02 0. -1.
         -2   -1    0    0    0  501 -0.00000000000E+00 -0.00000000000E+00 -0.14084685409E+04  0.14084685409E+04  0.25500000000E-02 0.  1.
    8880022    1    1    2    0    0  0.51069034440E+03  0.18188772802E+03  0.59853845934E+03  0.82190492990E+03  0.15294330000E+03 0.  0.
    8880022    1    1    2    0    0 -0.51069034440E+03 -0.18188772802E+03 -0.12356187761E+04  0.13579518351E+04  0.15294330000E+03 0.  0.
<mgrwt>
<rscale>  0 0.56327562E+03</rscale>
<asrwt>0</asrwt>
<pdfrwt beam="1">  1        2 0.11867511E+00 0.56327562E+03</pdfrwt>
<pdfrwt beam="2">  1       -2 0.21668747E+00 0.56327562E+03</pdfrwt>
<totfact> 0.39597131E+00</totfact>
</mgrwt>
</event>
<event>
 4    1  0.2202466E-008  0.4469825E+03  0.7818608E-02  0.1028626E+00
         -2   -1    0    0    0  501 -0.00000000000E+00  0.00000000000E+00  0.54183757137E+03  0.54183757137E+03  0.25500000000E-02 0.  1.
          2   -1    0    0  501    0  0.00000000000E+00 -0.00000000000E+00 -0.22111526298E+04  0.22111526298E+04  0.25500000000E-02 0. -1.
    8880022    1    1    2    0    0  0.39161158803E+03  0.15179599439E+03  0.42183410849E+03  0.61460339072E+03  0.15294330000E+03 0.  0.
    8880022    1    1    2    0    0 -0.39161158803E+03 -0.15179599439E+03 -0.20911491669E+04  0.21383868104E+04  0.15294330000E+03 0.  0.
<mgrwt>
<rscale>  0 0.44698245E+03</rscale>
<asrwt>0</asrwt>
<pdfrwt beam="1">  1        2 0.34017732E+00 0.44698245E+03</pdfrwt>
<pdfrwt beam="2">  1       -2 0.83359627E-01 0.44698245E+03</pdfrwt>
<totfact> 0.71251762E+00</totfact>
</mgrwt>
</event>
<event>
 4    1  0.2202466E-008  0.9048939E+03  0.7818608E-02  0.9419484E-01
         -2   -1    0    0    0  501 -0.00000000000E+00  0.00000000000E+00  0.12693623313E+04  0.12693623313E+04  0.25500000000E-02 0.  1.
          2   -1    0    0  501    0  0.00000000000E+00 -0.00000000000E+00 -0.99285801341E+03  0.99285801342E+03  0.25500000000E-02 0. -1.
    8880022    1    1    2    0    0 -0.47648398554E+03 -0.75392596072E+03  0.80769879897E+03  0.12129346007E+04  0.15294330000E+03 0.  0.
    8880022    1    1    2    0    0  0.47648398554E+03  0.75392596072E+03 -0.53119448112E+03  0.10492857440E+04  0.15294330000E+03 0.  0.
<mgrwt>
<rscale>  0 0.90489391E+03</rscale>
<asrwt>0</asrwt>
<pdfrwt beam="1">  1        2 0.15274739E+00 0.90489391E+03</pdfrwt>
<pdfrwt beam="2">  1       -2 0.19528651E+00 0.90489391E+03</pdfrwt>
<totfact> 0.36473845E+00</totfact>
</mgrwt>
</event>
<event>
 4    1  0.2202466E-008  0.1405390E+04  0.7818608E-02  0.8949926E-01
          2   -1    0    0  501    0  0.00000000000E+00  0.00000000000E+00  0.95749863268E+03  0.95749863269E+03  0.25500000000E-02 0. -1.
         -2   -1    0    0    0  501 -0.00000000000E+00 -0.00000000000E+00 -0.23763353743E+04  0.23763353743E+04  0.25500000000E-02 0.  1.
    8880022    1    1    2    0    0 -0.13899870230E+04  0.14023540556E+03 -0.10392668860E+03  0.14092275553E+04  0.15294330000E+03 0.  0.
    8880022    1    1    2    0    0  0.13899870230E+04 -0.14023540556E+03 -0.13149100530E+04  0.19246064516E+04  0.15294330000E+03 0.  0.
<mgrwt>
<rscale>  0 0.14053902E+04</rscale>
<asrwt>0</asrwt>
<pdfrwt beam="1">  1        2 0.14730748E+00 0.14053902E+04</pdfrwt>
<pdfrwt beam="2">  1       -2 0.36559006E+00 0.14053902E+04</pdfrwt>
<totfact> 0.31933411E-01</totfact>
</mgrwt>
</event>
<event>
 4    1  0.2202466E-008  0.5290225E+03  0.7818608E-02  0.1006469E+00
         -2   -1    0    0    0  501 -0.00000000000E+00  0.00000000000E+00  0.73124658401E+03  0.73124658401E+03  0.25500000000E-02 0.  1.
          2   -1    0    0  501    0  0.00000000000E+00 -0.00000000000E+00 -0.15512457611E+04  0.15512457611E+04  0.25500000000E-02 0. -1.
    8880022    1    1    2    0    0  0.20458797122E+03 -0.46326767442E+03 -0.14005067795E+04  0.14970918704E+04  0.15294330000E+03 0. -1.
    8880022    1    1    2    0    0 -0.20458797122E+03  0.46326767442E+03  0.58050760241E+03  0.78540047466E+03  0.15294330000E+03 0.  0.
<mgrwt>
<rscale>  0 0.52902252E+03</rscale>
<asrwt>0</asrwt>
<pdfrwt beam="1">  1        2 0.23865319E+00 0.52902252E+03</pdfrwt>
<pdfrwt beam="2">  1       -2 0.11249947E+00 0.52902252E+03</pdfrwt>
<totfact> 0.78721849E+00</totfact>
</mgrwt>
</event>
<event>
 4    1  0.2202466E-008  0.4979847E+03  0.7818608E-02  0.1014306E+00
          2   -1    0    0  501    0  0.00000000000E+00  0.00000000000E+00  0.42492290101E+04  0.42492290101E+04  0.25500000000E-02 0. -1.
         -2   -1    0    0    0  501 -0.00000000000E+00 -0.00000000000E+00 -0.25768705640E+03  0.25768705642E+03  0.25500000000E-02 0.  1.
    8880022    1    1    2    0    0  0.89712005236E+02  0.46534808177E+03  0.39776874291E+04  0.40087387066E+04  0.15294330000E+03 0. -1.
    8880022    1    1    2    0    0 -0.89712005236E+02 -0.46534808177E+03  0.13854524615E+02  0.49817735994E+03  0.15294330000E+03 0.  0.
<mgrwt>
<rscale>  0 0.49798467E+03</rscale>
<asrwt>0</asrwt>
<pdfrwt beam="1">  1        2 0.65372759E+00 0.49798467E+03</pdfrwt>
<pdfrwt beam="2">  1       -2 0.39644160E-01 0.49798467E+03</pdfrwt>
<totfact> 0.15391507E+00</totfact>
</mgrwt>
</event>
<event>
 4    1  0.2202466E-008  0.2804420E+03  0.7818608E-02  0.1095448E+00
          2   -1    0    0  501    0  0.00000000000E+00  0.00000000000E+00  0.33099206293E+03  0.33099206294E+03  0.25500000000E-02 0. -1.
         -2   -1    0    0    0  501 -0.00000000000E+00 -0.00000000000E+00 -0.31036847417E+03  0.31036847418E+03  0.25500000000E-02 0.  1.
    8880022    1    1    2    0    0 -0.23436110756E+03 -0.18191558919E+02 -0.14495157384E+03  0.31568761985E+03  0.15294330000E+03 0.  0.
    8880022    1    1    2    0    0  0.23436110756E+03  0.18191558919E+02  0.16557516260E+03  0.32567291727E+03  0.15294330000E+03 0.  0.
<mgrwt>
<rscale>  0 0.28044200E+03</rscale>
<asrwt>0</asrwt>
<pdfrwt beam="1">  1        2 0.50921855E-01 0.28044200E+03</pdfrwt>
<pdfrwt beam="2">  1       -2 0.47748996E-01 0.28044200E+03</pdfrwt>
<totfact> 0.41585641E+02</totfact>
</mgrwt>
</event>
<event>
 4    1  0.2202466E-008  0.2481457E+03  0.7818608E-02  0.1114482E+00
         -2   -1    0    0    0  501 -0.00000000000E+00  0.00000000000E+00  0.54375854109E+03  0.54375854110E+03  0.25500000000E-02 0.  1.
          2   -1    0    0  501    0  0.00000000000E+00 -0.00000000000E+00 -0.20606202288E+04  0.20606202288E+04  0.25500000000E-02 0. -1.
    8880022    1    1    2    0    0  0.19511339875E+03 -0.10741622657E+02 -0.20243335634E+04  0.20394858788E+04  0.15294330000E+03 0. -1.
    8880022    1    1    2    0    0 -0.19511339875E+03  0.10741622657E+02  0.50747187568E+03  0.56489289113E+03  0.15294330000E+03 0.  0.
<mgrwt>
<rscale>  0 0.24814567E+03</rscale>
<asrwt>0</asrwt>
<pdfrwt beam="1">  1        2 0.31701849E+00 0.24814567E+03</pdfrwt>
<pdfrwt beam="2">  1       -2 0.83655161E-01 0.24814567E+03</pdfrwt>
<totfact> 0.91632126E+00</totfact>
</mgrwt>
</event>
<event>
 4    1  0.2202466E-008  0.1005938E+04  0.7818608E-02  0.9302056E-01
          2   -1    0    0  501    0  0.00000000000E+00  0.00000000000E+00  0.19674000894E+04  0.19674000894E+04  0.25500000000E-02 0. -1.
         -2   -1    0    0    0  501 -0.00000000000E+00 -0.00000000000E+00 -0.58713676807E+03  0.58713676807E+03  0.25500000000E-02 0.  1.
    8880022    1    1    2    0    0 -0.63695683261E+03  0.76341759790E+03  0.24038359324E+03  0.10342612631E+04  0.15294330000E+03 0.  0.
    8880022    1    1    2    0    0  0.63695683261E+03 -0.76341759790E+03  0.11398797281E+04  0.15202755944E+04  0.15294330000E+03 0.  0.
<mgrwt>
<rscale>  0 0.10059384E+04</rscale>
<asrwt>0</asrwt>
<pdfrwt beam="1">  1        2 0.30267694E+00 0.10059384E+04</pdfrwt>
<pdfrwt beam="2">  1       -2 0.90328733E-01 0.10059384E+04</pdfrwt>
<totfact> 0.73014533E+00</totfact>
</mgrwt>
</event>
<event>
 4    1  0.2202466E-008  0.7522428E+03  0.7818608E-02  0.9631838E-01
          2   -1    0    0  501    0  0.00000000000E+00  0.00000000000E+00  0.53368071257E+03  0.53368071258E+03  0.25500000000E-02 0. -1.
         -2   -1    0    0    0  501 -0.00000000000E+00 -0.00000000000E+00 -0.11452829470E+04  0.11452829470E+04  0.25500000000E-02 0.  1.
    8880022    1    1    2    0    0 -0.69911470956E+03  0.23176764364E+03 -0.53445803889E+03  0.92277552314E+03  0.15294330000E+03 0.  0.
    8880022    1    1    2    0    0  0.69911470956E+03 -0.23176764364E+03 -0.77144195533E+02  0.75618813643E+03  0.15294330000E+03 0.  0.
<mgrwt>
<rscale>  0 0.75224283E+03</rscale>
<asrwt>0</asrwt>
<pdfrwt beam="1">  1        2 0.82104725E-01 0.75224283E+03</pdfrwt>
<pdfrwt beam="2">  1       -2 0.17619738E+00 0.75224283E+03</pdfrwt>
<totfact> 0.11171753E+01</totfact>
</mgrwt>
</event>
<event>
 4    1  0.2202466E-008  0.1207335E+04  0.7818608E-02  0.9106460E-01
          2   -1    0    0  501    0  0.00000000000E+00  0.00000000000E+00  0.31363460129E+04  0.31363460129E+04  0.25500000000E-02 0. -1.
         -2   -1    0    0    0  501 -0.00000000000E+00 -0.00000000000E+00 -0.82661308710E+03  0.82661308711E+03  0.25500000000E-02 0.  1.
    8880022    1    1    2    0    0  0.11558287226E+04  0.31356985367E+03  0.24658666879E+04  0.27455702986E+04  0.15294330000E+03 0.  0.
    8880022    1    1    2    0    0 -0.11558287226E+04 -0.31356985367E+03 -0.15613376206E+03  0.12173888014E+04  0.15294330000E+03 0.  0.
<mgrwt>
<rscale>  0 0.12073350E+04</rscale>
<asrwt>0</asrwt>
<pdfrwt beam="1">  1        2 0.48251477E+00 0.12073350E+04</pdfrwt>
<pdfrwt beam="2">  1       -2 0.12717124E+00 0.12073350E+04</pdfrwt>
<totfact> 0.64724131E-01</totfact>
</mgrwt>
</event>
<event>
 4    1  0.2202466E-008  0.2137581E+04  0.7818608E-02  0.8544867E-01
          2   -1    0    0  501    0  0.00000000000E+00  0.00000000000E+00  0.43323363761E+04  0.43323363761E+04  0.25500000000E-02 0. -1.
         -2   -1    0    0    0  501 -0.00000000000E+00 -0.00000000000E+00 -0.13300495615E+04  0.13300495615E+04  0.25500000000E-02 0.  1.
    8880022    1    1    2    0    0  0.11739714415E+04  0.17797901159E+04  0.27893602956E+04  0.35142259907E+04  0.15294330000E+03 0.  0.
    8880022    1    1    2    0    0 -0.11739714415E+04 -0.17797901159E+04  0.21292651897E+03  0.21481599469E+04  0.15294330000E+03 0.  0.
<mgrwt>
<rscale>  0 0.21375812E+04</rscale>
<asrwt>0</asrwt>
<pdfrwt beam="1">  1        2 0.66651329E+00 0.21375812E+04</pdfrwt>
<pdfrwt beam="2">  1       -2 0.20462301E+00 0.21375812E+04</pdfrwt>
<totfact> 0.19439554E-02</totfact>
</mgrwt>
</event>
<event>
 4    1  0.2202466E-008  0.1172848E+04  0.7818608E-02  0.9136961E-01
          2   -1    0    0  501    0  0.00000000000E+00  0.00000000000E+00  0.30663909555E+04  0.30663909555E+04  0.25500000000E-02 0. -1.
         -2   -1    0    0    0  501 -0.00000000000E+00 -0.00000000000E+00 -0.82567464624E+03  0.82567464624E+03  0.25500000000E-02 0.  1.
    8880022    1    1    2    0    0 -0.11391404689E+04 -0.23353530389E+03 -0.19475015877E+03  0.11889066504E+04  0.15294330000E+03 0.  0.
    8880022    1    1    2    0    0  0.11391404689E+04  0.23353530389E+03  0.24354664680E+04  0.27031589513E+04  0.15294330000E+03 0.  0.
<mgrwt>
<rscale>  0 0.11728476E+04</rscale>
<asrwt>0</asrwt>
<pdfrwt beam="1">  1        2 0.47175245E+00 0.11728476E+04</pdfrwt>
<pdfrwt beam="2">  1       -2 0.12702687E+00 0.11728476E+04</pdfrwt>
<totfact> 0.72221946E-01</totfact>
</mgrwt>
</event>
<event>
 4    1  0.2202466E-008  0.6791533E+03  0.7818608E-02  0.9753562E-01
         -2   -1    0    0    0  501 -0.00000000000E+00  0.00000000000E+00  0.91023832789E+03  0.91023832789E+03  0.25500000000E-02 0.  1.
          2   -1    0    0  501    0  0.00000000000E+00 -0.00000000000E+00 -0.79703454220E+03  0.79703454220E+03  0.25500000000E-02 0. -1.
    8880022    1    1    2    0    0 -0.60973005370E+03 -0.25707363721E+03 -0.45857675334E+03  0.81947659213E+03  0.15294330000E+03 0.  0.
    8880022    1    1    2    0    0  0.60973005370E+03  0.25707363721E+03  0.57178053903E+03  0.88779627796E+03  0.15294330000E+03 0.  1.
<mgrwt>
<rscale>  0 0.67915333E+03</rscale>
<asrwt>0</asrwt>
<pdfrwt beam="1">  1        2 0.12262070E+00 0.67915333E+03</pdfrwt>
<pdfrwt beam="2">  1       -2 0.14003667E+00 0.67915333E+03</pdfrwt>
<totfact> 0.12718700E+01</totfact>
</mgrwt>
</event>
<event>
 4    1  0.2202466E-008  0.3767965E+03  0.7818608E-02  0.1052124E+00
          2   -1    0    0  501    0  0.00000000000E+00  0.00000000000E+00  0.57590657404E+03  0.57590657404E+03  0.25500000000E-02 0. -1.
         -2   -1    0    0    0  501 -0.00000000000E+00 -0.00000000000E+00 -0.97475139517E+03  0.97475139517E+03  0.25500000000E-02 0.  1.
    8880022    1    1    2    0    0  0.14384076261E+03 -0.31287979344E+03  0.47072783930E+03  0.60295960216E+03  0.15294330000E+03 0.  0.
    8880022    1    1    2    0    0 -0.14384076261E+03  0.31287979344E+03 -0.86957266043E+03  0.94769836706E+03  0.15294330000E+03 0.  0.
<mgrwt>
<rscale>  0 0.37679647E+03</rscale>
<asrwt>0</asrwt>
<pdfrwt beam="1">  1        2 0.88601012E-01 0.37679647E+03</pdfrwt>
<pdfrwt beam="2">  1       -2 0.14996175E+00 0.37679647E+03</pdfrwt>
<totfact> 0.16640937E+01</totfact>
</mgrwt>
</event>
<event>
 4    1  0.2202466E-008  0.2945495E+03  0.7818608E-02  0.1087997E+00
         -2   -1    0    0    0  501 -0.00000000000E+00  0.00000000000E+00  0.13335847080E+03  0.13335847082E+03  0.25500000000E-02 0.  1.
          2   -1    0    0  501    0  0.00000000000E+00 -0.00000000000E+00 -0.10986307648E+04  0.10986307648E+04  0.25500000000E-02 0. -1.
    8880022    1    1    2    0    0 -0.24968522651E+03 -0.32015838686E+02 -0.87602150661E+03  0.92421483397E+03  0.15294330000E+03 0.  0.
    8880022    1    1    2    0    0  0.24968522651E+03  0.32015838686E+02 -0.89250787422E+02  0.30777440169E+03  0.15294330000E+03 0.  0.
<mgrwt>
<rscale>  0 0.29454945E+03</rscale>
<asrwt>0</asrwt>
<pdfrwt beam="1">  1        2 0.16902011E+00 0.29454945E+03</pdfrwt>
<pdfrwt beam="2">  1       -2 0.20516689E-01 0.29454945E+03</pdfrwt>
<totfact> 0.46179692E+02</totfact>
</mgrwt>
</event>
<event>
 4    1  0.2202466E-008  0.3434011E+03  0.7818608E-02  0.1065357E+00
          2   -1    0    0  501    0  0.00000000000E+00  0.00000000000E+00  0.39749110530E+03  0.39749110531E+03  0.25500000000E-02 0. -1.
         -2   -1    0    0    0  501 -0.00000000000E+00 -0.00000000000E+00 -0.92188898606E+03  0.92188898606E+03  0.25500000000E-02 0.  1.
    8880022    1    1    2    0    0 -0.26684710326E+03  0.15272623817E+03 -0.80546945035E+03  0.87561713597E+03  0.15294330000E+03 0.  0.
    8880022    1    1    2    0    0  0.26684710326E+03 -0.15272623817E+03  0.28107156958E+03  0.44376295540E+03  0.15294330000E+03 0.  0.
<mgrwt>
<rscale>  0 0.34340113E+03</rscale>
<asrwt>0</asrwt>
<pdfrwt beam="1">  1        2 0.61152478E-01 0.34340113E+03</pdfrwt>
<pdfrwt beam="2">  1       -2 0.14182907E+00 0.34340113E+03</pdfrwt>
<totfact> 0.29399551E+01</totfact>
</mgrwt>
</event>
<event>
 4    1  0.2202466E-008  0.9738550E+03  0.7818608E-02  0.9337694E-01
          2   -1    0    0  501    0  0.00000000000E+00  0.00000000000E+00  0.37707209496E+04  0.37707209496E+04  0.25500000000E-02 0. -1.
         -2   -1    0    0    0  501 -0.00000000000E+00 -0.00000000000E+00 -0.11815823715E+04  0.11815823715E+04  0.25500000000E-02 0.  1.
    8880022    1    1    2    0    0 -0.68490730452E+03 -0.67520654920E+03 -0.90229081670E+03  0.13276001924E+04  0.15294330000E+03 0.  0.
    8880022    1    1    2    0    0  0.68490730452E+03  0.67520654920E+03  0.34914293948E+04  0.36247031288E+04  0.15294330000E+03 0.  0.
<mgrwt>
<rscale>  0 0.97385500E+03</rscale>
<asrwt>0</asrwt>
<pdfrwt beam="1">  1        2 0.58011092E+00 0.97385500E+03</pdfrwt>
<pdfrwt beam="2">  1       -2 0.18178190E+00 0.97385500E+03</pdfrwt>
<totfact> 0.95280124E-02</totfact>
</mgrwt>
</event>
<event>
 4    1  0.2202466E-008  0.5624681E+03  0.7818608E-02  0.9986485E-01
         -2   -1    0    0    0  501 -0.00000000000E+00  0.00000000000E+00  0.36668548092E+03  0.36668548093E+03  0.25500000000E-02 0.  1.
          2   -1    0    0  501    0  0.00000000000E+00 -0.00000000000E+00 -0.13335626262E+04  0.13335626262E+04  0.25500000000E-02 0. -1.
    8880022    1    1    2    0    0 -0.36484276245E+03 -0.39983561735E+03 -0.98854617276E+03  0.11373627174E+04  0.15294330000E+03 0.  0.
    8880022    1    1    2    0    0  0.36484276245E+03  0.39983561735E+03  0.21669027493E+02  0.56288538974E+03  0.15294330000E+03 0.  0.
<mgrwt>
<rscale>  0 0.56246815E+03</rscale>
<asrwt>0</asrwt>
<pdfrwt beam="1">  1        2 0.20516348E+00 0.56246815E+03</pdfrwt>
<pdfrwt beam="2">  1       -2 0.56413152E-01 0.56246815E+03</pdfrwt>
<totfact> 0.48551252E+01</totfact>
</mgrwt>
</event>
<event>
 4    1  0.2202466E-008  0.1599354E+03  0.7818608E-02  0.1188770E+00
         -2   -1    0    0    0  501 -0.00000000000E+00  0.00000000000E+00  0.47496690484E+02  0.47496690553E+02  0.25500000000E-02 0.  1.
          2   -1    0    0  501    0  0.00000000000E+00 -0.00000000000E+00 -0.19915966785E+04  0.19915966785E+04  0.25500000000E-02 0. -1.
    8880022    1    1    2    0    0  0.43455400109E+02 -0.17300190616E+02 -0.18429058368E+04  0.18498327613E+04  0.15294330000E+03 0. -1.
    8880022    1    1    2    0    0 -0.43455400109E+02  0.17300190616E+02 -0.10119415119E+03  0.18926060774E+03  0.15294330000E+03 0.  0.
<mgrwt>
<rscale>  0 0.15993537E+03</rscale>
<asrwt>0</asrwt>
<pdfrwt beam="1">  1        2 0.30639942E+00 0.15993537E+03</pdfrwt>
<pdfrwt beam="2">  1       -2 0.73071847E-02 0.15993537E+03</pdfrwt>
<totfact> 0.83364976E+02</totfact>
</mgrwt>
</event>
<event>
 4    1  0.2202466E-008  0.1150035E+04  0.7818608E-02  0.9157751E-01
         -2   -1    0    0    0  501 -0.00000000000E+00  0.00000000000E+00  0.70258169059E+03  0.70258169060E+03  0.25500000000E-02 0.  1.
          2   -1    0    0  501    0  0.00000000000E+00 -0.00000000000E+00 -0.21260577475E+04  0.21260577475E+04  0.25500000000E-02 0. -1.
    8880022    1    1    2    0    0  0.10278641118E+04  0.49263086432E+03 -0.11904753719E+04  0.16552380690E+04  0.15294330000E+03 0.  0.
    8880022    1    1    2    0    0 -0.10278641118E+04 -0.49263086432E+03 -0.23300068503E+03  0.11734013691E+04  0.15294330000E+03 0.  0.
<mgrwt>
<rscale>  0 0.11500354E+04</rscale>
<asrwt>0</asrwt>
<pdfrwt beam="1">  1        2 0.32708580E+00 0.11500354E+04</pdfrwt>
<pdfrwt beam="2">  1       -2 0.10808949E+00 0.11500354E+04</pdfrwt>
<totfact> 0.38323817E+00</totfact>
</mgrwt>
</event>
<event>
 4    1  0.2202466E-008  0.1318424E+04  0.7818608E-02  0.9015081E-01
          2   -1    0    0  501    0  0.00000000000E+00  0.00000000000E+00  0.11799072169E+04  0.11799072169E+04  0.25500000000E-02 0. -1.
         -2   -1    0    0    0  501 -0.00000000000E+00 -0.00000000000E+00 -0.17938778149E+04  0.17938778149E+04  0.25500000000E-02 0.  1.
    8880022    1    1    2    0    0  0.57349839355E+03 -0.11772638612E+04 -0.93564542081E+03  0.16166863062E+04  0.15294330000E+03 0.  0.
    8880022    1    1    2    0    0 -0.57349839355E+03  0.11772638612E+04  0.32167482280E+03  0.13570987256E+04  0.15294330000E+03 0.  0.
<mgrwt>
<rscale>  0 0.13184242E+04</rscale>
<asrwt>0</asrwt>
<pdfrwt beam="1">  1        2 0.18152419E+00 0.13184242E+04</pdfrwt>
<pdfrwt beam="2">  1       -2 0.27598120E+00 0.13184242E+04</pdfrwt>
<totfact> 0.83455489E-01</totfact>
</mgrwt>
</event>
<event>
 4    1  0.2202466E-008  0.5408312E+03  0.7818608E-02  0.1003639E+00
         -2   -1    0    0    0  501 -0.00000000000E+00  0.00000000000E+00  0.62068904629E+03  0.62068904630E+03  0.25500000000E-02 0.  1.
          2   -1    0    0  501    0  0.00000000000E+00 -0.00000000000E+00 -0.13427954153E+04  0.13427954153E+04  0.25500000000E-02 0. -1.
    8880022    1    1    2    0    0 -0.37541609015E+03  0.35800766095E+03 -0.11519832689E+04  0.12726208512E+04  0.15294330000E+03 0.  0.
    8880022    1    1    2    0    0  0.37541609015E+03 -0.35800766095E+03  0.42987689992E+03  0.69086361038E+03  0.15294330000E+03 0.  0.
<mgrwt>
<rscale>  0 0.54083119E+03</rscale>
<asrwt>0</asrwt>
<pdfrwt beam="1">  1        2 0.20658391E+00 0.54083119E+03</pdfrwt>
<pdfrwt beam="2">  1       -2 0.95490622E-01 0.54083119E+03</pdfrwt>
<totfact> 0.15137335E+01</totfact>
</mgrwt>
</event>
<event>
 4    1  0.2202466E-008  0.1373768E+04  0.7818608E-02  0.8973029E-01
          2   -1    0    0  501    0  0.00000000000E+00  0.00000000000E+00  0.39931858199E+04  0.39931858199E+04  0.25500000000E-02 0. -1.
         -2   -1    0    0    0  501 -0.00000000000E+00 -0.00000000000E+00 -0.12925676579E+04  0.12925676579E+04  0.25500000000E-02 0.  1.
    8880022    1    1    2    0    0  0.60548960885E+03  0.12236132356E+04  0.34552732674E+04  0.37183534020E+04  0.15294330000E+03 0.  0.
    8880022    1    1    2    0    0 -0.60548960885E+03 -0.12236132356E+04 -0.75465510531E+03  0.15674000758E+04  0.15294330000E+03 0.  0.
<mgrwt>
<rscale>  0 0.13737681E+04</rscale>
<asrwt>0</asrwt>
<pdfrwt beam="1">  1        2 0.61433628E+00 0.13737681E+04</pdfrwt>
<pdfrwt beam="2">  1       -2 0.19885656E+00 0.13737681E+04</pdfrwt>
<totfact> 0.45720682E-02</totfact>
</mgrwt>
</event>
<event>
 4    1  0.2202466E-008  0.3432620E+03  0.7818608E-02  0.1065415E+00
         -2   -1    0    0    0  501 -0.00000000000E+00  0.00000000000E+00  0.24301967039E+03  0.24301967041E+03  0.25500000000E-02 0.  1.
          2   -1    0    0  501    0  0.00000000000E+00 -0.00000000000E+00 -0.15006517176E+04  0.15006517176E+04  0.25500000000E-02 0. -1.
    8880022    1    1    2    0    0  0.86385808711E+02 -0.29491463962E+03 -0.13461122238E+04  0.13891893049E+04  0.15294330000E+03 0.  0.
    8880022    1    1    2    0    0 -0.86385808711E+02  0.29491463962E+03  0.88480176604E+02  0.35448208316E+03  0.15294330000E+03 0.  0.
<mgrwt>
<rscale>  0 0.34326201E+03</rscale>
<asrwt>0</asrwt>
<pdfrwt beam="1">  1        2 0.23086949E+00 0.34326201E+03</pdfrwt>
<pdfrwt beam="2">  1       -2 0.37387643E-01 0.34326201E+03</pdfrwt>
<totfact> 0.92088121E+01</totfact>
</mgrwt>
</event>
<event>
 4    1  0.2202466E-008  0.1019036E+04  0.7818608E-02  0.9287909E-01
         -2   -1    0    0    0  501 -0.00000000000E+00  0.00000000000E+00  0.11261178332E+04  0.11261178332E+04  0.25500000000E-02 0.  1.
          2   -1    0    0  501    0  0.00000000000E+00 -0.00000000000E+00 -0.17664463890E+04  0.17664463890E+04  0.25500000000E-02 0. -1.
    8880022    1    1    2    0    0 -0.19636118361E+03 -0.98817276606E+03  0.67972894447E+03  0.12249351905E+04  0.15294330000E+03 0.  0.
    8880022    1    1    2    0    0  0.19636118361E+03  0.98817276606E+03 -0.13200575003E+04  0.16676290316E+04  0.15294330000E+03 0.  0.
<mgrwt>
<rscale>  0 0.10190362E+04</rscale>
<asrwt>0</asrwt>
<pdfrwt beam="1">  1        2 0.27176098E+00 0.10190362E+04</pdfrwt>
<pdfrwt beam="2">  1       -2 0.17324890E+00 0.10190362E+04</pdfrwt>
<totfact> 0.18067676E+00</totfact>
</mgrwt>
</event>
<event>
 4    1  0.2202466E-008  0.2058653E+03  0.7818608E-02  0.1144883E+00
          2   -1    0    0  501    0  0.00000000000E+00  0.00000000000E+00  0.45869062580E+03  0.45869062581E+03  0.25500000000E-02 0. -1.
         -2   -1    0    0    0  501 -0.00000000000E+00 -0.00000000000E+00 -0.24861676377E+03  0.24861676378E+03  0.25500000000E-02 0.  1.
    8880022    1    1    2    0    0  0.10828437955E+03  0.85225314833E+02 -0.17530262973E+03  0.27039143135E+03  0.15294330000E+03 0.  0.
    8880022    1    1    2    0    0 -0.10828437955E+03 -0.85225314833E+02  0.38537649177E+03  0.43691595824E+03  0.15294330000E+03 0.  0.
<mgrwt>
<rscale>  0 0.20586528E+03</rscale>
<asrwt>0</asrwt>
<pdfrwt beam="1">  1        2 0.70567788E-01 0.20586528E+03</pdfrwt>
<pdfrwt beam="2">  1       -2 0.38248733E-01 0.20586528E+03</pdfrwt>
<totfact> 0.44882215E+02</totfact>
</mgrwt>
</event>
<event>
 4    1  0.2958796E-008  0.1021840E+04  0.7818608E-02  0.9284911E-01
         -2   -1    0    0    0  501 -0.00000000000E+00  0.00000000000E+00  0.20057506710E+04  0.20057506710E+04  0.25500000000E-02 0.  1.
          2   -1    0    0  501    0  0.00000000000E+00 -0.00000000000E+00 -0.22467690303E+04  0.22467690303E+04  0.25500000000E-02 0. -1.
    8880022    1    1    2    0    0  0.85987895218E+03 -0.53044571758E+03 -0.19842312464E+04  0.22318892812E+04  0.15294330000E+03 0.  0.
    8880022    1    1    2    0    0 -0.85987895218E+03  0.53044571758E+03  0.17432128870E+04  0.20206304200E+04  0.15294330000E+03 0.  0.
<mgrwt>
<rscale>  0 0.10218396E+04</rscale>
<asrwt>0</asrwt>
<pdfrwt beam="1">  1        2 0.34565677E+00 0.10218396E+04</pdfrwt>
<pdfrwt beam="2">  1       -2 0.30857703E+00 0.10218396E+04</pdfrwt>
<totfact> 0.13833262E-01</totfact>
</mgrwt>
</event>
<event>
 4    1  0.2202466E-008  0.5814517E+03  0.7818608E-02  0.9944653E-01
         -2   -1    0    0    0  501 -0.00000000000E+00  0.00000000000E+00  0.53249909633E+03  0.53249909634E+03  0.25500000000E-02 0.  1.
          2   -1    0    0  501    0  0.00000000000E+00 -0.00000000000E+00 -0.10598971131E+04  0.10598971131E+04  0.25500000000E-02 0. -1.
    8880022    1    1    2    0    0 -0.55001360251E+03 -0.11036050774E+03 -0.76787247941E+03  0.96317921607E+03  0.15294330000E+03 0.  0.
    8880022    1    1    2    0    0  0.55001360251E+03  0.11036050774E+03  0.24047446261E+03  0.62921699341E+03  0.15294330000E+03 0.  0.
<mgrwt>
<rscale>  0 0.58145168E+03</rscale>
<asrwt>0</asrwt>
<pdfrwt beam="1">  1        2 0.16306109E+00 0.58145168E+03</pdfrwt>
<pdfrwt beam="2">  1       -2 0.81922938E-01 0.58145168E+03</pdfrwt>
<totfact> 0.31324307E+01</totfact>
</mgrwt>
</event>
<event>
 4    1  0.2202466E-008  0.1642946E+04  0.7818608E-02  0.8794590E-01
          2   -1    0    0  501    0  0.00000000000E+00  0.00000000000E+00  0.32816909814E+04  0.32816909814E+04  0.25500000000E-02 0. -1.
         -2   -1    0    0    0  501 -0.00000000000E+00 -0.00000000000E+00 -0.10387397864E+04  0.10387397864E+04  0.25500000000E-02 0.  1.
    8880022    1    1    2    0    0 -0.12103897151E+04 -0.11003802425E+04  0.21070439710E+04  0.26718731050E+04  0.15294330000E+03 0.  0.
    8880022    1    1    2    0    0  0.12103897151E+04  0.11003802425E+04  0.13590722401E+03  0.16485576627E+04  0.15294330000E+03 0.  0.
<mgrwt>
<rscale>  0 0.16429460E+04</rscale>
<asrwt>0</asrwt>
<pdfrwt beam="1">  1        2 0.50487554E+00 0.16429460E+04</pdfrwt>
<pdfrwt beam="2">  1       -2 0.15980612E+00 0.16429460E+04</pdfrwt>
<totfact> 0.27026066E-01</totfact>
</mgrwt>
</event>
<event>
 4    1  0.2202466E-008  0.2770876E+04  0.7818608E-02  0.8312368E-01
          2   -1    0    0  501    0  0.00000000000E+00  0.00000000000E+00  0.31389213970E+04  0.31389213970E+04  0.25500000000E-02 0. -1.
         -2   -1    0    0    0  501 -0.00000000000E+00 -0.00000000000E+00 -0.33321307457E+04  0.33321307457E+04  0.25500000000E-02 0.  1.
    8880022    1    1    2    0    0 -0.14447343452E+04  0.23594708327E+04  0.15719356394E+04  0.31857076523E+04  0.15294330000E+03 0.  0.
    8880022    1    1    2    0    0  0.14447343452E+04 -0.23594708327E+04 -0.17651449881E+04  0.32853444904E+04  0.15294330000E+03 0.  0.
<mgrwt>
<rscale>  0 0.27708756E+04</rscale>
<asrwt>0</asrwt>
<pdfrwt beam="1">  1        2 0.48291099E+00 0.27708756E+04</pdfrwt>
<pdfrwt beam="2">  1       -2 0.51263550E+00 0.27708756E+04</pdfrwt>
<totfact> 0.15726482E-03</totfact>
</mgrwt>
</event>
<event>
 4    1  0.2202466E-008  0.1122735E+04  0.7818608E-02  0.9183312E-01
         -2   -1    0    0    0  501 -0.00000000000E+00  0.00000000000E+00  0.18682677190E+04  0.18682677190E+04  0.25500000000E-02 0.  1.
          2   -1    0    0  501    0  0.00000000000E+00 -0.00000000000E+00 -0.10294439499E+04  0.10294439499E+04  0.25500000000E-02 0. -1.
    8880022    1    1    2    0    0 -0.87421619007E+02 -0.11088283653E+04  0.12699164173E+04  0.16950581828E+04  0.15294330000E+03 0.  0.
    8880022    1    1    2    0    0  0.87421619007E+02  0.11088283653E+04 -0.43109264822E+03  0.12026534860E+04  0.15294330000E+03 0.  0.
<mgrwt>
<rscale>  0 0.11227353E+04</rscale>
<asrwt>0</asrwt>
<pdfrwt beam="1">  1        2 0.15837600E+00 0.11227353E+04</pdfrwt>
<pdfrwt beam="2">  1       -2 0.28742580E+00 0.11227353E+04</pdfrwt>
<totfact> 0.90215549E-01</totfact>
</mgrwt>
</event>
<event>
 4    1  0.2202466E-008  0.1607656E+04  0.7818608E-02  0.8815858E-01
         -2   -1    0    0    0  501 -0.00000000000E+00  0.00000000000E+00  0.17249969040E+04  0.17249969040E+04  0.25500000000E-02 0.  1.
          2   -1    0    0  501    0  0.00000000000E+00 -0.00000000000E+00 -0.19522855470E+04  0.19522855470E+04  0.25500000000E-02 0. -1.
    8880022    1    1    2    0    0 -0.10700017752E+03 -0.15967833171E+04 -0.10002852635E+04  0.18934434930E+04  0.15294330000E+03 0.  0.
    8880022    1    1    2    0    0  0.10700017752E+03  0.15967833171E+04  0.77299662047E+03  0.17838389580E+04  0.15294330000E+03 0.  0.
<mgrwt>
<rscale>  0 0.16076559E+04</rscale>
<asrwt>0</asrwt>
<pdfrwt beam="1">  1        2 0.30035162E+00 0.16076559E+04</pdfrwt>
<pdfrwt beam="2">  1       -2 0.26538414E+00 0.16076559E+04</pdfrwt>
<totfact> 0.34046056E-01</totfact>
</mgrwt>
</event>
<event>
 4    1  0.2202466E-008  0.2485296E+03  0.7818608E-02  0.1114238E+00
          2   -1    0    0  501    0  0.00000000000E+00  0.00000000000E+00  0.27182249220E+04  0.27182249220E+04  0.25500000000E-02 0. -1.
         -2   -1    0    0    0  501 -0.00000000000E+00 -0.00000000000E+00 -0.24772723332E+03  0.24772723333E+03  0.25500000000E-02 0.  1.
    8880022    1    1    2    0    0 -0.11880283357E+03  0.15576010501E+03 -0.17807715053E+03  0.30574245392E+03  0.15294330000E+03 0.  0.
    8880022    1    1    2    0    0  0.11880283357E+03 -0.15576010501E+03  0.26485748392E+04  0.26602097014E+04  0.15294330000E+03 0.  0.
<mgrwt>
<rscale>  0 0.24852963E+03</rscale>
<asrwt>0</asrwt>
<pdfrwt beam="1">  1        2 0.41818848E+00 0.24852963E+03</pdfrwt>
<pdfrwt beam="2">  1       -2 0.38111879E-01 0.24852963E+03</pdfrwt>
<totfact> 0.20308232E+01</totfact>
</mgrwt>
</event>
<event>
 4    1  0.2202466E-008  0.6579636E+03  0.7818608E-02  0.9791950E-01
          2   -1    0    0  501    0  0.00000000000E+00  0.00000000000E+00  0.24554450026E+04  0.24554450026E+04  0.25500000000E-02 0. -1.
         -2   -1    0    0    0  501 -0.00000000000E+00 -0.00000000000E+00 -0.25422148278E+03  0.25422148279E+03  0.25500000000E-02 0.  1.
    8880022    1    1    2    0    0  0.51684956964E+03 -0.37734727416E+03  0.35057192666E+03  0.74553120104E+03  0.15294330000E+03 0.  0.
    8880022    1    1    2    0    0 -0.51684956964E+03  0.37734727416E+03  0.18506515931E+04  0.19641352843E+04  0.15294330000E+03 0.  0.
<mgrwt>
<rscale>  0 0.65796360E+03</rscale>
<asrwt>0</asrwt>
<pdfrwt beam="1">  1        2 0.37776077E+00 0.65796360E+03</pdfrwt>
<pdfrwt beam="2">  1       -2 0.39110998E-01 0.65796360E+03</pdfrwt>
<totfact> 0.24177342E+01</totfact>
</mgrwt>
</event>
<event>
 4    1  0.2202466E-008  0.8708502E+03  0.7818608E-02  0.9462772E-01
          2   -1    0    0  501    0  0.00000000000E+00  0.00000000000E+00  0.12816969736E+04  0.12816969736E+04  0.25500000000E-02 0. -1.
         -2   -1    0    0    0  501 -0.00000000000E+00 -0.00000000000E+00 -0.75281115420E+03  0.75281115421E+03  0.25500000000E-02 0.  1.
    8880022    1    1    2    0    0 -0.61551659520E+03 -0.59676440482E+03 -0.20615417067E+03  0.89491878342E+03  0.15294330000E+03 0.  0.
    8880022    1    1    2    0    0  0.61551659520E+03  0.59676440482E+03  0.73503999006E+03  0.11395893444E+04  0.15294330000E+03 0.  0.
<mgrwt>
<rscale>  0 0.87085021E+03</rscale>
<asrwt>0</asrwt>
<pdfrwt beam="1">  1        2 0.19718415E+00 0.87085021E+03</pdfrwt>
<pdfrwt beam="2">  1       -2 0.11581710E+00 0.87085021E+03</pdfrwt>
<totfact> 0.98825015E+00</totfact>
</mgrwt>
</event>
<event>
 4    1  0.2202466E-008  0.1161011E+04  0.7818608E-02  0.9147685E-01
          2   -1    0    0  501    0  0.00000000000E+00  0.00000000000E+00  0.91648910375E+03  0.91648910376E+03  0.25500000000E-02 0. -1.
         -2   -1    0    0    0  501 -0.00000000000E+00 -0.00000000000E+00 -0.19422581110E+04  0.19422581110E+04  0.25500000000E-02 0.  1.
    8880022    1    1    2    0    0 -0.24690149682E+03  0.11240972356E+04 -0.12171342448E+04  0.16820708567E+04  0.15294330000E+03 0.  0.
    8880022    1    1    2    0    0  0.24690149682E+03 -0.11240972356E+04  0.19136523753E+03  0.11766763580E+04  0.15294330000E+03 0.  0.
<mgrwt>
<rscale>  0 0.11610110E+04</rscale>
<asrwt>0</asrwt>
<pdfrwt beam="1">  1        2 0.14099832E+00 0.11610110E+04</pdfrwt>
<pdfrwt beam="2">  1       -2 0.29880894E+00 0.11610110E+04</pdfrwt>
<totfact> 0.90845966E-01</totfact>
</mgrwt>
</event>
<event>
 4    1  0.2202466E-008  0.4215205E+03  0.7818608E-02  0.1036573E+00
         -2   -1    0    0    0  501 -0.00000000000E+00  0.00000000000E+00  0.15634978946E+04  0.15634978946E+04  0.25500000000E-02 0.  1.
          2   -1    0    0  501    0  0.00000000000E+00 -0.00000000000E+00 -0.10103378845E+04  0.10103378845E+04  0.25500000000E-02 0. -1.
    8880022    1    1    2    0    0  0.31319040719E+03  0.23706472961E+03  0.14889635222E+04  0.15474792214E+04  0.15294330000E+03 0.  0.
    8880022    1    1    2    0    0 -0.31319040719E+03 -0.23706472961E+03 -0.93580351209E+03  0.10263565577E+04  0.15294330000E+03 0.  0.
<mgrwt>
<rscale>  0 0.42152055E+03</rscale>
<asrwt>0</asrwt>
<pdfrwt beam="1">  1        2 0.15543660E+00 0.42152055E+03</pdfrwt>
<pdfrwt beam="2">  1       -2 0.24053814E+00 0.42152055E+03</pdfrwt>
<totfact> 0.20251316E+00</totfact>
</mgrwt>
</event>
<event>
 4    1  0.2202466E-008  0.1088541E+04  0.7818608E-02  0.9216433E-01
          2   -1    0    0  501    0  0.00000000000E+00  0.00000000000E+00  0.38959303868E+04  0.38959303868E+04  0.25500000000E-02 0. -1.
         -2   -1    0    0    0  501 -0.00000000000E+00 -0.00000000000E+00 -0.11339550639E+04  0.11339550640E+04  0.25500000000E-02 0.  1.
    8880022    1    1    2    0    0  0.10775505270E+04  0.20390165607E+02  0.35323812723E+04  0.36963008539E+04  0.15294330000E+03 0.  0.
    8880022    1    1    2    0    0 -0.10775505270E+04 -0.20390165607E+02 -0.77040594942E+03  0.13335845968E+04  0.15294330000E+03 0.  0.
<mgrwt>
<rscale>  0 0.10885415E+04</rscale>
<asrwt>0</asrwt>
<pdfrwt beam="1">  1        2 0.59937390E+00 0.10885415E+04</pdfrwt>
<pdfrwt beam="2">  1       -2 0.17445463E+00 0.10885415E+04</pdfrwt>
<totfact> 0.84124393E-02</totfact>
</mgrwt>
</event>
<event>
 4    1  0.2202466E-008  0.7959871E+03  0.7818608E-02  0.9565844E-01
          2   -1    0    0  501    0  0.00000000000E+00  0.00000000000E+00  0.49233768117E+03  0.49233768118E+03  0.25500000000E-02 0. -1.
         -2   -1    0    0    0  501 -0.00000000000E+00 -0.00000000000E+00 -0.14879613272E+04  0.14879613272E+04  0.25500000000E-02 0.  1.
    8880022    1    1    2    0    0 -0.47947507079E+03  0.61669078654E+03 -0.13385010199E+03  0.80716254406E+03  0.15294330000E+03 0.  0.
    8880022    1    1    2    0    0  0.47947507079E+03 -0.61669078654E+03 -0.86177354405E+03  0.11731364643E+04  0.15294330000E+03 0.  0.
<mgrwt>
<rscale>  0 0.79598714E+03</rscale>
<asrwt>0</asrwt>
<pdfrwt beam="1">  1        2 0.75744259E-01 0.79598714E+03</pdfrwt>
<pdfrwt beam="2">  1       -2 0.22891712E+00 0.79598714E+03</pdfrwt>
<totfact> 0.55480774E+00</totfact>
</mgrwt>
</event>
<event>
 4    1  0.2202466E-008  0.5735330E+03  0.7818608E-02  0.9961891E-01
         -2   -1    0    0    0  501 -0.00000000000E+00  0.00000000000E+00  0.73601813993E+03  0.73601813993E+03  0.25500000000E-02 0.  1.
          2   -1    0    0  501    0  0.00000000000E+00 -0.00000000000E+00 -0.19092918618E+04  0.19092918618E+04  0.25500000000E-02 0. -1.
    8880022    1    1    2    0    0  0.50466233686E+03 -0.22553137408E+03 -0.17441863040E+04  0.18360626327E+04  0.15294330000E+03 0.  0.
    8880022    1    1    2    0    0 -0.50466233686E+03  0.22553137408E+03  0.57091258213E+03  0.80924736909E+03  0.15294330000E+03 0.  0.
<mgrwt>
<rscale>  0 0.57353302E+03</rscale>
<asrwt>0</asrwt>
<pdfrwt beam="1">  1        2 0.29373721E+00 0.57353302E+03</pdfrwt>
<pdfrwt beam="2">  1       -2 0.11323356E+00 0.57353302E+03</pdfrwt>
<totfact> 0.49113009E+00</totfact>
</mgrwt>
</event>
<event>
 4    1  0.2202466E-008  0.2948614E+03  0.7818608E-02  0.1087838E+00
          2   -1    0    0  501    0  0.00000000000E+00  0.00000000000E+00  0.22529479963E+04  0.22529479963E+04  0.25500000000E-02 0. -1.
         -2   -1    0    0    0  501 -0.00000000000E+00 -0.00000000000E+00 -0.18051954400E+03  0.18051954402E+03  0.25500000000E-02 0.  1.
    8880022    1    1    2    0    0 -0.10495967848E+01 -0.25209220600E+03 -0.42654272982E+02  0.29793056574E+03  0.15294330000E+03 0.  0.
    8880022    1    1    2    0    0  0.10495967848E+01  0.25209220600E+03  0.21150827253E+04  0.21355369745E+04  0.15294330000E+03 0.  0.
<mgrwt>
<rscale>  0 0.29486138E+03</rscale>
<asrwt>0</asrwt>
<pdfrwt beam="1">  1        2 0.34660737E+00 0.29486138E+03</pdfrwt>
<pdfrwt beam="2">  1       -2 0.27772239E-01 0.29486138E+03</pdfrwt>
<totfact> 0.64347200E+01</totfact>
</mgrwt>
</event>
<event>
 4    1  0.2202466E-008  0.7873591E+03  0.7818608E-02  0.9578497E-01
         -2   -1    0    0    0  501 -0.00000000000E+00  0.00000000000E+00  0.17318595257E+04  0.17318595257E+04  0.25500000000E-02 0.  1.
          2   -1    0    0  501    0  0.00000000000E+00 -0.00000000000E+00 -0.21626123625E+04  0.21626123625E+04  0.25500000000E-02 0. -1.
    8880022    1    1    2    0    0  0.70287995885E+03  0.32016012654E+03 -0.19941724663E+04  0.21439818613E+04  0.15294330000E+03 0.  0.
    8880022    1    1    2    0    0 -0.70287995885E+03 -0.32016012654E+03  0.15634196296E+04  0.17504900269E+04  0.15294330000E+03 0.  0.
<mgrwt>
<rscale>  0 0.78735913E+03</rscale>
<asrwt>0</asrwt>
<pdfrwt beam="1">  1        2 0.33270959E+00 0.78735913E+03</pdfrwt>
<pdfrwt beam="2">  1       -2 0.26643993E+00 0.78735913E+03</pdfrwt>
<totfact> 0.29076720E-01</totfact>
</mgrwt>
</event>
<event>
 4    1  0.2202466E-008  0.2040857E+04  0.7818608E-02  0.8587753E-01
          2   -1    0    0  501    0  0.00000000000E+00  0.00000000000E+00  0.32799082303E+04  0.32799082303E+04  0.25500000000E-02 0. -1.
         -2   -1    0    0    0  501 -0.00000000000E+00 -0.00000000000E+00 -0.19481068498E+04  0.19481068498E+04  0.25500000000E-02 0.  1.
    8880022    1    1    2    0    0  0.12179796937E+04  0.16304082283E+04 -0.87646453389E+03  0.22211004609E+04  0.15294330000E+03 0.  0.
    8880022    1    1    2    0    0 -0.12179796937E+04 -0.16304082283E+04  0.22082659145E+04  0.30069146192E+04  0.15294330000E+03 0.  0.
<mgrwt>
<rscale>  0 0.20408570E+04</rscale>
<asrwt>0</asrwt>
<pdfrwt beam="1">  1        2 0.50460127E+00 0.20408570E+04</pdfrwt>
<pdfrwt beam="2">  1       -2 0.29970875E+00 0.20408570E+04</pdfrwt>
<totfact> 0.32279886E-02</totfact>
</mgrwt>
</event>
<event>
 4    1  0.2202466E-008  0.1239420E+04  0.7818608E-02  0.9079035E-01
          2   -1    0    0  501    0  0.00000000000E+00  0.00000000000E+00  0.15300930669E+04  0.15300930669E+04  0.25500000000E-02 0. -1.
         -2   -1    0    0    0  501 -0.00000000000E+00 -0.00000000000E+00 -0.11799065004E+04  0.11799065004E+04  0.25500000000E-02 0.  1.
    8880022    1    1    2    0    0  0.32335258122E+03  0.11866821572E+04  0.69832853094E+03  0.14226123239E+04  0.15294330000E+03 0.  0.
    8880022    1    1    2    0    0 -0.32335258122E+03 -0.11866821572E+04 -0.34814196451E+03  0.12873872434E+04  0.15294330000E+03 0.  0.
<mgrwt>
<rscale>  0 0.12394205E+04</rscale>
<asrwt>0</asrwt>
<pdfrwt beam="1">  1        2 0.23539893E+00 0.12394205E+04</pdfrwt>
<pdfrwt beam="2">  1       -2 0.18152408E+00 0.12394205E+04</pdfrwt>
<totfact> 0.20878761E+00</totfact>
</mgrwt>
</event>
<event>
 4    1  0.2202466E-008  0.1195266E+04  0.7818608E-02  0.9117011E-01
         -2   -1    0    0    0  501 -0.00000000000E+00  0.00000000000E+00  0.14041664930E+04  0.14041664930E+04  0.25500000000E-02 0.  1.
          2   -1    0    0  501    0  0.00000000000E+00 -0.00000000000E+00 -0.13503286266E+04  0.13503286266E+04  0.25500000000E-02 0. -1.
    8880022    1    1    2    0    0 -0.11112720542E+04  0.41272569541E+03 -0.65689764872E+03  0.13638820520E+04  0.15294330000E+03 0.  0.
    8880022    1    1    2    0    0  0.11112720542E+04 -0.41272569541E+03  0.71073551510E+03  0.13906130675E+04  0.15294330000E+03 0.  0.
<mgrwt>
<rscale>  0 0.11952655E+04</rscale>
<asrwt>0</asrwt>
<pdfrwt beam="1">  1        2 0.20774286E+00 0.11952655E+04</pdfrwt>
<pdfrwt beam="2">  1       -2 0.21602562E+00 0.11952655E+04</pdfrwt>
<totfact> 0.15722089E+00</totfact>
</mgrwt>
</event>
<event>
 4    1  0.2202466E-008  0.6109383E+03  0.7818608E-02  0.9882969E-01
         -2   -1    0    0    0  501 -0.00000000000E+00  0.00000000000E+00  0.73876005355E+03  0.73876005356E+03  0.25500000000E-02 0.  1.
          2   -1    0    0  501    0  0.00000000000E+00 -0.00000000000E+00 -0.15187481419E+04  0.15187481419E+04  0.25500000000E-02 0. -1.
    8880022    1    1    2    0    0 -0.41725032118E+03  0.41923280367E+03 -0.13120805720E+04  0.14473427565E+04  0.15294330000E+03 0.  0.
    8880022    1    1    2    0    0  0.41725032118E+03 -0.41923280367E+03  0.53209248373E+03  0.81016543894E+03  0.15294330000E+03 0.  0.
<mgrwt>
<rscale>  0 0.61093832E+03</rscale>
<asrwt>0</asrwt>
<pdfrwt beam="1">  1        2 0.23365356E+00 0.61093832E+03</pdfrwt>
<pdfrwt beam="2">  1       -2 0.11365539E+00 0.61093832E+03</pdfrwt>
<totfact> 0.78781307E+00</totfact>
</mgrwt>
</event>
<event>
 4    1  0.2202466E-008  0.1557545E+04  0.7818608E-02  0.8847063E-01
          2   -1    0    0  501    0  0.00000000000E+00  0.00000000000E+00  0.32418215975E+04  0.32418215975E+04  0.25500000000E-02 0. -1.
         -2   -1    0    0    0  501 -0.00000000000E+00 -0.00000000000E+00 -0.13068641589E+04  0.13068641589E+04  0.25500000000E-02 0.  1.
    8880022    1    1    2    0    0  0.67686093361E+03  0.13944220115E+04  0.24543263064E+04  0.29068303599E+04  0.15294330000E+03 0.  0.
    8880022    1    1    2    0    0 -0.67686093361E+03 -0.13944220115E+04 -0.51936886782E+03  0.16418553966E+04  0.15294330000E+03 0.  0.
<mgrwt>
<rscale>  0 0.15575446E+04</rscale>
<asrwt>0</asrwt>
<pdfrwt beam="1">  1        2 0.49874178E+00 0.15575446E+04</pdfrwt>
<pdfrwt beam="2">  1       -2 0.20105603E+00 0.15575446E+04</pdfrwt>
<totfact> 0.14943703E-01</totfact>
</mgrwt>
</event>
<event>
 4    1  0.2202466E-008  0.9806022E+03  0.7818608E-02  0.9330080E-01
          2   -1    0    0  501    0  0.00000000000E+00  0.00000000000E+00  0.37945486319E+04  0.37945486319E+04  0.25500000000E-02 0. -1.
         -2   -1    0    0    0  501 -0.00000000000E+00 -0.00000000000E+00 -0.77105977779E+03  0.77105977779E+03  0.25500000000E-02 0.  1.
    8880022    1    1    2    0    0  0.99516321554E+02 -0.96347573320E+03  0.33821776391E+04  0.35214636477E+04  0.15294330000E+03 0.  0.
    8880022    1    1    2    0    0 -0.99516321554E+02  0.96347573320E+03 -0.35868878490E+03  0.10441447621E+04  0.15294330000E+03 0.  0.
<mgrwt>
<rscale>  0 0.98060218E+03</rscale>
<asrwt>0</asrwt>
<pdfrwt beam="1">  1        2 0.58377673E+00 0.98060218E+03</pdfrwt>
<pdfrwt beam="2">  1       -2 0.11862458E+00 0.98060218E+03</pdfrwt>
<totfact> 0.28340954E-01</totfact>
</mgrwt>
</event>
<event>
 4    1  0.2202466E-008  0.1022842E+04  0.7818608E-02  0.9283841E-01
          2   -1    0    0  501    0  0.00000000000E+00  0.00000000000E+00  0.12366349696E+04  0.12366349696E+04  0.25500000000E-02 0. -1.
         -2   -1    0    0    0  501 -0.00000000000E+00 -0.00000000000E+00 -0.11882277588E+04  0.11882277588E+04  0.25500000000E-02 0.  1.
    8880022    1    1    2    0    0  0.25944789223E+03  0.97749711554E+03 -0.62646316364E+03  0.11994421904E+04  0.15294330000E+03 0.  0.
    8880022    1    1    2    0    0 -0.25944789223E+03 -0.97749711554E+03  0.67487037444E+03  0.12254205380E+04  0.15294330000E+03 0.  0.
<mgrwt>
<rscale>  0 0.10228419E+04</rscale>
<asrwt>0</asrwt>
<pdfrwt beam="1">  1        2 0.19025153E+00 0.10228419E+04</pdfrwt>
<pdfrwt beam="2">  1       -2 0.18280427E+00 0.10228419E+04</pdfrwt>
<totfact> 0.30898710E+00</totfact>
</mgrwt>
</event>
<event>
 4    1  0.2202466E-008  0.1180005E+04  0.7818608E-02  0.9130540E-01
         -2   -1    0    0    0  501 -0.00000000000E+00  0.00000000000E+00  0.23814594403E+04  0.23814594403E+04  0.25500000000E-02 0.  1.
          2   -1    0    0  501    0  0.00000000000E+00 -0.00000000000E+00 -0.95893556337E+03  0.95893556337E+03  0.25500000000E-02 0. -1.
    8880022    1    1    2    0    0  0.11689132893E+04 -0.51596405589E+02  0.17546654063E+04  0.21145360739E+04  0.15294330000E+03 0.  0.
    8880022    1    1    2    0    0 -0.11689132893E+04  0.51596405589E+02 -0.33214152939E+03  0.12258589297E+04  0.15294330000E+03 0.  0.
<mgrwt>
<rscale>  0 0.11800051E+04</rscale>
<asrwt>0</asrwt>
<pdfrwt beam="1">  1        2 0.14752855E+00 0.11800051E+04</pdfrwt>
<pdfrwt beam="2">  1       -2 0.36637837E+00 0.11800051E+04</pdfrwt>
<totfact> 0.32379301E-01</totfact>
</mgrwt>
</event>
<event>
 4    1  0.2202466E-008  0.2679387E+03  0.7818608E-02  0.1102465E+00
         -2   -1    0    0    0  501 -0.00000000000E+00  0.00000000000E+00  0.59316041750E+02  0.59316041805E+02  0.25500000000E-02 0.  1.
          2   -1    0    0  501    0  0.00000000000E+00 -0.00000000000E+00 -0.26791247770E+04  0.26791247770E+04  0.25500000000E-02 0. -1.
    8880022    1    1    2    0    0 -0.19484687430E+03  0.10214800958E+03 -0.23237211500E+04  0.23391176021E+04  0.15294330000E+03 0.  0.
    8880022    1    1    2    0    0  0.19484687430E+03 -0.10214800958E+03 -0.29608758529E+03  0.39932321679E+03  0.15294330000E+03 0.  0.
<mgrwt>
<rscale>  0 0.26793875E+03</rscale>
<asrwt>0</asrwt>
<pdfrwt beam="1">  1        2 0.41217295E+00 0.26793875E+03</pdfrwt>
<pdfrwt beam="2">  1       -2 0.91255470E-02 0.26793875E+03</pdfrwt>
<totfact> 0.24563317E+02</totfact>
</mgrwt>
</event>
<event>
 4    1  0.2202466E-008  0.6791110E+03  0.7818608E-02  0.9753637E-01
         -2   -1    0    0    0  501 -0.00000000000E+00  0.00000000000E+00  0.22627978787E+04  0.22627978787E+04  0.25500000000E-02 0.  1.
          2   -1    0    0  501    0  0.00000000000E+00 -0.00000000000E+00 -0.11817830465E+04  0.11817830465E+04  0.25500000000E-02 0. -1.
    8880022    1    1    2    0    0  0.21807552023E+03 -0.62469447731E+03  0.21072580829E+04  0.22139847342E+04  0.15294330000E+03 0.  0.
    8880022    1    1    2    0    0 -0.21807552023E+03  0.62469447731E+03 -0.10262432507E+04  0.12305961910E+04  0.15294330000E+03 0.  0.
<mgrwt>
<rscale>  0 0.67911102E+03</rscale>
<asrwt>0</asrwt>
<pdfrwt beam="1">  1        2 0.18181278E+00 0.67911102E+03</pdfrwt>
<pdfrwt beam="2">  1       -2 0.34812275E+00 0.67911102E+03</pdfrwt>
<totfact> 0.33520101E-01</totfact>
</mgrwt>
</event>
<event>
 4    1  0.2202466E-008  0.8425240E+03  0.7818608E-02  0.9500426E-01
          2   -1    0    0  501    0  0.00000000000E+00  0.00000000000E+00  0.11911213254E+04  0.11911213254E+04  0.25500000000E-02 0. -1.
         -2   -1    0    0    0  501 -0.00000000000E+00 -0.00000000000E+00 -0.70247885217E+03  0.70247885218E+03  0.25500000000E-02 0.  1.
    8880022    1    1    2    0    0  0.36476737196E+03  0.74390845122E+03  0.61302608491E+03  0.10419441699E+04  0.15294330000E+03 0.  0.
    8880022    1    1    2    0    0 -0.36476737196E+03 -0.74390845122E+03 -0.12438361172E+03  0.85165600762E+03  0.15294330000E+03 0.  0.
<mgrwt>
<rscale>  0 0.84252399E+03</rscale>
<asrwt>0</asrwt>
<pdfrwt beam="1">  1        2 0.18324943E+00 0.84252399E+03</pdfrwt>
<pdfrwt beam="2">  1       -2 0.10807367E+00 0.84252399E+03</pdfrwt>
<totfact> 0.13264003E+01</totfact>
</mgrwt>
</event>
<event>
 4    1  0.2202466E-008  0.4161361E+03  0.7818608E-02  0.1038331E+00
         -2   -1    0    0    0  501 -0.00000000000E+00  0.00000000000E+00  0.38889166073E+03  0.38889166073E+03  0.25500000000E-02 0.  1.
          2   -1    0    0  501    0  0.00000000000E+00 -0.00000000000E+00 -0.13193501693E+04  0.13193501693E+04  0.25500000000E-02 0. -1.
    8880022    1    1    2    0    0 -0.27355714727E+03  0.27375919416E+03  0.22997140959E+03  0.47545358496E+03  0.15294330000E+03 0.  0.
    8880022    1    1    2    0    0  0.27355714727E+03 -0.27375919416E+03 -0.11604299181E+04  0.12327882450E+04  0.15294330000E+03 0.  0.
<mgrwt>
<rscale>  0 0.41613611E+03</rscale>
<asrwt>0</asrwt>
<pdfrwt beam="1">  1        2 0.20297695E+00 0.41613611E+03</pdfrwt>
<pdfrwt beam="2">  1       -2 0.59829487E-01 0.41613611E+03</pdfrwt>
<totfact> 0.44764487E+01</totfact>
</mgrwt>
</event>
<event>
 4    1  0.2202466E-008  0.1071947E+04  0.7818608E-02  0.9232974E-01
         -2   -1    0    0    0  501 -0.00000000000E+00  0.00000000000E+00  0.14127661369E+04  0.14127661369E+04  0.25500000000E-02 0.  1.
          2   -1    0    0  501    0  0.00000000000E+00 -0.00000000000E+00 -0.11980956759E+04  0.11980956759E+04  0.25500000000E-02 0. -1.
    8880022    1    1    2    0    0  0.85719419111E+03  0.62521700084E+03 -0.63243425643E+03  0.12446055283E+04  0.15294330000E+03 0.  0.
    8880022    1    1    2    0    0 -0.85719419111E+03 -0.62521700084E+03  0.84710471748E+03  0.13662562845E+04  0.15294330000E+03 0.  0.
<mgrwt>
<rscale>  0 0.10719467E+04</rscale>
<asrwt>0</asrwt>
<pdfrwt beam="1">  1        2 0.18432241E+00 0.10719467E+04</pdfrwt>
<pdfrwt beam="2">  1       -2 0.21734864E+00 0.10719467E+04</pdfrwt>
<totfact> 0.19217765E+00</totfact>
</mgrwt>
</event>
<event>
 4    1  0.2202466E-008  0.1183869E+04  0.7818608E-02  0.9127094E-01
          2   -1    0    0  501    0  0.00000000000E+00  0.00000000000E+00  0.12411678092E+04  0.12411678092E+04  0.25500000000E-02 0. -1.
         -2   -1    0    0    0  501 -0.00000000000E+00 -0.00000000000E+00 -0.26016555174E+04  0.26016555174E+04  0.25500000000E-02 0.  1.
    8880022    1    1    2    0    0  0.11009646600E+04  0.40746923327E+03 -0.21257312960E+04  0.24331624595E+04  0.15294330000E+03 0.  0.
    8880022    1    1    2    0    0 -0.11009646600E+04 -0.40746923327E+03  0.76524358772E+03  0.14096608671E+04  0.15294330000E+03 0.  0.
<mgrwt>
<rscale>  0 0.11838691E+04</rscale>
<asrwt>0</asrwt>
<pdfrwt beam="1">  1        2 0.19094889E+00 0.11838691E+04</pdfrwt>
<pdfrwt beam="2">  1       -2 0.40025469E+00 0.11838691E+04</pdfrwt>
<totfact> 0.13058677E-01</totfact>
</mgrwt>
</event>
<event>
 4    1  0.2202466E-008  0.6397753E+03  0.7818608E-02  0.9826157E-01
          2   -1    0    0  501    0  0.00000000000E+00  0.00000000000E+00  0.22674342590E+04  0.22674342590E+04  0.25500000000E-02 0. -1.
         -2   -1    0    0    0  501 -0.00000000000E+00 -0.00000000000E+00 -0.45736365154E+03  0.45736365155E+03  0.25500000000E-02 0.  1.
    8880022    1    1    2    0    0 -0.44878966949E+03 -0.42954466500E+03 -0.15493188289E+03  0.65826767201E+03  0.15294330000E+03 0.  0.
    8880022    1    1    2    0    0  0.44878966949E+03  0.42954466500E+03  0.19650024903E+04  0.20665302385E+04  0.15294330000E+03 0.  0.
<mgrwt>
<rscale>  0 0.63977530E+03</rscale>
<asrwt>0</asrwt>
<pdfrwt beam="1">  1        2 0.34883604E+00 0.63977530E+03</pdfrwt>
<pdfrwt beam="2">  1       -2 0.70363639E-01 0.63977530E+03</pdfrwt>
<totfact> 0.92400161E+00</totfact>
</mgrwt>
</event>
<event>
 4    1  0.2202466E-008  0.5888886E+03  0.7818608E-02  0.9928731E-01
          2   -1    0    0  501    0  0.00000000000E+00  0.00000000000E+00  0.10109500677E+04  0.10109500677E+04  0.25500000000E-02 0. -1.
         -2   -1    0    0    0  501 -0.00000000000E+00 -0.00000000000E+00 -0.68402391458E+03  0.68402391459E+03  0.25500000000E-02 0.  1.
    8880022    1    1    2    0    0 -0.52901186744E+02  0.56621512532E+03  0.76183123188E+03  0.96290008961E+03  0.15294330000E+03 0.  0.
    8880022    1    1    2    0    0  0.52901186744E+02 -0.56621512532E+03 -0.43490507880E+03  0.73207389264E+03  0.15294330000E+03 0.  0.
<mgrwt>
<rscale>  0 0.58888858E+03</rscale>
<asrwt>0</asrwt>
<pdfrwt beam="1">  1        2 0.15553078E+00 0.58888858E+03</pdfrwt>
<pdfrwt beam="2">  1       -2 0.10523445E+00 0.58888858E+03</pdfrwt>
<totfact> 0.18784961E+01</totfact>
</mgrwt>
</event>
<event>
 4    1  0.2202466E-008  0.1303980E+04  0.7818608E-02  0.9026415E-01
          2   -1    0    0  501    0  0.00000000000E+00  0.00000000000E+00  0.25332042643E+04  0.25332042643E+04  0.25500000000E-02 0. -1.
         -2   -1    0    0    0  501 -0.00000000000E+00 -0.00000000000E+00 -0.70667608204E+03  0.70667608205E+03  0.25500000000E-02 0.  1.
    8880022    1    1    2    0    0  0.72289088144E+03 -0.10744307262E+04  0.55046256115E+03  0.14154057002E+04  0.15294330000E+03 0.  0.
    8880022    1    1    2    0    0 -0.72289088144E+03  0.10744307262E+04  0.12760656211E+04  0.18244746461E+04  0.15294330000E+03 0.  0.
<mgrwt>
<rscale>  0 0.13039802E+04</rscale>
<asrwt>0</asrwt>
<pdfrwt beam="1">  1        2 0.38972374E+00 0.13039802E+04</pdfrwt>
<pdfrwt beam="2">  1       -2 0.10871940E+00 0.13039802E+04</pdfrwt>
<totfact> 0.21854467E+00</totfact>
</mgrwt>
</event>
<event>
 4    1  0.2202466E-008  0.3863805E+03  0.7818608E-02  0.1048600E+00
         -2   -1    0    0    0  501 -0.00000000000E+00  0.00000000000E+00  0.13522867306E+03  0.13522867309E+03  0.25500000000E-02 0.  1.
          2   -1    0    0  501    0  0.00000000000E+00 -0.00000000000E+00 -0.20596320148E+04  0.20596320148E+04  0.25500000000E-02 0. -1.
    8880022    1    1    2    0    0 -0.41043385329E+02 -0.35243958114E+03 -0.21466614825E+03  0.44200840043E+03  0.15294330000E+03 0.  0.
    8880022    1    1    2    0    0  0.41043385329E+02  0.35243958114E+03 -0.17097371935E+04  0.17528522875E+04  0.15294330000E+03 0.  0.
<mgrwt>
<rscale>  0 0.38638047E+03</rscale>
<asrwt>0</asrwt>
<pdfrwt beam="1">  1        2 0.31686644E+00 0.38638047E+03</pdfrwt>
<pdfrwt beam="2">  1       -2 0.20804413E-01 0.38638047E+03</pdfrwt>
<totfact> 0.13303166E+02</totfact>
</mgrwt>
</event>
<event>
 4    1  0.2202466E-008  0.6966995E+03  0.7818608E-02  0.9722893E-01
         -2   -1    0    0    0  501 -0.00000000000E+00  0.00000000000E+00  0.26599004901E+03  0.26599004902E+03  0.25500000000E-02 0.  1.
          2   -1    0    0  501    0  0.00000000000E+00 -0.00000000000E+00 -0.25873460446E+04  0.25873460446E+04  0.25500000000E-02 0. -1.
    8880022    1    1    2    0    0 -0.67807620384E+03  0.47023936659E+02 -0.38618714564E+03  0.79657438655E+03  0.15294330000E+03 0.  0.
    8880022    1    1    2    0    0  0.67807620384E+03 -0.47023936659E+02 -0.19351688500E+04  0.20567617071E+04  0.15294330000E+03 0.  0.
<mgrwt>
<rscale>  0 0.69669953E+03</rscale>
<asrwt>0</asrwt>
<pdfrwt beam="1">  1        2 0.39805322E+00 0.69669953E+03</pdfrwt>
<pdfrwt beam="2">  1       -2 0.40921548E-01 0.69669953E+03</pdfrwt>
<totfact> 0.18515112E+01</totfact>
</mgrwt>
</event>
<event>
 4    1  0.2202466E-008  0.1639730E+04  0.7818608E-02  0.8796505E-01
          2   -1    0    0  501    0  0.00000000000E+00  0.00000000000E+00  0.40331987285E+04  0.40331987285E+04  0.25500000000E-02 0. -1.
         -2   -1    0    0    0  501 -0.00000000000E+00 -0.00000000000E+00 -0.95837363044E+03  0.95837363044E+03  0.25500000000E-02 0.  1.
    8880022    1    1    2    0    0  0.15916308576E+04 -0.36336631307E+03  0.29143961939E+04  0.33440126633E+04  0.15294330000E+03 0.  0.
    8880022    1    1    2    0    0 -0.15916308576E+04  0.36336631307E+03  0.16042890421E+03  0.16475596957E+04  0.15294330000E+03 0.  0.
<mgrwt>
<rscale>  0 0.16397303E+04</rscale>
<asrwt>0</asrwt>
<pdfrwt beam="1">  1        2 0.62049211E+00 0.16397303E+04</pdfrwt>
<pdfrwt beam="2">  1       -2 0.14744210E+00 0.16397303E+04</pdfrwt>
<totfact> 0.95189161E-02</totfact>
</mgrwt>
</event>
<event>
 4    1  0.2202466E-008  0.4076612E+03  0.7818608E-02  0.1041159E+00
          2   -1    0    0  501    0  0.00000000000E+00  0.00000000000E+00  0.17415207131E+04  0.17415207131E+04  0.25500000000E-02 0. -1.
         -2   -1    0    0    0  501 -0.00000000000E+00 -0.00000000000E+00 -0.19933411840E+03  0.19933411841E+03  0.25500000000E-02 0.  1.
    8880022    1    1    2    0    0 -0.30814388196E+03 -0.21873116709E+03  0.70452454416E+02  0.41370421414E+03  0.15294330000E+03 0.  0.
    8880022    1    1    2    0    0  0.30814388196E+03  0.21873116709E+03  0.14717341402E+04  0.15271506173E+04  0.15294330000E+03 0.  0.
<mgrwt>
<rscale>  0 0.40766117E+03</rscale>
<asrwt>0</asrwt>
<pdfrwt beam="1">  1        2 0.26792627E+00 0.40766117E+03</pdfrwt>
<pdfrwt beam="2">  1       -2 0.30666787E-01 0.40766117E+03</pdfrwt>
<totfact> 0.97845040E+01</totfact>
</mgrwt>
</event>
<event>
 4    1  0.2202466E-008  0.1479950E+04  0.7818608E-02  0.8897897E-01
         -2   -1    0    0    0  501 -0.00000000000E+00  0.00000000000E+00  0.87199048645E+03  0.87199048645E+03  0.25500000000E-02 0.  1.
          2   -1    0    0  501    0  0.00000000000E+00 -0.00000000000E+00 -0.33566381010E+04  0.33566381010E+04  0.25500000000E-02 0. -1.
    8880022    1    1    2    0    0  0.75098518799E+03  0.12660493120E+04 -0.18158541630E+03  0.14910481311E+04  0.15294330000E+03 0.  0.
    8880022    1    1    2    0    0 -0.75098518799E+03 -0.12660493120E+04 -0.23030621982E+04  0.27375804563E+04  0.15294330000E+03 0.  0.
<mgrwt>
<rscale>  0 0.14799498E+04</rscale>
<asrwt>0</asrwt>
<pdfrwt beam="1">  1        2 0.51640585E+00 0.14799498E+04</pdfrwt>
<pdfrwt beam="2">  1       -2 0.13415238E+00 0.14799498E+04</pdfrwt>
<totfact> 0.39112188E-01</totfact>
</mgrwt>
</event>
<event>
 4    1  0.2202466E-008  0.1230908E+04  0.7818608E-02  0.9086225E-01
          2   -1    0    0  501    0  0.00000000000E+00  0.00000000000E+00  0.15349876357E+04  0.15349876357E+04  0.25500000000E-02 0. -1.
         -2   -1    0    0    0  501 -0.00000000000E+00 -0.00000000000E+00 -0.10193656007E+04  0.10193656007E+04  0.25500000000E-02 0.  1.
    8880022    1    1    2    0    0 -0.11538990108E+04  0.40032331141E+03  0.48515733798E+03  0.13230687724E+04  0.15294330000E+03 0.  0.
    8880022    1    1    2    0    0  0.11538990108E+04 -0.40032331141E+03  0.30464697038E+02  0.12312844641E+04  0.15294330000E+03 0.  0.
<mgrwt>
<rscale>  0 0.12309075E+04</rscale>
<asrwt>0</asrwt>
<pdfrwt beam="1">  1        2 0.23615194E+00 0.12309075E+04</pdfrwt>
<pdfrwt beam="2">  1       -2 0.15682548E+00 0.12309075E+04</pdfrwt>
<totfact> 0.31249507E+00</totfact>
</mgrwt>
</event>
<event>
 4    1  0.2202466E-008  0.3984049E+03  0.7818608E-02  0.1044333E+00
         -2   -1    0    0    0  501 -0.00000000000E+00  0.00000000000E+00  0.15484222176E+04  0.15484222176E+04  0.25500000000E-02 0.  1.
          2   -1    0    0  501    0  0.00000000000E+00 -0.00000000000E+00 -0.92449215699E+03  0.92449215699E+03  0.25500000000E-02 0. -1.
    8880022    1    1    2    0    0  0.68458089936E+02 -0.36145308646E+03  0.14778589820E+04  0.15306187205E+04  0.15294330000E+03 0.  0.
    8880022    1    1    2    0    0 -0.68458089936E+02  0.36145308646E+03 -0.85392892144E+03  0.94229565407E+03  0.15294330000E+03 0.  0.
<mgrwt>
<rscale>  0 0.39840494E+03</rscale>
<asrwt>0</asrwt>
<pdfrwt beam="1">  1        2 0.14222956E+00 0.39840494E+03</pdfrwt>
<pdfrwt beam="2">  1       -2 0.23821880E+00 0.39840494E+03</pdfrwt>
<totfact> 0.23879004E+00</totfact>
</mgrwt>
</event>
<event>
 4    1  0.2202466E-008  0.8954970E+03  0.7818608E-02  0.9431228E-01
         -2   -1    0    0    0  501 -0.00000000000E+00  0.00000000000E+00  0.71855070320E+03  0.71855070321E+03  0.25500000000E-02 0.  1.
          2   -1    0    0  501    0  0.00000000000E+00 -0.00000000000E+00 -0.32450021159E+04  0.32450021159E+04  0.25500000000E-02 0. -1.
    8880022    1    1    2    0    0  0.72394971169E+03 -0.50440063002E+03 -0.28684416701E+04  0.30049746169E+04  0.15294330000E+03 0.  0.
    8880022    1    1    2    0    0 -0.72394971169E+03  0.50440063002E+03  0.34199025737E+03  0.95857820222E+03  0.15294330000E+03 0.  0.
<mgrwt>
<rscale>  0 0.89549698E+03</rscale>
<asrwt>0</asrwt>
<pdfrwt beam="1">  1        2 0.49923109E+00 0.89549698E+03</pdfrwt>
<pdfrwt beam="2">  1       -2 0.11054626E+00 0.89549698E+03</pdfrwt>
<totfact> 0.82180796E-01</totfact>
</mgrwt>
</event>
<event>
 4    1  0.2202466E-008  0.1005481E+04  0.7818608E-02  0.9302553E-01
          2   -1    0    0  501    0  0.00000000000E+00  0.00000000000E+00  0.24896742053E+04  0.24896742053E+04  0.25500000000E-02 0. -1.
         -2   -1    0    0    0  501 -0.00000000000E+00 -0.00000000000E+00 -0.93744048587E+03  0.93744048587E+03  0.25500000000E-02 0.  1.
    8880022    1    1    2    0    0 -0.37717760740E+03  0.91942280611E+03 -0.51398415416E+03  0.11292354084E+04  0.15294330000E+03 0.  0.
    8880022    1    1    2    0    0  0.37717760740E+03 -0.91942280611E+03  0.20662178736E+04  0.22978792828E+04  0.15294330000E+03 0.  0.
<mgrwt>
<rscale>  0 0.10054814E+04</rscale>
<asrwt>0</asrwt>
<pdfrwt beam="1">  1        2 0.38302680E+00 0.10054814E+04</pdfrwt>
<pdfrwt beam="2">  1       -2 0.14422161E+00 0.10054814E+04</pdfrwt>
<totfact> 0.11787415E+00</totfact>
</mgrwt>
</event>
<event>
 4    1  0.2202466E-008  0.9391478E+03  0.7818608E-02  0.9377926E-01
         -2   -1    0    0    0  501 -0.00000000000E+00  0.00000000000E+00  0.10773121148E+04  0.10773121148E+04  0.25500000000E-02 0.  1.
          2   -1    0    0  501    0  0.00000000000E+00 -0.00000000000E+00 -0.12982867837E+04  0.12982867837E+04  0.25500000000E-02 0. -1.
    8880022    1    1    2    0    0 -0.44870135068E+03  0.81072436942E+03 -0.83240902271E+03  0.12549515287E+04  0.15294330000E+03 0.  0.
    8880022    1    1    2    0    0  0.44870135068E+03 -0.81072436942E+03  0.61143435389E+03  0.11206473698E+04  0.15294330000E+03 0.  1.
<mgrwt>
<rscale>  0 0.93914778E+03</rscale>
<asrwt>0</asrwt>
<pdfrwt beam="1">  1        2 0.19973643E+00 0.93914778E+03</pdfrwt>
<pdfrwt beam="2">  1       -2 0.16574033E+00 0.93914778E+03</pdfrwt>
<totfact> 0.37835817E+00</totfact>
</mgrwt>
</event>
<event>
 4    1  0.2202466E-008  0.9381060E+03  0.7818608E-02  0.9379162E-01
         -2   -1    0    0    0  501 -0.00000000000E+00  0.00000000000E+00  0.31861587144E+04  0.31861587144E+04  0.25500000000E-02 0.  1.
          2   -1    0    0  501    0  0.00000000000E+00 -0.00000000000E+00 -0.45350470411E+03  0.45350470411E+03  0.25500000000E-02 0. -1.
    8880022    1    1    2    0    0 -0.88939444998E+03  0.25618089657E+03  0.22846247758E+03  0.96552467400E+03  0.15294330000E+03 0.  0.
    8880022    1    1    2    0    0  0.88939444998E+03 -0.25618089657E+03  0.25041915328E+04  0.26741387446E+04  0.15294330000E+03 0.  0.
<mgrwt>
<rscale>  0 0.93810596E+03</rscale>
<asrwt>0</asrwt>
<pdfrwt beam="1">  1        2 0.69769957E-01 0.93810596E+03</pdfrwt>
<pdfrwt beam="2">  1       -2 0.49017825E+00 0.93810596E+03</pdfrwt>
<totfact> 0.13437177E-01</totfact>
</mgrwt>
</event>
<event>
 4    1  0.2202466E-008  0.1048004E+04  0.7818608E-02  0.9257407E-01
         -2   -1    0    0    0  501 -0.00000000000E+00  0.00000000000E+00  0.10922355276E+04  0.10922355276E+04  0.25500000000E-02 0.  1.
          2   -1    0    0  501    0  0.00000000000E+00 -0.00000000000E+00 -0.13395597627E+04  0.13395597627E+04  0.25500000000E-02 0. -1.
    8880022    1    1    2    0    0 -0.64204517875E+03  0.81406319733E+03  0.48347467431E+03  0.11541491734E+04  0.15294330000E+03 0.  0.
    8880022    1    1    2    0    0  0.64204517875E+03 -0.81406319733E+03 -0.73079890940E+03  0.12776461168E+04  0.15294330000E+03 0.  0.
<mgrwt>
<rscale>  0 0.10480041E+04</rscale>
<asrwt>0</asrwt>
<pdfrwt beam="1">  1        2 0.20608612E+00 0.10480041E+04</pdfrwt>
<pdfrwt beam="2">  1       -2 0.16803623E+00 0.10480041E+04</pdfrwt>
<totfact> 0.34042055E+00</totfact>
</mgrwt>
</event>
<event>
 4    1  0.2202466E-008  0.7945378E+03  0.7818608E-02  0.9567957E-01
          2   -1    0    0  501    0  0.00000000000E+00  0.00000000000E+00  0.24531808553E+04  0.24531808553E+04  0.25500000000E-02 0. -1.
         -2   -1    0    0    0  501 -0.00000000000E+00 -0.00000000000E+00 -0.48837858189E+03  0.48837858189E+03  0.25500000000E-02 0.  1.
    8880022    1    1    2    0    0 -0.15796249809E+03 -0.76350930316E+03  0.19940176563E+04  0.21464847247E+04  0.15294330000E+03 0.  0.
    8880022    1    1    2    0    0  0.15796249809E+03  0.76350930316E+03 -0.29215382882E+02  0.79507471248E+03  0.15294330000E+03 0.  0.
<mgrwt>
<rscale>  0 0.79453776E+03</rscale>
<asrwt>0</asrwt>
<pdfrwt beam="1">  1        2 0.37741243E+00 0.79453776E+03</pdfrwt>
<pdfrwt beam="2">  1       -2 0.75135169E-01 0.79453776E+03</pdfrwt>
<totfact> 0.61304966E+00</totfact>
</mgrwt>
</event>
<event>
 4    1  0.2202466E-008  0.4119497E+03  0.7818608E-02  0.1039719E+00
          2   -1    0    0  501    0  0.00000000000E+00  0.00000000000E+00  0.12233967180E+04  0.12233967180E+04  0.25500000000E-02 0. -1.
         -2   -1    0    0    0  501 -0.00000000000E+00 -0.00000000000E+00 -0.42398999110E+03  0.42398999110E+03  0.25500000000E-02 0.  1.
    8880022    1    1    2    0    0 -0.31305050593E+03  0.21979608159E+03 -0.27594411669E+03  0.49583035939E+03  0.15294330000E+03 0.  0.
    8880022    1    1    2    0    0  0.31305050593E+03 -0.21979608159E+03  0.10753508436E+04  0.11515563497E+04  0.15294330000E+03 0.  0.
<mgrwt>
<rscale>  0 0.41194974E+03</rscale>
<asrwt>0</asrwt>
<pdfrwt beam="1">  1        2 0.18821488E+00 0.41194974E+03</pdfrwt>
<pdfrwt beam="2">  1       -2 0.65229229E-01 0.41194974E+03</pdfrwt>
<totfact> 0.42324965E+01</totfact>
</mgrwt>
</event>
<event>
 4    1  0.2202466E-008  0.9000199E+03  0.7818608E-02  0.9425557E-01
         -2   -1    0    0    0  501 -0.00000000000E+00  0.00000000000E+00  0.54056123968E+03  0.54056123968E+03  0.25500000000E-02 0.  1.
          2   -1    0    0  501    0  0.00000000000E+00 -0.00000000000E+00 -0.19881036287E+04  0.19881036287E+04  0.25500000000E-02 0. -1.
    8880022    1    1    2    0    0  0.85915502524E+03  0.22021995657E+03 -0.13511937506E+04  0.16235025074E+04  0.15294330000E+03 0.  0.
    8880022    1    1    2    0    0 -0.85915502524E+03 -0.22021995657E+03 -0.96348638394E+02  0.90516236102E+03  0.15294330000E+03 0.  0.
<mgrwt>
<rscale>  0 0.90001991E+03</rscale>
<asrwt>0</asrwt>
<pdfrwt beam="1">  1        2 0.30586209E+00 0.90001991E+03</pdfrwt>
<pdfrwt beam="2">  1       -2 0.83163269E-01 0.90001991E+03</pdfrwt>
<totfact> 0.87088707E+00</totfact>
</mgrwt>
</event>
<event>
 4    1  0.2202466E-008  0.7786666E+03  0.7818608E-02  0.9591420E-01
         -2   -1    0    0    0  501 -0.00000000000E+00  0.00000000000E+00  0.23101051420E+03  0.23101051421E+03  0.25500000000E-02 0.  1.
          2   -1    0    0  501    0  0.00000000000E+00 -0.00000000000E+00 -0.32766922558E+04  0.32766922558E+04  0.25500000000E-02 0. -1.
    8880022    1    1    2    0    0  0.16292118959E+03  0.74591333613E+03 -0.74046951786E+03  0.10745309576E+04  0.15294330000E+03 0.  0.
    8880022    1    1    2    0    0 -0.16292118959E+03 -0.74591333613E+03 -0.23052122238E+04  0.24331718124E+04  0.15294330000E+03 0.  0.
<mgrwt>
<rscale>  0 0.77866660E+03</rscale>
<asrwt>0</asrwt>
<pdfrwt beam="1">  1        2 0.50410647E+00 0.77866660E+03</pdfrwt>
<pdfrwt beam="2">  1       -2 0.35540082E-01 0.77866660E+03</pdfrwt>
<totfact> 0.91612667E+00</totfact>
</mgrwt>
</event>
<event>
 4    1  0.2202466E-008  0.1279254E+04  0.7818608E-02  0.9046181E-01
          2   -1    0    0  501    0  0.00000000000E+00  0.00000000000E+00  0.17091674040E+04  0.17091674040E+04  0.25500000000E-02 0. -1.
         -2   -1    0    0    0  501 -0.00000000000E+00 -0.00000000000E+00 -0.26553619826E+04  0.26553619826E+04  0.25500000000E-02 0.  1.
    8880022    1    1    2    0    0 -0.12553679403E+04 -0.19274285695E+03 -0.22181139184E+04  0.25605701480E+04  0.15294330000E+03 0.  0.
    8880022    1    1    2    0    0  0.12553679403E+04  0.19274285695E+03  0.12719193398E+04  0.18039592386E+04  0.15294330000E+03 0.  0.
<mgrwt>
<rscale>  0 0.12792537E+04</rscale>
<asrwt>0</asrwt>
<pdfrwt beam="1">  1        2 0.26294883E+00 0.12792537E+04</pdfrwt>
<pdfrwt beam="2">  1       -2 0.40851723E+00 0.12792537E+04</pdfrwt>
<totfact> 0.61432061E-02</totfact>
</mgrwt>
</event>
<event>
 4    1  0.2202466E-008  0.5670441E+03  0.7818608E-02  0.9976241E-01
         -2   -1    0    0    0  501 -0.00000000000E+00  0.00000000000E+00  0.34921149035E+03  0.34921149036E+03  0.25500000000E-02 0.  1.
          2   -1    0    0  501    0  0.00000000000E+00 -0.00000000000E+00 -0.16061163943E+04  0.16061163943E+04  0.25500000000E-02 0. -1.
    8880022    1    1    2    0    0 -0.54555424311E+03 -0.22758077408E+02  0.10193542868E+02  0.56713571885E+03  0.15294330000E+03 0.  0.
    8880022    1    1    2    0    0  0.54555424311E+03  0.22758077408E+02 -0.12670984468E+04  0.13881921658E+04  0.15294330000E+03 0.  0.
<mgrwt>
<rscale>  0 0.56704410E+03</rscale>
<asrwt>0</asrwt>
<pdfrwt beam="1">  1        2 0.24709483E+00 0.56704410E+03</pdfrwt>
<pdfrwt beam="2">  1       -2 0.53724845E-01 0.56704410E+03</pdfrwt>
<totfact> 0.37897626E+01</totfact>
</mgrwt>
</event>
<event>
 4    1  0.2202466E-008  0.1427586E+04  0.7818608E-02  0.8934089E-01
         -2   -1    0    0    0  501 -0.00000000000E+00  0.00000000000E+00  0.17365672655E+04  0.17365672655E+04  0.25500000000E-02 0.  1.
          2   -1    0    0  501    0  0.00000000000E+00 -0.00000000000E+00 -0.25622357688E+04  0.25622357688E+04  0.25500000000E-02 0. -1.
    8880022    1    1    2    0    0  0.68070854314E+03 -0.12454901508E+04 -0.19951940058E+04  0.24533243997E+04  0.15294330000E+03 0.  0.
    8880022    1    1    2    0    0 -0.68070854314E+03  0.12454901508E+04  0.11695255026E+04  0.18454786346E+04  0.15294330000E+03 0.  0.
<mgrwt>
<rscale>  0 0.14275859E+04</rscale>
<asrwt>0</asrwt>
<pdfrwt beam="1">  1        2 0.39419012E+00 0.14275859E+04</pdfrwt>
<pdfrwt beam="2">  1       -2 0.26716419E+00 0.14275859E+04</pdfrwt>
<totfact> 0.15296998E-01</totfact>
</mgrwt>
</event>
<event>
 4    1  0.2202466E-008  0.1364506E+04  0.7818608E-02  0.8979920E-01
          2   -1    0    0  501    0  0.00000000000E+00  0.00000000000E+00  0.38510027484E+04  0.38510027484E+04  0.25500000000E-02 0. -1.
         -2   -1    0    0    0  501 -0.00000000000E+00 -0.00000000000E+00 -0.52583862853E+03  0.52583862854E+03  0.25500000000E-02 0.  1.
    8880022    1    1    2    0    0  0.42356185057E+03 -0.12880524337E+04  0.10414478909E+04  0.17165340299E+04  0.15294330000E+03 0.  0.
    8880022    1    1    2    0    0 -0.42356185057E+03  0.12880524337E+04  0.22837162290E+04  0.26603073470E+04  0.15294330000E+03 0.  0.
<mgrwt>
<rscale>  0 0.13645055E+04</rscale>
<asrwt>0</asrwt>
<pdfrwt beam="1">  1        2 0.59246195E+00 0.13645055E+04</pdfrwt>
<pdfrwt beam="2">  1       -2 0.80898252E-01 0.13645055E+04</pdfrwt>
<totfact> 0.59808096E-01</totfact>
</mgrwt>
</event>
<event>
 4    1  0.2202466E-008  0.1238249E+04  0.7818608E-02  0.9080021E-01
         -2   -1    0    0    0  501 -0.00000000000E+00  0.00000000000E+00  0.59915928208E+03  0.59915928208E+03  0.25500000000E-02 0.  1.
          2   -1    0    0  501    0  0.00000000000E+00 -0.00000000000E+00 -0.38323380830E+04  0.38323380830E+04  0.25500000000E-02 0. -1.
    8880022    1    1    2    0    0  0.29965369141E+03 -0.11916697739E+04 -0.33939509353E+03  0.12839197278E+04  0.15294330000E+03 0.  0.
    8880022    1    1    2    0    0 -0.29965369141E+03  0.11916697739E+04 -0.28937837074E+04  0.31475776374E+04  0.15294330000E+03 0.  0.
<mgrwt>
<rscale>  0 0.12382491E+04</rscale>
<asrwt>0</asrwt>
<pdfrwt beam="1">  1        2 0.58959046E+00 0.12382491E+04</pdfrwt>
<pdfrwt beam="2">  1       -2 0.92178354E-01 0.12382491E+04</pdfrwt>
<totfact> 0.46570916E-01</totfact>
</mgrwt>
</event>
<event>
 4    1  0.2202466E-008  0.3743661E+03  0.7818608E-02  0.1053036E+00
         -2   -1    0    0    0  501 -0.00000000000E+00  0.00000000000E+00  0.13144595735E+04  0.13144595735E+04  0.25500000000E-02 0.  1.
          2   -1    0    0  501    0  0.00000000000E+00 -0.00000000000E+00 -0.92145069561E+03  0.92145069561E+03  0.25500000000E-02 0. -1.
    8880022    1    1    2    0    0 -0.33502832930E+03 -0.67188962667E+02  0.12477920481E+04  0.13027413352E+04  0.15294330000E+03 0.  0.
    8880022    1    1    2    0    0  0.33502832930E+03  0.67188962667E+02 -0.85478317021E+03  0.93316893391E+03  0.15294330000E+03 0.  0.
<mgrwt>
<rscale>  0 0.37436612E+03</rscale>
<asrwt>0</asrwt>
<pdfrwt beam="1">  1        2 0.14176164E+00 0.37436612E+03</pdfrwt>
<pdfrwt beam="2">  1       -2 0.20222455E+00 0.37436612E+03</pdfrwt>
<totfact> 0.40279102E+00</totfact>
</mgrwt>
</event>
<event>
 4    1  0.2202466E-008  0.1798822E+04  0.7818608E-02  0.8706926E-01
          2   -1    0    0  501    0  0.00000000000E+00  0.00000000000E+00  0.32204468163E+04  0.32204468163E+04  0.25500000000E-02 0. -1.
         -2   -1    0    0    0  501 -0.00000000000E+00 -0.00000000000E+00 -0.11050157257E+04  0.11050157257E+04  0.25500000000E-02 0.  1.
    8880022    1    1    2    0    0  0.16603057066E+04  0.67509587993E+03  0.40626265757E+03  0.18441286524E+04  0.15294330000E+03 0.  0.
    8880022    1    1    2    0    0 -0.16603057066E+04 -0.67509587993E+03  0.17091684330E+04  0.24813338897E+04  0.15294330000E+03 0.  0.
<mgrwt>
<rscale>  0 0.17988222E+04</rscale>
<asrwt>0</asrwt>
<pdfrwt beam="1">  1        2 0.49545335E+00 0.17988222E+04</pdfrwt>
<pdfrwt beam="2">  1       -2 0.17000242E+00 0.17988222E+04</pdfrwt>
<totfact> 0.24551293E-01</totfact>
</mgrwt>
</event>
<event>
 4    1  0.2202466E-008  0.6980909E+03  0.7818608E-02  0.9720503E-01
          2   -1    0    0  501    0  0.00000000000E+00  0.00000000000E+00  0.11240494463E+04  0.11240494463E+04  0.25500000000E-02 0. -1.
         -2   -1    0    0    0  501 -0.00000000000E+00 -0.00000000000E+00 -0.96832424132E+03  0.96832424132E+03  0.25500000000E-02 0.  1.
    8880022    1    1    2    0    0 -0.63231154224E+03 -0.25322196979E+03 -0.69960868057E+03  0.98832343460E+03  0.15294330000E+03 0.  0.
    8880022    1    1    2    0    0  0.63231154224E+03  0.25322196979E+03  0.85533388556E+03  0.11040502530E+04  0.15294330000E+03 0.  0.
<mgrwt>
<rscale>  0 0.69809090E+03</rscale>
<asrwt>0</asrwt>
<pdfrwt beam="1">  1        2 0.17293068E+00 0.69809090E+03</pdfrwt>
<pdfrwt beam="2">  1       -2 0.14897296E+00 0.69809090E+03</pdfrwt>
<totfact> 0.66010504E+00</totfact>
</mgrwt>
</event>
<event>
 4    1  0.2202466E-008  0.1325756E+04  0.7818608E-02  0.9009386E-01
          2   -1    0    0  501    0  0.00000000000E+00  0.00000000000E+00  0.29971528478E+04  0.29971528478E+04  0.25500000000E-02 0. -1.
         -2   -1    0    0    0  501 -0.00000000000E+00 -0.00000000000E+00 -0.72205362201E+03  0.72205362201E+03  0.25500000000E-02 0.  1.
    8880022    1    1    2    0    0  0.72806362853E+03  0.10973427232E+04  0.19434816589E+04  0.23526050053E+04  0.15294330000E+03 0.  0.
    8880022    1    1    2    0    0 -0.72806362853E+03 -0.10973427232E+04  0.33161756688E+03  0.13666014646E+04  0.15294330000E+03 0.  0.
<mgrwt>
<rscale>  0 0.13257561E+04</rscale>
<asrwt>0</asrwt>
<pdfrwt beam="1">  1        2 0.46110044E+00 0.13257561E+04</pdfrwt>
<pdfrwt beam="2">  1       -2 0.11108517E+00 0.13257561E+04</pdfrwt>
<totfact> 0.10917174E+00</totfact>
</mgrwt>
</event>
<event>
 4    1  0.2202466E-008  0.3724239E+03  0.7818608E-02  0.1053770E+00
          2   -1    0    0  501    0  0.00000000000E+00  0.00000000000E+00  0.14320715247E+04  0.14320715247E+04  0.25500000000E-02 0. -1.
         -2   -1    0    0    0  501 -0.00000000000E+00 -0.00000000000E+00 -0.54399269414E+03  0.54399269414E+03  0.25500000000E-02 0.  1.
    8880022    1    1    2    0    0 -0.65707801254E+02 -0.33315222956E+03 -0.45173040236E+03  0.58545702886E+03  0.15294330000E+03 0.  0.
    8880022    1    1    2    0    0  0.65707801254E+02  0.33315222956E+03  0.13398092329E+04  0.13906071900E+04  0.15294330000E+03 0. -1.
<mgrwt>
<rscale>  0 0.37242392E+03</rscale>
<asrwt>0</asrwt>
<pdfrwt beam="1">  1        2 0.22031869E+00 0.37242392E+03</pdfrwt>
<pdfrwt beam="2">  1       -2 0.83691184E-01 0.37242392E+03</pdfrwt>
<totfact> 0.18900077E+01</totfact>
</mgrwt>
</event>
<event>
 4    1  0.2202466E-008  0.8401562E+03  0.7818608E-02  0.9503645E-01
         -2   -1    0    0    0  501 -0.00000000000E+00  0.00000000000E+00  0.11333371243E+04  0.11333371243E+04  0.25500000000E-02 0.  1.
          2   -1    0    0  501    0  0.00000000000E+00 -0.00000000000E+00 -0.19097408648E+04  0.19097408648E+04  0.25500000000E-02 0. -1.
    8880022    1    1    2    0    0 -0.76154318107E+03 -0.32019168257E+03  0.86082614986E+03  0.12028649315E+04  0.15294330000E+03 0.  0.
    8880022    1    1    2    0    0  0.76154318107E+03  0.32019168257E+03 -0.16372298903E+04  0.18402130575E+04  0.15294330000E+03 0.  0.
<mgrwt>
<rscale>  0 0.84015617E+03</rscale>
<asrwt>0</asrwt>
<pdfrwt beam="1">  1        2 0.29380629E+00 0.84015617E+03</pdfrwt>
<pdfrwt beam="2">  1       -2 0.17435956E+00 0.84015617E+03</pdfrwt>
<totfact> 0.15206074E+00</totfact>
</mgrwt>
</event>
<event>
 4    1  0.2202466E-008  0.5839410E+03  0.7818608E-02  0.9939295E-01
         -2   -1    0    0    0  501 -0.00000000000E+00  0.00000000000E+00  0.11408318963E+03  0.11408318966E+03  0.25500000000E-02 0.  1.
          2   -1    0    0  501    0  0.00000000000E+00 -0.00000000000E+00 -0.41714232824E+04  0.41714232824E+04  0.25500000000E-02 0. -1.
    8880022    1    1    2    0    0 -0.15384788995E+03  0.54214963164E+03 -0.31695205976E+04  0.32228633028E+04  0.15294330000E+03 0.  0.
    8880022    1    1    2    0    0  0.15384788995E+03 -0.54214963164E+03 -0.88781949508E+03  0.10626431693E+04  0.15294330000E+03 0.  0.
<mgrwt>
<rscale>  0 0.58394096E+03</rscale>
<asrwt>0</asrwt>
<pdfrwt beam="1">  1        2 0.64175731E+00 0.58394096E+03</pdfrwt>
<pdfrwt beam="2">  1       -2 0.17551263E-01 0.58394096E+03</pdfrwt>
<totfact> 0.76283011E+00</totfact>
</mgrwt>
</event>
<event>
 4    1  0.2202466E-008  0.7631717E+03  0.7818608E-02  0.9614910E-01
          2   -1    0    0  501    0  0.00000000000E+00  0.00000000000E+00  0.81377176963E+03  0.81377176964E+03  0.25500000000E-02 0. -1.
         -2   -1    0    0    0  501 -0.00000000000E+00 -0.00000000000E+00 -0.18680039512E+04  0.18680039512E+04  0.25500000000E-02 0.  1.
    8880022    1    1    2    0    0 -0.74573676710E+03 -0.54000648649E+02 -0.15802502745E+04  0.17548851755E+04  0.15294330000E+03 0.  0.
    8880022    1    1    2    0    0  0.74573676710E+03  0.54000648649E+02  0.52601809301E+03  0.92689054534E+03  0.15294330000E+03 0.  0.
<mgrwt>
<rscale>  0 0.76317170E+03</rscale>
<asrwt>0</asrwt>
<pdfrwt beam="1">  1        2 0.12519566E+00 0.76317170E+03</pdfrwt>
<pdfrwt beam="2">  1       -2 0.28738522E+00 0.76317170E+03</pdfrwt>
<totfact> 0.13274363E+00</totfact>
</mgrwt>
</event>
<event>
 4    1  0.2202466E-008  0.3512022E+03  0.7818608E-02  0.1062123E+00
          2   -1    0    0  501    0  0.00000000000E+00  0.00000000000E+00  0.13012733341E+04  0.13012733341E+04  0.25500000000E-02 0. -1.
         -2   -1    0    0    0  501 -0.00000000000E+00 -0.00000000000E+00 -0.87718890664E+03  0.87718890665E+03  0.25500000000E-02 0.  1.
    8880022    1    1    2    0    0  0.31046905650E+03  0.59668266115E+02  0.12407418767E+04  0.12894895868E+04  0.15294330000E+03 0. -1.
    8880022    1    1    2    0    0 -0.31046905650E+03 -0.59668266115E+02 -0.81665744922E+03  0.88897265391E+03  0.15294330000E+03 0.  0.
<mgrwt>
<rscale>  0 0.35120221E+03</rscale>
<asrwt>0</asrwt>
<pdfrwt beam="1">  1        2 0.20019590E+00 0.35120221E+03</pdfrwt>
<pdfrwt beam="2">  1       -2 0.13495214E+00 0.35120221E+03</pdfrwt>
<totfact> 0.72130487E+00</totfact>
</mgrwt>
</event>
<event>
 4    1  0.2202466E-008  0.4074126E+03  0.7818608E-02  0.1041243E+00
          2   -1    0    0  501    0  0.00000000000E+00  0.00000000000E+00  0.21948701556E+04  0.21948701556E+04  0.25500000000E-02 0. -1.
         -2   -1    0    0    0  501 -0.00000000000E+00 -0.00000000000E+00 -0.17646951900E+03  0.17646951902E+03  0.25500000000E-02 0.  1.
    8880022    1    1    2    0    0 -0.26048362239E+03  0.27338927340E+03  0.19055078024E+04  0.19485751334E+04  0.15294330000E+03 0.  0.
    8880022    1    1    2    0    0  0.26048362239E+03 -0.27338927340E+03  0.11289283423E+03  0.42276454129E+03  0.15294330000E+03 0.  1.
<mgrwt>
<rscale>  0 0.40741265E+03</rscale>
<asrwt>0</asrwt>
<pdfrwt beam="1">  1        2 0.33767233E+00 0.40741265E+03</pdfrwt>
<pdfrwt beam="2">  1       -2 0.27149157E-01 0.40741265E+03</pdfrwt>
<totfact> 0.69910567E+01</totfact>
</mgrwt>
</event>
<event>
 4    1  0.2202466E-008  0.5201902E+03  0.7818608E-02  0.1008639E+00
          2   -1    0    0  501    0  0.00000000000E+00  0.00000000000E+00  0.35978094182E+04  0.35978094182E+04  0.25500000000E-02 0. -1.
         -2   -1    0    0    0  501 -0.00000000000E+00 -0.00000000000E+00 -0.54344542044E+03  0.54344542044E+03  0.25500000000E-02 0.  1.
    8880022    1    1    2    0    0  0.46480509939E+03 -0.17652869347E+03  0.34491903896E+04  0.34881961179E+04  0.15294330000E+03 0.  0.
    8880022    1    1    2    0    0 -0.46480509939E+03  0.17652869347E+03 -0.39482639185E+03  0.65305872075E+03  0.15294330000E+03 0.  0.
<mgrwt>
<rscale>  0 0.52019017E+03</rscale>
<asrwt>0</asrwt>
<pdfrwt beam="1">  1        2 0.55350914E+00 0.52019017E+03</pdfrwt>
<pdfrwt beam="2">  1       -2 0.83606987E-01 0.52019017E+03</pdfrwt>
<totfact> 0.10132426E+00</totfact>
</mgrwt>
</event>
<event>
 4    1  0.2202466E-008  0.4627524E+03  0.7818608E-02  0.1023986E+00
         -2   -1    0    0    0  501 -0.00000000000E+00  0.00000000000E+00  0.17841092502E+03  0.17841092504E+03  0.25500000000E-02 0.  1.
          2   -1    0    0  501    0  0.00000000000E+00 -0.00000000000E+00 -0.21172770873E+04  0.21172770873E+04  0.25500000000E-02 0. -1.
    8880022    1    1    2    0    0  0.43673789590E+03 -0.28525163243E+01 -0.17248424395E+04  0.17858390803E+04  0.15294330000E+03 0.  0.
    8880022    1    1    2    0    0 -0.43673789590E+03  0.28525163243E+01 -0.21402372274E+03  0.50984893201E+03  0.15294330000E+03 0.  0.
<mgrwt>
<rscale>  0 0.46275240E+03</rscale>
<asrwt>0</asrwt>
<pdfrwt beam="1">  1        2 0.32573492E+00 0.46275240E+03</pdfrwt>
<pdfrwt beam="2">  1       -2 0.27447836E-01 0.46275240E+03</pdfrwt>
<totfact> 0.74628701E+01</totfact>
</mgrwt>
</event>
<event>
 4    1  0.2202466E-008  0.1127015E+04  0.7818608E-02  0.9179254E-01
         -2   -1    0    0    0  501 -0.00000000000E+00  0.00000000000E+00  0.73125985799E+03  0.73125985799E+03  0.25500000000E-02 0.  1.
          2   -1    0    0  501    0  0.00000000000E+00 -0.00000000000E+00 -0.24512455664E+04  0.24512455664E+04  0.25500000000E-02 0. -1.
    8880022    1    1    2    0    0 -0.80779075573E+03  0.77087359822E+03 -0.17189746373E+04  0.20554895928E+04  0.15294330000E+03 0.  0.
    8880022    1    1    2    0    0  0.80779075573E+03 -0.77087359822E+03 -0.10110711768E+01  0.11270158316E+04  0.15294330000E+03 0.  0.
<mgrwt>
<rscale>  0 0.11270154E+04</rscale>
<asrwt>0</asrwt>
<pdfrwt beam="1">  1        2 0.37711470E+00 0.11270154E+04</pdfrwt>
<pdfrwt beam="2">  1       -2 0.11250152E+00 0.11270154E+04</pdfrwt>
<totfact> 0.22874492E+00</totfact>
</mgrwt>
</event>
<event>
 4    1  0.2202466E-008  0.7479433E+03  0.7818608E-02  0.9638582E-01
         -2   -1    0    0    0  501 -0.00000000000E+00  0.00000000000E+00  0.59196875896E+03  0.59196875896E+03  0.25500000000E-02 0.  1.
          2   -1    0    0  501    0  0.00000000000E+00 -0.00000000000E+00 -0.10120416066E+04  0.10120416066E+04  0.25500000000E-02 0. -1.
    8880022    1    1    2    0    0 -0.16780172864E+03  0.71265010804E+03 -0.36399878383E+01  0.74795220379E+03  0.15294330000E+03 0.  1.
    8880022    1    1    2    0    0  0.16780172864E+03 -0.71265010804E+03 -0.41643285982E+03  0.85605816180E+03  0.15294330000E+03 0. -1.
<mgrwt>
<rscale>  0 0.74794335E+03</rscale>
<asrwt>0</asrwt>
<pdfrwt beam="1">  1        2 0.15569871E+00 0.74794335E+03</pdfrwt>
<pdfrwt beam="2">  1       -2 0.91072117E-01 0.74794335E+03</pdfrwt>
<totfact> 0.25866518E+01</totfact>
</mgrwt>
</event>
<event>
 4    1  0.2202466E-008  0.1705652E+04  0.7818608E-02  0.8758147E-01
         -2   -1    0    0    0  501 -0.00000000000E+00  0.00000000000E+00  0.29471628702E+04  0.29471628702E+04  0.25500000000E-02 0.  1.
          2   -1    0    0  501    0  0.00000000000E+00 -0.00000000000E+00 -0.13561783495E+04  0.13561783495E+04  0.25500000000E-02 0. -1.
    8880022    1    1    2    0    0 -0.83242143934E+03  0.14808552274E+04  0.19179131439E+04  0.25666398536E+04  0.15294330000E+03 0.  0.
    8880022    1    1    2    0    0  0.83242143934E+03 -0.14808552274E+04 -0.32692862321E+03  0.17367013661E+04  0.15294330000E+03 0.  0.
<mgrwt>
<rscale>  0 0.17056522E+04</rscale>
<asrwt>0</asrwt>
<pdfrwt beam="1">  1        2 0.20864282E+00 0.17056522E+04</pdfrwt>
<pdfrwt beam="2">  1       -2 0.45340967E+00 0.17056522E+04</pdfrwt>
<totfact> 0.46471597E-02</totfact>
</mgrwt>
</event>
<event>
 4    1  0.2202466E-008  0.3698112E+03  0.7818608E-02  0.1054765E+00
          2   -1    0    0  501    0  0.00000000000E+00  0.00000000000E+00  0.28529045079E+04  0.28529045079E+04  0.25500000000E-02 0. -1.
         -2   -1    0    0    0  501 -0.00000000000E+00 -0.00000000000E+00 -0.85514797825E+03  0.85514797826E+03  0.25500000000E-02 0.  1.
    8880022    1    1    2    0    0 -0.20615099623E+02  0.33607090805E+03  0.28001893146E+04  0.28245035826E+04  0.15294330000E+03 0. -1.
    8880022    1    1    2    0    0  0.20615099623E+02 -0.33607090805E+03 -0.80243278495E+03  0.88354890354E+03  0.15294330000E+03 0.  0.
<mgrwt>
<rscale>  0 0.36981116E+03</rscale>
<asrwt>0</asrwt>
<pdfrwt beam="1">  1        2 0.43890838E+00 0.36981116E+03</pdfrwt>
<pdfrwt beam="2">  1       -2 0.13156123E+00 0.36981116E+03</pdfrwt>
<totfact> 0.10856646E+00</totfact>
</mgrwt>
</event>
<event>
 4    1  0.2202466E-008  0.6166399E+03  0.7818608E-02  0.9871472E-01
          2   -1    0    0  501    0  0.00000000000E+00  0.00000000000E+00  0.19106806009E+04  0.19106806009E+04  0.25500000000E-02 0. -1.
         -2   -1    0    0    0  501 -0.00000000000E+00 -0.00000000000E+00 -0.34759073001E+03  0.34759073002E+03  0.25500000000E-02 0.  1.
    8880022    1    1    2    0    0  0.56303044183E+03 -0.19962425554E+03  0.15197773353E+04  0.16401121681E+04  0.15294330000E+03 0.  0.
    8880022    1    1    2    0    0 -0.56303044183E+03  0.19962425554E+03  0.43312535525E+02  0.61815916282E+03  0.15294330000E+03 0.  0.
<mgrwt>
<rscale>  0 0.61663991E+03</rscale>
<asrwt>0</asrwt>
<pdfrwt beam="1">  1        2 0.29395086E+00 0.61663991E+03</pdfrwt>
<pdfrwt beam="2">  1       -2 0.53475497E-01 0.61663991E+03</pdfrwt>
<totfact> 0.25957077E+01</totfact>
</mgrwt>
</event>
<event>
 4    1  0.2202466E-008  0.8759857E+03  0.7818608E-02  0.9456108E-01
          2   -1    0    0  501    0  0.00000000000E+00  0.00000000000E+00  0.44368761544E+03  0.44368761545E+03  0.25500000000E-02 0. -1.
         -2   -1    0    0    0  501 -0.00000000000E+00 -0.00000000000E+00 -0.22803082026E+04  0.22803082026E+04  0.25500000000E-02 0.  1.
    8880022    1    1    2    0    0 -0.84980596140E+03  0.14761164299E+03 -0.24891011091E+03  0.91066309111E+03  0.15294330000E+03 0.  0.
    8880022    1    1    2    0    0  0.84980596140E+03 -0.14761164299E+03 -0.15877104762E+04  0.18133327269E+04  0.15294330000E+03 0.  0.
<mgrwt>
<rscale>  0 0.87598574E+03</rscale>
<asrwt>0</asrwt>
<pdfrwt beam="1">  1        2 0.68259635E-01 0.87598574E+03</pdfrwt>
<pdfrwt beam="2">  1       -2 0.35081664E+00 0.87598574E+03</pdfrwt>
<totfact> 0.11223327E+00</totfact>
</mgrwt>
</event>
<event>
 4    1  0.2202466E-008  0.8896901E+03  0.7818608E-02  0.9438562E-01
          2   -1    0    0  501    0  0.00000000000E+00  0.00000000000E+00  0.16357817566E+04  0.16357817566E+04  0.25500000000E-02 0. -1.
         -2   -1    0    0    0  501 -0.00000000000E+00 -0.00000000000E+00 -0.55576916108E+03  0.55576916109E+03  0.25500000000E-02 0.  1.
    8880022    1    1    2    0    0 -0.45047938013E+03 -0.75181453033E+03  0.93406181948E+03  0.12899689514E+04  0.15294330000E+03 0.  0.
    8880022    1    1    2    0    0  0.45047938013E+03  0.75181453033E+03  0.14595077605E+03  0.90158196631E+03  0.15294330000E+03 0.  0.
<mgrwt>
<rscale>  0 0.88969007E+03</rscale>
<asrwt>0</asrwt>
<pdfrwt beam="1">  1        2 0.25165873E+00 0.88969007E+03</pdfrwt>
<pdfrwt beam="2">  1       -2 0.85502947E-01 0.88969007E+03</pdfrwt>
<totfact> 0.12780276E+01</totfact>
</mgrwt>
</event>
<event>
 4    1  0.2202466E-008  0.5618877E+03  0.7818608E-02  0.9987792E-01
          2   -1    0    0  501    0  0.00000000000E+00  0.00000000000E+00  0.80844121362E+03  0.80844121362E+03  0.25500000000E-02 0. -1.
         -2   -1    0    0    0  501 -0.00000000000E+00 -0.00000000000E+00 -0.17256767106E+04  0.17256767106E+04  0.25500000000E-02 0.  1.
    8880022    1    1    2    0    0 -0.41690862473E+03  0.34425769525E+03  0.65588758403E+03  0.86365869301E+03  0.15294330000E+03 0.  0.
    8880022    1    1    2    0    0  0.41690862473E+03 -0.34425769525E+03 -0.15731230811E+04  0.16704592313E+04  0.15294330000E+03 0.  0.
<mgrwt>
<rscale>  0 0.56188772E+03</rscale>
<asrwt>0</asrwt>
<pdfrwt beam="1">  1        2 0.12437557E+00 0.56188772E+03</pdfrwt>
<pdfrwt beam="2">  1       -2 0.26548872E+00 0.56188772E+03</pdfrwt>
<totfact> 0.18830260E+00</totfact>
</mgrwt>
</event>
<event>
 4    1  0.2202466E-008  0.8884373E+03  0.7818608E-02  0.9440152E-01
         -2   -1    0    0    0  501 -0.00000000000E+00  0.00000000000E+00  0.52325242018E+03  0.52325242018E+03  0.25500000000E-02 0.  1.
          2   -1    0    0  501    0  0.00000000000E+00 -0.00000000000E+00 -0.16148430993E+04  0.16148430993E+04  0.25500000000E-02 0. -1.
    8880022    1    1    2    0    0 -0.71464066479E+03  0.50519092663E+03 -0.82014722327E+03  0.12091163190E+04  0.15294330000E+03 0.  0.
    8880022    1    1    2    0    0  0.71464066479E+03 -0.50519092663E+03 -0.27144345585E+03  0.92897920044E+03  0.15294330000E+03 0.  0.
<mgrwt>
<rscale>  0 0.88843728E+03</rscale>
<asrwt>0</asrwt>
<pdfrwt beam="1">  1        2 0.24843740E+00 0.88843728E+03</pdfrwt>
<pdfrwt beam="2">  1       -2 0.80500373E-01 0.88843728E+03</pdfrwt>
<totfact> 0.15054158E+01</totfact>
</mgrwt>
</event>
<event>
 4    1  0.2202466E-008  0.5423651E+03  0.7818608E-02  0.1003277E+00
         -2   -1    0    0    0  501 -0.00000000000E+00  0.00000000000E+00  0.44956879097E+03  0.44956879098E+03  0.25500000000E-02 0.  1.
          2   -1    0    0  501    0  0.00000000000E+00 -0.00000000000E+00 -0.24107109267E+04  0.24107109267E+04  0.25500000000E-02 0. -1.
    8880022    1    1    2    0    0 -0.45262151055E+02  0.51838170570E+03 -0.22012939054E+04  0.22671247795E+04  0.15294330000E+03 0.  0.
    8880022    1    1    2    0    0  0.45262151055E+02 -0.51838170570E+03  0.24015176967E+03  0.59315493812E+03  0.15294330000E+03 0.  0.
<mgrwt>
<rscale>  0 0.54236511E+03</rscale>
<asrwt>0</asrwt>
<pdfrwt beam="1">  1        2 0.37087860E+00 0.54236511E+03</pdfrwt>
<pdfrwt beam="2">  1       -2 0.69164431E-01 0.54236511E+03</pdfrwt>
<totfact> 0.81589400E+00</totfact>
</mgrwt>
</event>
<event>
 4    1  0.2202466E-008  0.1146143E+04  0.7818608E-02  0.9161350E-01
          2   -1    0    0  501    0  0.00000000000E+00  0.00000000000E+00  0.10225573721E+04  0.10225573721E+04  0.25500000000E-02 0. -1.
         -2   -1    0    0    0  501 -0.00000000000E+00 -0.00000000000E+00 -0.18104656853E+04  0.18104656853E+04  0.25500000000E-02 0.  1.
    8880022    1    1    2    0    0 -0.11620673039E+03 -0.11299323389E+04 -0.11573256000E+04  0.16288171451E+04  0.15294330000E+03 0.  0.
    8880022    1    1    2    0    0  0.11620673039E+03  0.11299323389E+04  0.36941728675E+03  0.12042059124E+04  0.15294330000E+03 0.  0.
<mgrwt>
<rscale>  0 0.11461426E+04</rscale>
<asrwt>0</asrwt>
<pdfrwt beam="1">  1        2 0.15731652E+00 0.11461426E+04</pdfrwt>
<pdfrwt beam="2">  1       -2 0.27853318E+00 0.11461426E+04</pdfrwt>
<totfact> 0.10287709E+00</totfact>
</mgrwt>
</event>
<event>
 4    1  0.2202466E-008  0.8813730E+03  0.7818608E-02  0.9449170E-01
         -2   -1    0    0    0  501 -0.00000000000E+00  0.00000000000E+00  0.64328042456E+03  0.64328042457E+03  0.25500000000E-02 0.  1.
          2   -1    0    0  501    0  0.00000000000E+00 -0.00000000000E+00 -0.36506117165E+04  0.36506117165E+04  0.25500000000E-02 0. -1.
    8880022    1    1    2    0    0  0.61045501623E+03 -0.61706676288E+03 -0.32599792519E+04  0.33770228149E+04  0.15294330000E+03 0.  0.
    8880022    1    1    2    0    0 -0.61045501623E+03  0.61706676288E+03  0.25264795990E+03  0.91686932621E+03  0.15294330000E+03 0.  0.
<mgrwt>
<rscale>  0 0.88137300E+03</rscale>
<asrwt>0</asrwt>
<pdfrwt beam="1">  1        2 0.56163256E+00 0.88137300E+03</pdfrwt>
<pdfrwt beam="2">  1       -2 0.98966221E-01 0.88137300E+03</pdfrwt>
<totfact> 0.57105581E-01</totfact>
</mgrwt>
</event>
<event>
 4    1  0.2202466E-008  0.8012739E+03  0.7818608E-02  0.9558175E-01
         -2   -1    0    0    0  501 -0.00000000000E+00  0.00000000000E+00  0.59062401623E+03  0.59062401623E+03  0.25500000000E-02 0.  1.
          2   -1    0    0  501    0  0.00000000000E+00 -0.00000000000E+00 -0.27012139399E+04  0.27012139399E+04  0.25500000000E-02 0. -1.
    8880022    1    1    2    0    0  0.52350860718E+03 -0.58701528011E+03  0.21704252449E+03  0.83014896935E+03  0.15294330000E+03 0.  0.
    8880022    1    1    2    0    0 -0.52350860718E+03  0.58701528011E+03 -0.23276324481E+04  0.24616889868E+04  0.15294330000E+03 0.  0.
<mgrwt>
<rscale>  0 0.80127389E+03</rscale>
<asrwt>0</asrwt>
<pdfrwt beam="1">  1        2 0.41557137E+00 0.80127389E+03</pdfrwt>
<pdfrwt beam="2">  1       -2 0.90865235E-01 0.80127389E+03</pdfrwt>
<totfact> 0.28681384E+00</totfact>
</mgrwt>
</event>
<event>
 4    1  0.2202466E-008  0.1268884E+04  0.7818608E-02  0.9054611E-01
         -2   -1    0    0    0  501 -0.00000000000E+00  0.00000000000E+00  0.16383996144E+04  0.16383996144E+04  0.25500000000E-02 0.  1.
          2   -1    0    0  501    0  0.00000000000E+00 -0.00000000000E+00 -0.13403499870E+04  0.13403499870E+04  0.25500000000E-02 0. -1.
    8880022    1    1    2    0    0 -0.90300701713E+03  0.87820975311E+03 -0.62031843815E+03  0.14123953629E+04  0.15294330000E+03 0.  0.
    8880022    1    1    2    0    0  0.90300701713E+03 -0.87820975311E+03  0.91836806555E+03  0.15663542384E+04  0.15294330000E+03 0.  0.
<mgrwt>
<rscale>  0 0.12688836E+04</rscale>
<asrwt>0</asrwt>
<pdfrwt beam="1">  1        2 0.20620769E+00 0.12688836E+04</pdfrwt>
<pdfrwt beam="2">  1       -2 0.25206148E+00 0.12688836E+04</pdfrwt>
<totfact> 0.94278820E-01</totfact>
</mgrwt>
</event>
<event>
 4    1  0.2202466E-008  0.9077637E+03  0.7818608E-02  0.9415928E-01
          2   -1    0    0  501    0  0.00000000000E+00  0.00000000000E+00  0.21095742141E+04  0.21095742141E+04  0.25500000000E-02 0. -1.
         -2   -1    0    0    0  501 -0.00000000000E+00 -0.00000000000E+00 -0.45381221757E+03  0.45381221758E+03  0.25500000000E-02 0.  1.
    8880022    1    1    2    0    0 -0.88123225541E+03 -0.15515495393E+03  0.13061684603E+04  0.15906322791E+04  0.15294330000E+03 0.  0.
    8880022    1    1    2    0    0  0.88123225541E+03  0.15515495393E+03  0.34959353622E+03  0.97275415254E+03  0.15294330000E+03 0.  0.
<mgrwt>
<rscale>  0 0.90776374E+03</rscale>
<asrwt>0</asrwt>
<pdfrwt beam="1">  1        2 0.32454988E+00 0.90776374E+03</pdfrwt>
<pdfrwt beam="2">  1       -2 0.69817264E-01 0.90776374E+03</pdfrwt>
<totfact> 0.11019616E+01</totfact>
</mgrwt>
</event>
<event>
 4    1  0.2202466E-008  0.1819448E+03  0.7818608E-02  0.1165934E+00
          2   -1    0    0  501    0  0.00000000000E+00  0.00000000000E+00  0.19179014219E+04  0.19179014219E+04  0.25500000000E-02 0. -1.
         -2   -1    0    0    0  501 -0.00000000000E+00 -0.00000000000E+00 -0.17551589982E+03  0.17551589983E+03  0.25500000000E-02 0.  1.
    8880022    1    1    2    0    0  0.76529439805E+02 -0.62092610672E+02  0.18651023497E+04  0.18739558894E+04  0.15294330000E+03 0.  0.
    8880022    1    1    2    0    0 -0.76529439805E+02  0.62092610672E+02 -0.12271682768E+03  0.21946143230E+03  0.15294330000E+03 0.  0.
<mgrwt>
<rscale>  0 0.18194477E+03</rscale>
<asrwt>0</asrwt>
<pdfrwt beam="1">  1        2 0.29506176E+00 0.18194477E+03</pdfrwt>
<pdfrwt beam="2">  1       -2 0.27002446E-01 0.18194477E+03</pdfrwt>
<totfact> 0.10585288E+02</totfact>
</mgrwt>
</event>
<event>
 4    1  0.2202466E-008  0.2517387E+03  0.7818608E-02  0.1112211E+00
         -2   -1    0    0    0  501 -0.00000000000E+00  0.00000000000E+00  0.30977078985E+03  0.30977078986E+03  0.25500000000E-02 0.  1.
          2   -1    0    0  501    0  0.00000000000E+00 -0.00000000000E+00 -0.86889455240E+03  0.86889455241E+03  0.25500000000E-02 0. -1.
    8880022    1    1    2    0    0 -0.13734192262E+02  0.19947951825E+03 -0.79486698410E+03  0.83377807698E+03  0.15294330000E+03 0.  0.
    8880022    1    1    2    0    0  0.13734192262E+02 -0.19947951825E+03  0.23574322154E+03  0.34488726529E+03  0.15294330000E+03 0.  1.
<mgrwt>
<rscale>  0 0.25173867E+03</rscale>
<asrwt>0</asrwt>
<pdfrwt beam="1">  1        2 0.13367608E+00 0.25173867E+03</pdfrwt>
<pdfrwt beam="2">  1       -2 0.47657045E-01 0.25173867E+03</pdfrwt>
<totfact> 0.13666950E+02</totfact>
</mgrwt>
</event>
<event>
 4    1  0.2202466E-008  0.1385849E+04  0.7818608E-02  0.8964126E-01
         -2   -1    0    0    0  501 -0.00000000000E+00  0.00000000000E+00  0.89122316827E+03  0.89122316827E+03  0.25500000000E-02 0.  1.
          2   -1    0    0  501    0  0.00000000000E+00 -0.00000000000E+00 -0.29834529421E+04  0.29834529421E+04  0.25500000000E-02 0. -1.
    8880022    1    1    2    0    0 -0.92980353747E+03  0.10161944733E+04 -0.25217198610E+02  0.13860784199E+04  0.15294330000E+03 0.  0.
    8880022    1    1    2    0    0  0.92980353747E+03 -0.10161944733E+04 -0.20670125752E+04  0.24885976905E+04  0.15294330000E+03 0.  0.
<mgrwt>
<rscale>  0 0.13858490E+04</rscale>
<asrwt>0</asrwt>
<pdfrwt beam="1">  1        2 0.45899276E+00 0.13858490E+04</pdfrwt>
<pdfrwt beam="2">  1       -2 0.13711126E+00 0.13858490E+04</pdfrwt>
<totfact> 0.65051312E-01</totfact>
</mgrwt>
</event>
<event>
 4    1  0.2202466E-008  0.6089240E+03  0.7818608E-02  0.9887063E-01
         -2   -1    0    0    0  501 -0.00000000000E+00  0.00000000000E+00  0.17514967818E+04  0.17514967818E+04  0.25500000000E-02 0.  1.
          2   -1    0    0  501    0  0.00000000000E+00 -0.00000000000E+00 -0.13160235631E+04  0.13160235631E+04  0.25500000000E-02 0. -1.
    8880022    1    1    2    0    0  0.58565193338E+03 -0.66396910661E+02  0.16227296838E+04  0.17332166675E+04  0.15294330000E+03 0.  0.
    8880022    1    1    2    0    0 -0.58565193338E+03  0.66396910661E+02 -0.11872564650E+04  0.13343036774E+04  0.15294330000E+03 0. -1.
<mgrwt>
<rscale>  0 0.60892396E+03</rscale>
<asrwt>0</asrwt>
<pdfrwt beam="1">  1        2 0.20246516E+00 0.60892396E+03</pdfrwt>
<pdfrwt beam="2">  1       -2 0.26946104E+00 0.60892396E+03</pdfrwt>
<totfact> 0.85086746E-01</totfact>
</mgrwt>
</event>
<event>
 4    1  0.2202466E-008  0.1442300E+04  0.7818608E-02  0.8923756E-01
          2   -1    0    0  501    0  0.00000000000E+00  0.00000000000E+00  0.31702115655E+04  0.31702115655E+04  0.25500000000E-02 0. -1.
         -2   -1    0    0    0  501 -0.00000000000E+00 -0.00000000000E+00 -0.83482619305E+03  0.83482619305E+03  0.25500000000E-02 0.  1.
    8880022    1    1    2    0    0 -0.16225334245E+03 -0.14249606170E+04  0.24134284061E+03  0.14623532155E+04  0.15294330000E+03 0.  0.
    8880022    1    1    2    0    0  0.16225334245E+03  0.14249606170E+04  0.20940425318E+04  0.25426845430E+04  0.15294330000E+03 0.  0.
<mgrwt>
<rscale>  0 0.14423004E+04</rscale>
<asrwt>0</asrwt>
<pdfrwt beam="1">  1        2 0.48772485E+00 0.14423004E+04</pdfrwt>
<pdfrwt beam="2">  1       -2 0.12843480E+00 0.14423004E+04</pdfrwt>
<totfact> 0.58244258E-01</totfact>
</mgrwt>
</event>
<event>
 4    1  0.2202466E-008  0.5327842E+03  0.7818608E-02  0.1005559E+00
          2   -1    0    0  501    0  0.00000000000E+00  0.00000000000E+00  0.32208693924E+04  0.32208693924E+04  0.25500000000E-02 0. -1.
         -2   -1    0    0    0  501 -0.00000000000E+00 -0.00000000000E+00 -0.39001727876E+03  0.39001727877E+03  0.25500000000E-02 0.  1.
    8880022    1    1    2    0    0  0.43358597891E+03 -0.26920351285E+03  0.30038393169E+04  0.30507228041E+04  0.15294330000E+03 0.  0.
    8880022    1    1    2    0    0 -0.43358597891E+03  0.26920351285E+03 -0.17298720330E+03  0.56016386707E+03  0.15294330000E+03 0.  0.
<mgrwt>
<rscale>  0 0.53278418E+03</rscale>
<asrwt>0</asrwt>
<pdfrwt beam="1">  1        2 0.49551838E+00 0.53278418E+03</pdfrwt>
<pdfrwt beam="2">  1       -2 0.60002657E-01 0.53278418E+03</pdfrwt>
<totfact> 0.36903369E+00</totfact>
</mgrwt>
</event>
<event>
 4    1  0.2202466E-008  0.4321900E+03  0.7818608E-02  0.1033170E+00
          2   -1    0    0  501    0  0.00000000000E+00  0.00000000000E+00  0.28685990537E+03  0.28685990538E+03  0.25500000000E-02 0. -1.
         -2   -1    0    0    0  501 -0.00000000000E+00 -0.00000000000E+00 -0.12845797478E+04  0.12845797478E+04  0.25500000000E-02 0.  1.
    8880022    1    1    2    0    0  0.32413253197E+03  0.24152558945E+03  0.52883546332E+02  0.43541340256E+03  0.15294330000E+03 0.  0.
    8880022    1    1    2    0    0 -0.32413253197E+03 -0.24152558945E+03 -0.10506033888E+04  0.11360262507E+04  0.15294330000E+03 0.  0.
<mgrwt>
<rscale>  0 0.43218996E+03</rscale>
<asrwt>0</asrwt>
<pdfrwt beam="1">  1        2 0.44132294E-01 0.43218996E+03</pdfrwt>
<pdfrwt beam="2">  1       -2 0.19762765E+00 0.43218996E+03</pdfrwt>
<totfact> 0.16776704E+01</totfact>
</mgrwt>
</event>
<event>
 4    1  0.2202466E-008  0.1113367E+04  0.7818608E-02  0.9192261E-01
         -2   -1    0    0    0  501 -0.00000000000E+00  0.00000000000E+00  0.16587311066E+04  0.16587311066E+04  0.25500000000E-02 0.  1.
          2   -1    0    0  501    0  0.00000000000E+00 -0.00000000000E+00 -0.98205580843E+03  0.98205580844E+03  0.25500000000E-02 0. -1.
    8880022    1    1    2    0    0 -0.66599428241E+03 -0.87900236110E+03 -0.30721972574E+03  0.11549758214E+04  0.15294330000E+03 0.  0.
    8880022    1    1    2    0    0  0.66599428241E+03  0.87900236110E+03  0.98389502392E+03  0.14858110937E+04  0.15294330000E+03 0.  0.
<mgrwt>
<rscale>  0 0.11133666E+04</rscale>
<asrwt>0</asrwt>
<pdfrwt beam="1">  1        2 0.15108551E+00 0.11133666E+04</pdfrwt>
<pdfrwt beam="2">  1       -2 0.25518940E+00 0.11133666E+04</pdfrwt>
<totfact> 0.15200603E+00</totfact>
</mgrwt>
</event>
<event>
 4    1  0.2202466E-008  0.1197370E+04  0.7818608E-02  0.9115162E-01
          2   -1    0    0  501    0  0.00000000000E+00  0.00000000000E+00  0.38432073925E+04  0.38432073925E+04  0.25500000000E-02 0. -1.
         -2   -1    0    0    0  501 -0.00000000000E+00 -0.00000000000E+00 -0.41358441872E+03  0.41358441872E+03  0.25500000000E-02 0.  1.
    8880022    1    1    2    0    0 -0.10588768392E+04 -0.53766426896E+03  0.23811602460E+04  0.26652614875E+04  0.15294330000E+03 0.  0.
    8880022    1    1    2    0    0  0.10588768392E+04  0.53766426896E+03  0.10484627277E+04  0.15915303236E+04  0.15294330000E+03 0.  0.
<mgrwt>
<rscale>  0 0.11973699E+04</rscale>
<asrwt>0</asrwt>
<pdfrwt beam="1">  1        2 0.59126268E+00 0.11973699E+04</pdfrwt>
<pdfrwt beam="2">  1       -2 0.63628372E-01 0.11973699E+04</pdfrwt>
<totfact> 0.10557591E+00</totfact>
</mgrwt>
</event>
<event>
 4    1  0.2202466E-008  0.4456459E+03  0.7818608E-02  0.1029028E+00
          2   -1    0    0  501    0  0.00000000000E+00  0.00000000000E+00  0.20474231333E+04  0.20474231333E+04  0.25500000000E-02 0. -1.
         -2   -1    0    0    0  501 -0.00000000000E+00 -0.00000000000E+00 -0.52427427778E+03  0.52427427778E+03  0.25500000000E-02 0.  1.
    8880022    1    1    2    0    0  0.34432064306E+03  0.23801667054E+03 -0.39924297156E+03  0.59832703770E+03  0.15294330000E+03 0.  0.
    8880022    1    1    2    0    0 -0.34432064306E+03 -0.23801667054E+03  0.19223918271E+04  0.19733703734E+04  0.15294330000E+03 0.  0.
<mgrwt>
<rscale>  0 0.44564593E+03</rscale>
<asrwt>0</asrwt>
<pdfrwt beam="1">  1        2 0.31498818E+00 0.44564593E+03</pdfrwt>
<pdfrwt beam="2">  1       -2 0.80657580E-01 0.44564593E+03</pdfrwt>
<totfact> 0.94056523E+00</totfact>
</mgrwt>
</event>
<event>
 4    1  0.2202466E-008  0.6932236E+03  0.7818608E-02  0.9728891E-01
         -2   -1    0    0    0  501 -0.00000000000E+00  0.00000000000E+00  0.68236108659E+03  0.68236108660E+03  0.25500000000E-02 0.  1.
          2   -1    0    0  501    0  0.00000000000E+00 -0.00000000000E+00 -0.13108977675E+04  0.13108977675E+04  0.25500000000E-02 0. -1.
    8880022    1    1    2    0    0  0.45751662781E+03 -0.49784119387E+03 -0.99224439610E+03  0.12104164216E+04  0.15294330000E+03 0.  0.
    8880022    1    1    2    0    0 -0.45751662781E+03  0.49784119387E+03  0.36370771519E+03  0.78284243252E+03  0.15294330000E+03 0.  0.
<mgrwt>
<rscale>  0 0.69322361E+03</rscale>
<asrwt>0</asrwt>
<pdfrwt beam="1">  1        2 0.20167658E+00 0.69322361E+03</pdfrwt>
<pdfrwt beam="2">  1       -2 0.10497863E+00 0.69322361E+03</pdfrwt>
<totfact> 0.12327052E+01</totfact>
</mgrwt>
</event>
<event>
 4    1  0.2202466E-008  0.7280126E+03  0.7818608E-02  0.9670491E-01
          2   -1    0    0  501    0  0.00000000000E+00  0.00000000000E+00  0.51930246904E+03  0.51930246905E+03  0.25500000000E-02 0. -1.
         -2   -1    0    0    0  501 -0.00000000000E+00 -0.00000000000E+00 -0.12942586340E+04  0.12942586340E+04  0.25500000000E-02 0.  1.
    8880022    1    1    2    0    0 -0.59560926936E+03  0.38969258102E+03  0.29480369481E+02  0.72860926061E+03  0.15294330000E+03 0.  0.
    8880022    1    1    2    0    0  0.59560926936E+03 -0.38969258102E+03 -0.80443653443E+03  0.10849518424E+04  0.15294330000E+03 0.  0.
<mgrwt>
<rscale>  0 0.72801261E+03</rscale>
<asrwt>0</asrwt>
<pdfrwt beam="1">  1        2 0.79892688E-01 0.72801261E+03</pdfrwt>
<pdfrwt beam="2">  1       -2 0.19911671E+00 0.72801261E+03</pdfrwt>
<totfact> 0.81149527E+00</totfact>
</mgrwt>
</event>
<event>
 4    1  0.2202466E-008  0.2331526E+03  0.7818608E-02  0.1124440E+00
         -2   -1    0    0    0  501 -0.00000000000E+00  0.00000000000E+00  0.57635304538E+03  0.57635304538E+03  0.25500000000E-02 0.  1.
          2   -1    0    0  501    0  0.00000000000E+00 -0.00000000000E+00 -0.29114794229E+04  0.29114794229E+04  0.25500000000E-02 0. -1.
    8880022    1    1    2    0    0  0.94630551684E+02  0.14836967248E+03  0.54787338897E+03  0.59542035939E+03  0.15294330000E+03 0.  0.
    8880022    1    1    2    0    0 -0.94630551684E+02 -0.14836967248E+03 -0.28829997665E+04  0.28924121089E+04  0.15294330000E+03 0. -1.
<mgrwt>
<rscale>  0 0.23315264E+03</rscale>
<asrwt>0</asrwt>
<pdfrwt beam="1">  1        2 0.44791990E+00 0.23315264E+03</pdfrwt>
<pdfrwt beam="2">  1       -2 0.88669701E-01 0.23315264E+03</pdfrwt>
<totfact> 0.27751932E+00</totfact>
</mgrwt>
</event>
<event>
 4    1  0.2202466E-008  0.1635414E+04  0.7818608E-02  0.8799082E-01
          2   -1    0    0  501    0  0.00000000000E+00  0.00000000000E+00  0.22809676243E+04  0.22809676243E+04  0.25500000000E-02 0. -1.
         -2   -1    0    0    0  501 -0.00000000000E+00 -0.00000000000E+00 -0.13544310743E+04  0.13544310743E+04  0.25500000000E-02 0.  1.
    8880022    1    1    2    0    0 -0.40777060136E+03 -0.15763600146E+04 -0.20280378743E+03  0.16479407721E+04  0.15294330000E+03 0.  0.
    8880022    1    1    2    0    0  0.40777060136E+03  0.15763600146E+04  0.11293403375E+04  0.19874579266E+04  0.15294330000E+03 0.  0.
<mgrwt>
<rscale>  0 0.16354141E+04</rscale>
<asrwt>0</asrwt>
<pdfrwt beam="1">  1        2 0.35091809E+00 0.16354141E+04</pdfrwt>
<pdfrwt beam="2">  1       -2 0.20837402E+00 0.16354141E+04</pdfrwt>
<totfact> 0.50469920E-01</totfact>
</mgrwt>
</event>
<event>
 4    1  0.2202466E-008  0.1218213E+04  0.7818608E-02  0.9097062E-01
          2   -1    0    0  501    0  0.00000000000E+00  0.00000000000E+00  0.82855756237E+03  0.82855756237E+03  0.25500000000E-02 0. -1.
         -2   -1    0    0    0  501 -0.00000000000E+00 -0.00000000000E+00 -0.33797880754E+04  0.33797880754E+04  0.25500000000E-02 0.  1.
    8880022    1    1    2    0    0 -0.80537374562E+03  0.90112391200E+03 -0.27182413477E+04  0.29787377951E+04  0.15294330000E+03 0.  0.
    8880022    1    1    2    0    0  0.80537374562E+03 -0.90112391200E+03  0.16701083460E+03  0.12296078427E+04  0.15294330000E+03 0.  0.
<mgrwt>
<rscale>  0 0.12182130E+04</rscale>
<asrwt>0</asrwt>
<pdfrwt beam="1">  1        2 0.12747040E+00 0.12182130E+04</pdfrwt>
<pdfrwt beam="2">  1       -2 0.51996739E+00 0.12182130E+04</pdfrwt>
<totfact> 0.39913916E-02</totfact>
</mgrwt>
</event>
<event>
 4    1  0.2202466E-008  0.2627256E+03  0.7818608E-02  0.1105517E+00
         -2   -1    0    0    0  501 -0.00000000000E+00  0.00000000000E+00  0.10991480349E+04  0.10991480349E+04  0.25500000000E-02 0.  1.
          2   -1    0    0  501    0  0.00000000000E+00 -0.00000000000E+00 -0.85712279716E+03  0.85712279716E+03  0.25500000000E-02 0. -1.
    8880022    1    1    2    0    0  0.17433065464E+03 -0.12345823002E+03  0.10626342032E+04  0.10946306293E+04  0.15294330000E+03 0.  1.
    8880022    1    1    2    0    0 -0.17433065464E+03  0.12345823002E+03 -0.82060896551E+03  0.86164020275E+03  0.15294330000E+03 0.  0.
<mgrwt>
<rscale>  0 0.26272565E+03</rscale>
<asrwt>0</asrwt>
<pdfrwt beam="1">  1        2 0.13186505E+00 0.26272565E+03</pdfrwt>
<pdfrwt beam="2">  1       -2 0.16909970E+00 0.26272565E+03</pdfrwt>
<totfact> 0.76329049E+00</totfact>
</mgrwt>
</event>
<event>
 4    1  0.2202466E-008  0.4629525E+03  0.7818608E-02  0.1023928E+00
          2   -1    0    0  501    0  0.00000000000E+00  0.00000000000E+00  0.68196628933E+03  0.68196628933E+03  0.25500000000E-02 0. -1.
         -2   -1    0    0    0  501 -0.00000000000E+00 -0.00000000000E+00 -0.74248789668E+03  0.74248789668E+03  0.25500000000E-02 0.  1.
    8880022    1    1    2    0    0  0.43586497620E+03 -0.30904275209E+02  0.51062257502E+03  0.68924626864E+03  0.15294330000E+03 0.  0.
    8880022    1    1    2    0    0 -0.43586497620E+03  0.30904275209E+02 -0.57114418237E+03  0.73520791737E+03  0.15294330000E+03 0.  0.
<mgrwt>
<rscale>  0 0.46295249E+03</rscale>
<asrwt>0</asrwt>
<pdfrwt beam="1">  1        2 0.10491789E+00 0.46295249E+03</pdfrwt>
<pdfrwt beam="2">  1       -2 0.11422891E+00 0.46295249E+03</pdfrwt>
<totfact> 0.26552463E+01</totfact>
</mgrwt>
</event>
<event>
 4    1  0.2202466E-008  0.6724116E+03  0.7818608E-02  0.9765611E-01
         -2   -1    0    0    0  501 -0.00000000000E+00  0.00000000000E+00  0.31897680330E+04  0.31897680330E+04  0.25500000000E-02 0.  1.
          2   -1    0    0  501    0  0.00000000000E+00 -0.00000000000E+00 -0.38609667975E+03  0.38609667976E+03  0.25500000000E-02 0. -1.
    8880022    1    1    2    0    0 -0.65370392994E+03  0.37641149309E+02 -0.20524856332E+02  0.67272476309E+03  0.15294330000E+03 0.  0.
    8880022    1    1    2    0    0  0.65370392994E+03 -0.37641149309E+02  0.28241962096E+04  0.29031399497E+04  0.15294330000E+03 0.  0.
<mgrwt>
<rscale>  0 0.67241158E+03</rscale>
<asrwt>0</asrwt>
<pdfrwt beam="1">  1        2 0.59399489E-01 0.67241158E+03</pdfrwt>
<pdfrwt beam="2">  1       -2 0.49073355E+00 0.67241158E+03</pdfrwt>
<totfact> 0.16807079E-01</totfact>
</mgrwt>
</event>
<event>
 4    1  0.2202466E-008  0.2785266E+03  0.7818608E-02  0.1096496E+00
         -2   -1    0    0    0  501 -0.00000000000E+00  0.00000000000E+00  0.13922059620E+04  0.13922059620E+04  0.25500000000E-02 0.  1.
          2   -1    0    0  501    0  0.00000000000E+00 -0.00000000000E+00 -0.20615463195E+04  0.20615463195E+04  0.25500000000E-02 0. -1.
    8880022    1    1    2    0    0  0.22687300507E+03 -0.52096325566E+02 -0.20380482223E+04  0.20569923667E+04  0.15294330000E+03 0.  0.
    8880022    1    1    2    0    0 -0.22687300507E+03  0.52096325566E+02  0.13687078647E+04  0.13967599148E+04  0.15294330000E+03 0.  0.
<mgrwt>
<rscale>  0 0.27852655E+03</rscale>
<asrwt>0</asrwt>
<pdfrwt beam="1">  1        2 0.31716097E+00 0.27852655E+03</pdfrwt>
<pdfrwt beam="2">  1       -2 0.21418553E+00 0.27852655E+03</pdfrwt>
<totfact> 0.82230367E-01</totfact>
</mgrwt>
</event>
<event>
 4    1  0.2202466E-008  0.6947977E+03  0.7818608E-02  0.9726170E-01
          2   -1    0    0  501    0  0.00000000000E+00  0.00000000000E+00  0.17625483908E+04  0.17625483908E+04  0.25500000000E-02 0. -1.
         -2   -1    0    0    0  501 -0.00000000000E+00 -0.00000000000E+00 -0.31807055957E+03  0.31807055958E+03  0.25500000000E-02 0.  1.
    8880022    1    1    2    0    0 -0.60727755311E+03  0.30094204764E+03  0.33451905317E+03  0.77113344662E+03  0.15294330000E+03 0.  0.
    8880022    1    1    2    0    0  0.60727755311E+03 -0.30094204764E+03  0.11099587780E+04  0.13094855037E+04  0.15294330000E+03 0.  0.
<mgrwt>
<rscale>  0 0.69479767E+03</rscale>
<asrwt>0</asrwt>
<pdfrwt beam="1">  1        2 0.27116129E+00 0.69479767E+03</pdfrwt>
<pdfrwt beam="2">  1       -2 0.48933933E-01 0.69479767E+03</pdfrwt>
<totfact> 0.37019131E+01</totfact>
</mgrwt>
</event>
<event>
 4    1  0.2202466E-008  0.8843632E+03  0.7818608E-02  0.9445342E-01
          2   -1    0    0  501    0  0.00000000000E+00  0.00000000000E+00  0.19373576767E+04  0.19373576767E+04  0.25500000000E-02 0. -1.
         -2   -1    0    0    0  501 -0.00000000000E+00 -0.00000000000E+00 -0.12517873804E+04  0.12517873804E+04  0.25500000000E-02 0.  1.
    8880022    1    1    2    0    0  0.19465495644E+03 -0.84900887965E+03  0.16552902895E+04  0.18767216696E+04  0.15294330000E+03 0.  0.
    8880022    1    1    2    0    0 -0.19465495644E+03  0.84900887965E+03 -0.96971999313E+03  0.13124233874E+04  0.15294330000E+03 0.  0.
<mgrwt>
<rscale>  0 0.88436321E+03</rscale>
<asrwt>0</asrwt>
<pdfrwt beam="1">  1        2 0.29805502E+00 0.88436321E+03</pdfrwt>
<pdfrwt beam="2">  1       -2 0.19258268E+00 0.88436321E+03</pdfrwt>
<totfact> 0.10952087E+00</totfact>
</mgrwt>
</event>
<event>
 4    1  0.2202466E-008  0.4556666E+03  0.7818608E-02  0.1026046E+00
          2   -1    0    0  501    0  0.00000000000E+00  0.00000000000E+00  0.11051409680E+04  0.11051409680E+04  0.25500000000E-02 0. -1.
         -2   -1    0    0    0  501 -0.00000000000E+00 -0.00000000000E+00 -0.33847517847E+03  0.33847517848E+03  0.25500000000E-02 0.  1.
    8880022    1    1    2    0    0  0.19674884645E+03 -0.38148437038E+03  0.86479953670E+03  0.97750208446E+03  0.15294330000E+03 0.  0.
    8880022    1    1    2    0    0 -0.19674884645E+03  0.38148437038E+03 -0.98133747210E+02  0.46611406199E+03  0.15294330000E+03 0.  0.
<mgrwt>
<rscale>  0 0.45566664E+03</rscale>
<asrwt>0</asrwt>
<pdfrwt beam="1">  1        2 0.17002169E+00 0.45566664E+03</pdfrwt>
<pdfrwt beam="2">  1       -2 0.52073104E-01 0.45566664E+03</pdfrwt>
<totfact> 0.78847987E+01</totfact>
</mgrwt>
</event>
<event>
 4    1  0.2202466E-008  0.7948114E+03  0.7818608E-02  0.9567558E-01
          2   -1    0    0  501    0  0.00000000000E+00  0.00000000000E+00  0.30673054115E+04  0.30673054115E+04  0.25500000000E-02 0. -1.
         -2   -1    0    0    0  501 -0.00000000000E+00 -0.00000000000E+00 -0.41255795392E+03  0.41255795393E+03  0.25500000000E-02 0.  1.
    8880022    1    1    2    0    0 -0.75613476005E+03  0.19129475036E+03  0.96088736698E+02  0.80059862303E+03  0.15294330000E+03 0.  0.
    8880022    1    1    2    0    0  0.75613476005E+03 -0.19129475036E+03  0.25586587209E+04  0.26792647424E+04  0.15294330000E+03 0.  0.
<mgrwt>
<rscale>  0 0.79481137E+03</rscale>
<asrwt>0</asrwt>
<pdfrwt beam="1">  1        2 0.47189314E+00 0.79481137E+03</pdfrwt>
<pdfrwt beam="2">  1       -2 0.63470454E-01 0.79481137E+03</pdfrwt>
<totfact> 0.38446009E+00</totfact>
</mgrwt>
</event>
<event>
 4    1  0.2202466E-008  0.1048053E+04  0.7818608E-02  0.9257356E-01
          2   -1    0    0  501    0  0.00000000000E+00  0.00000000000E+00  0.20631576648E+04  0.20631576648E+04  0.25500000000E-02 0. -1.
         -2   -1    0    0    0  501 -0.00000000000E+00 -0.00000000000E+00 -0.11440198605E+04  0.11440198605E+04  0.25500000000E-02 0.  1.
    8880022    1    1    2    0    0  0.89601272006E+03 -0.52171418071E+03  0.16320843192E+04  0.19396173228E+04  0.15294330000E+03 0.  0.
    8880022    1    1    2    0    0 -0.89601272006E+03  0.52171418071E+03 -0.71294651491E+03  0.12675602025E+04  0.15294330000E+03 0.  0.
<mgrwt>
<rscale>  0 0.10480535E+04</rscale>
<asrwt>0</asrwt>
<pdfrwt beam="1">  1        2 0.31740887E+00 0.10480535E+04</pdfrwt>
<pdfrwt beam="2">  1       -2 0.17600306E+00 0.10480535E+04</pdfrwt>
<totfact> 0.11810733E+00</totfact>
</mgrwt>
</event>
<event>
 4    1  0.2202466E-008  0.1344129E+04  0.7818608E-02  0.8995284E-01
          2   -1    0    0  501    0  0.00000000000E+00  0.00000000000E+00  0.22914432430E+04  0.22914432430E+04  0.25500000000E-02 0. -1.
         -2   -1    0    0    0  501 -0.00000000000E+00 -0.00000000000E+00 -0.12643557575E+04  0.12643557575E+04  0.25500000000E-02 0.  1.
    8880022    1    1    2    0    0  0.10515415767E+03  0.13312525256E+04 -0.57722894357E+03  0.14628313608E+04  0.15294330000E+03 0.  0.
    8880022    1    1    2    0    0 -0.10515415767E+03 -0.13312525256E+04  0.16043164290E+04  0.20929676398E+04  0.15294330000E+03 0.  0.
<mgrwt>
<rscale>  0 0.13441288E+04</rscale>
<asrwt>0</asrwt>
<pdfrwt beam="1">  1        2 0.35252973E+00 0.13441288E+04</pdfrwt>
<pdfrwt beam="2">  1       -2 0.19451627E+00 0.13441288E+04</pdfrwt>
<totfact> 0.63380003E-01</totfact>
</mgrwt>
</event>
<event>
 4    1  0.2202466E-008  0.6634771E+03  0.7818608E-02  0.9781814E-01
         -2   -1    0    0    0  501 -0.00000000000E+00  0.00000000000E+00  0.12934533443E+04  0.12934533443E+04  0.25500000000E-02 0.  1.
          2   -1    0    0  501    0  0.00000000000E+00 -0.00000000000E+00 -0.38230185600E+03  0.38230185601E+03  0.25500000000E-02 0. -1.
    8880022    1    1    2    0    0  0.61083661979E+03 -0.20901872157E+03  0.73319715090E+03  0.98882754672E+03  0.15294330000E+03 0.  0.
    8880022    1    1    2    0    0 -0.61083661979E+03  0.20901872157E+03  0.17795433737E+03  0.68692765357E+03  0.15294330000E+03 0.  0.
<mgrwt>
<rscale>  0 0.66347709E+03</rscale>
<asrwt>0</asrwt>
<pdfrwt beam="1">  1        2 0.58815671E-01 0.66347709E+03</pdfrwt>
<pdfrwt beam="2">  1       -2 0.19899282E+00 0.66347709E+03</pdfrwt>
<totfact> 0.11612603E+01</totfact>
</mgrwt>
</event>
<event>
 4    1  0.2202466E-008  0.2247975E+04  0.7818608E-02  0.8498721E-01
         -2   -1    0    0    0  501 -0.00000000000E+00  0.00000000000E+00  0.44753658260E+04  0.44753658260E+04  0.25500000000E-02 0.  1.
          2   -1    0    0  501    0  0.00000000000E+00 -0.00000000000E+00 -0.28996401288E+04  0.28996401288E+04  0.25500000000E-02 0. -1.
    8880022    1    1    2    0    0  0.73150389725E+03 -0.21201185326E+04  0.36692803047E+04  0.43031395691E+04  0.15294330000E+03 0.  0.
    8880022    1    1    2    0    0 -0.73150389725E+03  0.21201185326E+04 -0.20935546075E+04  0.30718663857E+04  0.15294330000E+03 0.  0.
<mgrwt>
<rscale>  0 0.22479751E+04</rscale>
<asrwt>0</asrwt>
<pdfrwt beam="1">  1        2 0.44609848E+00 0.22479751E+04</pdfrwt>
<pdfrwt beam="2">  1       -2 0.68851782E+00 0.22479751E+04</pdfrwt>
<totfact> 0.41793042E-04</totfact>
</mgrwt>
</event>
<event>
 4    1  0.2202466E-008  0.1784461E+03  0.7818608E-02  0.1169315E+00
          2   -1    0    0  501    0  0.00000000000E+00  0.00000000000E+00  0.32676966267E+03  0.32676966268E+03  0.25500000000E-02 0. -1.
         -2   -1    0    0    0  501 -0.00000000000E+00 -0.00000000000E+00 -0.47729669247E+03  0.47729669248E+03  0.25500000000E-02 0.  1.
    8880022    1    1    2    0    0  0.91483746845E+02  0.90601353476E+01  0.28338832353E+03  0.33489096273E+03  0.15294330000E+03 0.  0.
    8880022    1    1    2    0    0 -0.91483746845E+02 -0.90601353476E+01 -0.43391535333E+03  0.46917539243E+03  0.15294330000E+03 0.  0.
<mgrwt>
<rscale>  0 0.17844611E+03</rscale>
<asrwt>0</asrwt>
<pdfrwt beam="1">  1        2 0.50272255E-01 0.17844611E+03</pdfrwt>
<pdfrwt beam="2">  1       -2 0.73430261E-01 0.17844611E+03</pdfrwt>
<totfact> 0.17402524E+02</totfact>
</mgrwt>
</event>
<event>
 4    1  0.2202466E-008  0.1858997E+04  0.7818608E-02  0.8675540E-01
         -2   -1    0    0    0  501 -0.00000000000E+00  0.00000000000E+00  0.20586467945E+04  0.20586467945E+04  0.25500000000E-02 0.  1.
          2   -1    0    0  501    0  0.00000000000E+00 -0.00000000000E+00 -0.30979998603E+04  0.30979998603E+04  0.25500000000E-02 0. -1.
    8880022    1    1    2    0    0 -0.15476621496E+02  0.18526300793E+04  0.12254718042E+04  0.22265782117E+04  0.15294330000E+03 0.  0.
    8880022    1    1    2    0    0  0.15476621496E+02 -0.18526300793E+04 -0.22648248701E+04  0.29300684432E+04  0.15294330000E+03 0.  0.
<mgrwt>
<rscale>  0 0.18589969E+04</rscale>
<asrwt>0</asrwt>
<pdfrwt beam="1">  1        2 0.47661536E+00 0.18589969E+04</pdfrwt>
<pdfrwt beam="2">  1       -2 0.31671489E+00 0.18589969E+04</pdfrwt>
<totfact> 0.34003119E-02</totfact>
</mgrwt>
</event>
<event>
 4    1  0.2202466E-008  0.9790045E+03  0.7818608E-02  0.9331877E-01
         -2   -1    0    0    0  501 -0.00000000000E+00  0.00000000000E+00  0.86515265593E+03  0.86515265594E+03  0.25500000000E-02 0.  1.
          2   -1    0    0  501    0  0.00000000000E+00 -0.00000000000E+00 -0.14848695009E+04  0.14848695009E+04  0.25500000000E-02 0. -1.
    8880022    1    1    2    0    0  0.91757748548E+03  0.30513870900E+03  0.28222942129E+03  0.10188734823E+04  0.15294330000E+03 0. -1.
    8880022    1    1    2    0    0 -0.91757748548E+03 -0.30513870900E+03 -0.90194626625E+03  0.13311486746E+04  0.15294330000E+03 0.  0.
<mgrwt>
<rscale>  0 0.97900446E+03</rscale>
<asrwt>0</asrwt>
<pdfrwt beam="1">  1        2 0.22844146E+00 0.97900446E+03</pdfrwt>
<pdfrwt beam="2">  1       -2 0.13310041E+00 0.97900446E+03</pdfrwt>
<totfact> 0.52720660E+00</totfact>
</mgrwt>
</event>
<event>
 4    1  0.2202466E-008  0.5226905E+03  0.7818608E-02  0.1008020E+00
         -2   -1    0    0    0  501 -0.00000000000E+00  0.00000000000E+00  0.10112991397E+04  0.10112991397E+04  0.25500000000E-02 0.  1.
          2   -1    0    0  501    0  0.00000000000E+00 -0.00000000000E+00 -0.98031741233E+03  0.98031741234E+03  0.25500000000E-02 0. -1.
    8880022    1    1    2    0    0 -0.24612482779E+03 -0.43501296840E+03  0.86305362050E+03  0.10089930220E+04  0.15294330000E+03 0.  0.
    8880022    1    1    2    0    0  0.24612482779E+03  0.43501296840E+03 -0.83207189312E+03  0.98262353008E+03  0.15294330000E+03 0.  0.
<mgrwt>
<rscale>  0 0.52269051E+03</rscale>
<asrwt>0</asrwt>
<pdfrwt beam="1">  1        2 0.15081806E+00 0.52269051E+03</pdfrwt>
<pdfrwt beam="2">  1       -2 0.15558448E+00 0.52269051E+03</pdfrwt>
<totfact> 0.74322902E+00</totfact>
</mgrwt>
</event>
<event>
 4    1  0.2202466E-008  0.7941518E+03  0.7818608E-02  0.9568521E-01
         -2   -1    0    0    0  501 -0.00000000000E+00  0.00000000000E+00  0.21722477538E+04  0.21722477538E+04  0.25500000000E-02 0.  1.
          2   -1    0    0  501    0  0.00000000000E+00 -0.00000000000E+00 -0.59613621847E+03  0.59613621848E+03  0.25500000000E-02 0. -1.
    8880022    1    1    2    0    0 -0.71906660807E+03 -0.30038091687E+03  0.17794444851E+04  0.19486148441E+04  0.15294330000E+03 0.  0.
    8880022    1    1    2    0    0  0.71906660807E+03  0.30038091687E+03 -0.20333294976E+03  0.81976912819E+03  0.15294330000E+03 0.  0.
<mgrwt>
<rscale>  0 0.79415183E+03</rscale>
<asrwt>0</asrwt>
<pdfrwt beam="1">  1        2 0.91713263E-01 0.79415183E+03</pdfrwt>
<pdfrwt beam="2">  1       -2 0.33419197E+00 0.79415183E+03</pdfrwt>
<totfact> 0.10190851E+00</totfact>
</mgrwt>
</event>
<event>
 4    1  0.2202466E-008  0.1065830E+04  0.7818608E-02  0.9239151E-01
          2   -1    0    0  501    0  0.00000000000E+00  0.00000000000E+00  0.19034886193E+04  0.19034886193E+04  0.25500000000E-02 0. -1.
         -2   -1    0    0    0  501 -0.00000000000E+00 -0.00000000000E+00 -0.13337130964E+04  0.13337130964E+04  0.25500000000E-02 0.  1.
    8880022    1    1    2    0    0  0.50324660479E+03 -0.92700857926E+03 -0.91825726814E+03  0.14068369183E+04  0.15294330000E+03 0.  0.
    8880022    1    1    2    0    0 -0.50324660479E+03  0.92700857926E+03  0.14880327910E+04  0.18303647973E+04  0.15294330000E+03 0.  0.
<mgrwt>
<rscale>  0 0.10658301E+04</rscale>
<asrwt>0</asrwt>
<pdfrwt beam="1">  1        2 0.29284440E+00 0.10658301E+04</pdfrwt>
<pdfrwt beam="2">  1       -2 0.20518663E+00 0.10658301E+04</pdfrwt>
<totfact> 0.91897525E-01</totfact>
</mgrwt>
</event>
<event>
 4    1  0.2202466E-008  0.8150752E+03  0.7818608E-02  0.9538449E-01
          2   -1    0    0  501    0  0.00000000000E+00  0.00000000000E+00  0.73799773306E+03  0.73799773306E+03  0.25500000000E-02 0. -1.
         -2   -1    0    0    0  501 -0.00000000000E+00 -0.00000000000E+00 -0.15717814220E+04  0.15717814220E+04  0.25500000000E-02 0.  1.
    8880022    1    1    2    0    0 -0.40329246291E+03 -0.69160044865E+03  0.33801403841E+03  0.88238377954E+03  0.15294330000E+03 0.  0.
    8880022    1    1    2    0    0  0.40329246291E+03  0.69160044865E+03 -0.11717977273E+04  0.14273953755E+04  0.15294330000E+03 0.  0.
<mgrwt>
<rscale>  0 0.81507524E+03</rscale>
<asrwt>0</asrwt>
<pdfrwt beam="1">  1        2 0.11353811E+00 0.81507524E+03</pdfrwt>
<pdfrwt beam="2">  1       -2 0.24181253E+00 0.81507524E+03</pdfrwt>
<totfact> 0.28188704E+00</totfact>
</mgrwt>
</event>
<event>
 4    1  0.2202466E-008  0.6071869E+03  0.7818608E-02  0.9890607E-01
         -2   -1    0    0    0  501 -0.00000000000E+00  0.00000000000E+00  0.17569477217E+03  0.17569477219E+03  0.25500000000E-02 0.  1.
          2   -1    0    0  501    0  0.00000000000E+00 -0.00000000000E+00 -0.23685687459E+04  0.23685687459E+04  0.25500000000E-02 0. -1.
    8880022    1    1    2    0    0 -0.49223924456E+03  0.32091238900E+03 -0.15260880586E+04  0.16424435001E+04  0.15294330000E+03 0.  0.
    8880022    1    1    2    0    0  0.49223924456E+03 -0.32091238900E+03 -0.66678591512E+03  0.90182001803E+03  0.15294330000E+03 0.  0.
<mgrwt>
<rscale>  0 0.60718686E+03</rscale>
<asrwt>0</asrwt>
<pdfrwt beam="1">  1        2 0.36439517E+00 0.60718686E+03</pdfrwt>
<pdfrwt beam="2">  1       -2 0.27029967E-01 0.60718686E+03</pdfrwt>
<totfact> 0.54533831E+01</totfact>
</mgrwt>
</event>
<event>
 4    1  0.2202466E-008  0.1560265E+03  0.7818608E-02  0.1193257E+00
         -2   -1    0    0    0  501 -0.00000000000E+00  0.00000000000E+00  0.53210998091E+03  0.53210998091E+03  0.25500000000E-02 0.  1.
          2   -1    0    0  501    0  0.00000000000E+00 -0.00000000000E+00 -0.90199374067E+03  0.90199374067E+03  0.25500000000E-02 0. -1.
    8880022    1    1    2    0    0  0.26298610684E+02 -0.16155167905E+02  0.51368839481E+03  0.53686127291E+03  0.15294330000E+03 0.  0.
    8880022    1    1    2    0    0 -0.26298610684E+02  0.16155167905E+02 -0.88357215457E+03  0.89724244868E+03  0.15294330000E+03 0. -1.
<mgrwt>
<rscale>  0 0.15602647E+03</rscale>
<asrwt>0</asrwt>
<pdfrwt beam="1">  1        2 0.13876827E+00 0.15602647E+03</pdfrwt>
<pdfrwt beam="2">  1       -2 0.81863074E-01 0.15602647E+03</pdfrwt>
<totfact> 0.43130111E+01</totfact>
</mgrwt>
</event>
<event>
 4    1  0.2202466E-008  0.6257134E+03  0.7818608E-02  0.9853450E-01
         -2   -1    0    0    0  501 -0.00000000000E+00  0.00000000000E+00  0.38459646889E+03  0.38459646890E+03  0.25500000000E-02 0.  1.
          2   -1    0    0  501    0  0.00000000000E+00 -0.00000000000E+00 -0.18616470877E+04  0.18616470877E+04  0.25500000000E-02 0. -1.
    8880022    1    1    2    0    0 -0.59051576218E+03  0.13934382176E+03 -0.14945916536E+04  0.16202843670E+04  0.15294330000E+03 0.  0.
    8880022    1    1    2    0    0  0.59051576218E+03 -0.13934382176E+03  0.17541034823E+02  0.62595918954E+03  0.15294330000E+03 0.  0.
<mgrwt>
<rscale>  0 0.62571337E+03</rscale>
<asrwt>0</asrwt>
<pdfrwt beam="1">  1        2 0.28640724E+00 0.62571337E+03</pdfrwt>
<pdfrwt beam="2">  1       -2 0.59168689E-01 0.62571337E+03</pdfrwt>
<totfact> 0.22327821E+01</totfact>
</mgrwt>
</event>
<event>
 4    1  0.2202466E-008  0.2617233E+03  0.7818608E-02  0.1106112E+00
          2   -1    0    0  501    0  0.00000000000E+00  0.00000000000E+00  0.54232578178E+04  0.54232578178E+04  0.25500000000E-02 0. -1.
         -2   -1    0    0    0  501 -0.00000000000E+00 -0.00000000000E+00 -0.38158781279E+02  0.38158781364E+02  0.25500000000E-02 0.  1.
    8880022    1    1    2    0    0  0.12534717657E+03 -0.17145119476E+03  0.49260593842E+04  0.49330072102E+04  0.15294330000E+03 0.  0.
    8880022    1    1    2    0    0 -0.12534717657E+03  0.17145119476E+03  0.45903965233E+03  0.52840938891E+03  0.15294330000E+03 0.  0.
<mgrwt>
<rscale>  0 0.26172329E+03</rscale>
<asrwt>0</asrwt>
<pdfrwt beam="1">  1        2 0.83434775E+00 0.26172329E+03</pdfrwt>
<pdfrwt beam="2">  1       -2 0.58705789E-02 0.26172329E+03</pdfrwt>
<totfact> 0.20138741E+00</totfact>
</mgrwt>
</event>
<event>
 4    1  0.2202466E-008  0.6446861E+03  0.7818608E-02  0.9816802E-01
         -2   -1    0    0    0  501 -0.00000000000E+00  0.00000000000E+00  0.15902124829E+03  0.15902124831E+03  0.25500000000E-02 0.  1.
          2   -1    0    0  501    0  0.00000000000E+00 -0.00000000000E+00 -0.36939126902E+04  0.36939126902E+04  0.25500000000E-02 0. -1.
    8880022    1    1    2    0    0 -0.88693043715E+02 -0.61996939044E+03 -0.72563172551E+03  0.97065006834E+03  0.15294330000E+03 0.  0.
    8880022    1    1    2    0    0  0.88693043715E+02  0.61996939044E+03 -0.28092597163E+04  0.28822838701E+04  0.15294330000E+03 0.  0.
<mgrwt>
<rscale>  0 0.64468609E+03</rscale>
<asrwt>0</asrwt>
<pdfrwt beam="1">  1        2 0.56829419E+00 0.64468609E+03</pdfrwt>
<pdfrwt beam="2">  1       -2 0.24464810E-01 0.64468609E+03</pdfrwt>
<totfact> 0.97797470E+00</totfact>
</mgrwt>
</event>
<event>
 4    1  0.2202466E-008  0.4788641E+03  0.7818608E-02  0.1019448E+00
          2   -1    0    0  501    0  0.00000000000E+00  0.00000000000E+00  0.85814956647E+03  0.85814956647E+03  0.25500000000E-02 0. -1.
         -2   -1    0    0    0  501 -0.00000000000E+00 -0.00000000000E+00 -0.48769888209E+03  0.48769888210E+03  0.25500000000E-02 0.  1.
    8880022    1    1    2    0    0  0.40434936409E+03  0.20596296900E+03 -0.26723266878E+03  0.54838317363E+03  0.15294330000E+03 0.  0.
    8880022    1    1    2    0    0 -0.40434936409E+03 -0.20596296900E+03  0.63768335315E+03  0.79746527494E+03  0.15294330000E+03 0.  0.
<mgrwt>
<rscale>  0 0.47886408E+03</rscale>
<asrwt>0</asrwt>
<pdfrwt beam="1">  1        2 0.13202301E+00 0.47886408E+03</pdfrwt>
<pdfrwt beam="2">  1       -2 0.75030598E-01 0.47886408E+03</pdfrwt>
<totfact> 0.52081589E+01</totfact>
</mgrwt>
</event>
<event>
 4    1  0.2202466E-008  0.1238454E+04  0.7818608E-02  0.9079848E-01
          2   -1    0    0  501    0  0.00000000000E+00  0.00000000000E+00  0.17977991902E+04  0.17977991902E+04  0.25500000000E-02 0. -1.
         -2   -1    0    0    0  501 -0.00000000000E+00 -0.00000000000E+00 -0.10379078799E+04  0.10379078799E+04  0.25500000000E-02 0.  1.
    8880022    1    1    2    0    0  0.12280025373E+04  0.48852475967E+02 -0.21828559316E+03  0.12575440546E+04  0.15294330000E+03 0.  0.
    8880022    1    1    2    0    0 -0.12280025373E+04 -0.48852475967E+02  0.97817690340E+03  0.15781630155E+04  0.15294330000E+03 0.  0.
<mgrwt>
<rscale>  0 0.12384541E+04</rscale>
<asrwt>0</asrwt>
<pdfrwt beam="1">  1        2 0.27658449E+00 0.12384541E+04</pdfrwt>
<pdfrwt beam="2">  1       -2 0.15967813E+00 0.12384541E+04</pdfrwt>
<totfact> 0.21209268E+00</totfact>
</mgrwt>
</event>
<event>
 4    1  0.2202466E-008  0.3220253E+03  0.7818608E-02  0.1074721E+00
         -2   -1    0    0    0  501 -0.00000000000E+00  0.00000000000E+00  0.17759789796E+03  0.17759789798E+03  0.25500000000E-02 0.  1.
          2   -1    0    0  501    0  0.00000000000E+00 -0.00000000000E+00 -0.78427703196E+03  0.78427703196E+03  0.25500000000E-02 0. -1.
    8880022    1    1    2    0    0 -0.26199478302E+03  0.10801568505E+03 -0.54643252060E+03  0.63426241189E+03  0.15294330000E+03 0.  0.
    8880022    1    1    2    0    0  0.26199478302E+03 -0.10801568505E+03 -0.60246613394E+02  0.32761251806E+03  0.15294330000E+03 0.  0.
<mgrwt>
<rscale>  0 0.32202532E+03</rscale>
<asrwt>0</asrwt>
<pdfrwt beam="1">  1        2 0.12065800E+00 0.32202532E+03</pdfrwt>
<pdfrwt beam="2">  1       -2 0.27322754E-01 0.32202532E+03</pdfrwt>
<totfact> 0.44223412E+02</totfact>
</mgrwt>
</event>
<event>
 4    1  0.2260368E-008  0.1134381E+04  0.7818608E-02  0.9172315E-01
          2   -1    0    0  501    0  0.00000000000E+00  0.00000000000E+00  0.19190736214E+04  0.19190736214E+04  0.25500000000E-02 0. -1.
         -2   -1    0    0    0  501 -0.00000000000E+00 -0.00000000000E+00 -0.15773418110E+04  0.15773418110E+04  0.25500000000E-02 0.  1.
    8880022    1    1    2    0    0  0.48122316563E+03 -0.10158012587E+04 -0.11546526771E+04  0.16186544999E+04  0.15294330000E+03 0.  0.
    8880022    1    1    2    0    0 -0.48122316563E+03  0.10158012587E+04  0.14963844875E+04  0.18777609325E+04  0.15294330000E+03 0.  0.
<mgrwt>
<rscale>  0 0.11343807E+04</rscale>
<asrwt>0</asrwt>
<pdfrwt beam="1">  1        2 0.29524210E+00 0.11343807E+04</pdfrwt>
<pdfrwt beam="2">  1       -2 0.24266797E+00 0.11343807E+04</pdfrwt>
<totfact> 0.51844579E-01</totfact>
</mgrwt>
</event>
<event>
 4    1  0.2202466E-008  0.1707966E+03  0.7818608E-02  0.1177020E+00
          2   -1    0    0  501    0  0.00000000000E+00  0.00000000000E+00  0.12579205686E+04  0.12579205686E+04  0.25500000000E-02 0. -1.
         -2   -1    0    0    0  501 -0.00000000000E+00 -0.00000000000E+00 -0.85591116156E+03  0.85591116156E+03  0.25500000000E-02 0.  1.
    8880022    1    1    2    0    0 -0.75763350577E+02 -0.63037817531E+01  0.12435040970E+04  0.12551788379E+04  0.15294330000E+03 0. -1.
    8880022    1    1    2    0    0  0.75763350577E+02  0.63037817531E+01 -0.84149468999E+03  0.85865289218E+03  0.15294330000E+03 0.  0.
<mgrwt>
<rscale>  0 0.17079659E+03</rscale>
<asrwt>0</asrwt>
<pdfrwt beam="1">  1        2 0.19352624E+00 0.17079659E+03</pdfrwt>
<pdfrwt beam="2">  1       -2 0.13167864E+00 0.17079659E+03</pdfrwt>
<totfact> 0.87481471E+00</totfact>
</mgrwt>
</event>
<event>
 4    1  0.2202466E-008  0.1314544E+04  0.7818608E-02  0.9018110E-01
         -2   -1    0    0    0  501 -0.00000000000E+00  0.00000000000E+00  0.74600553161E+03  0.74600553161E+03  0.25500000000E-02 0.  1.
          2   -1    0    0  501    0  0.00000000000E+00 -0.00000000000E+00 -0.25684596923E+04  0.25684596923E+04  0.25500000000E-02 0. -1.
    8880022    1    1    2    0    0  0.63397579654E+03 -0.11413630353E+04 -0.14304127118E+04  0.19427061198E+04  0.15294330000E+03 0.  0.
    8880022    1    1    2    0    0 -0.63397579654E+03  0.11413630353E+04 -0.39204144891E+03  0.13717591041E+04  0.15294330000E+03 0.  0.
<mgrwt>
<rscale>  0 0.13145442E+04</rscale>
<asrwt>0</asrwt>
<pdfrwt beam="1">  1        2 0.39514764E+00 0.13145442E+04</pdfrwt>
<pdfrwt beam="2">  1       -2 0.11477008E+00 0.13145442E+04</pdfrwt>
<totfact> 0.18238950E+00</totfact>
</mgrwt>
</event>
<event>
 4    1  0.2202466E-008  0.4780281E+03  0.7818608E-02  0.1019678E+00
         -2   -1    0    0    0  501 -0.00000000000E+00  0.00000000000E+00  0.67769691494E+03  0.67769691494E+03  0.25500000000E-02 0.  1.
          2   -1    0    0  501    0  0.00000000000E+00 -0.00000000000E+00 -0.12406421061E+04  0.12406421061E+04  0.25500000000E-02 0. -1.
    8880022    1    1    2    0    0  0.34288620654E+03 -0.29588563305E+03  0.53703983846E+03  0.71897336501E+03  0.15294330000E+03 0.  0.
    8880022    1    1    2    0    0 -0.34288620654E+03  0.29588563305E+03 -0.10999850296E+04  0.11993656560E+04  0.15294330000E+03 0.  0.
<mgrwt>
<rscale>  0 0.47802815E+03</rscale>
<asrwt>0</asrwt>
<pdfrwt beam="1">  1        2 0.19086802E+00 0.47802815E+03</pdfrwt>
<pdfrwt beam="2">  1       -2 0.10426106E+00 0.47802815E+03</pdfrwt>
<totfact> 0.14235729E+01</totfact>
</mgrwt>
</event>
<event>
 4    1  0.2202466E-008  0.1956336E+04  0.7818608E-02  0.8627312E-01
         -2   -1    0    0    0  501 -0.00000000000E+00  0.00000000000E+00  0.25560092707E+04  0.25560092707E+04  0.25500000000E-02 0.  1.
          2   -1    0    0  501    0  0.00000000000E+00 -0.00000000000E+00 -0.22738302051E+04  0.22738302051E+04  0.25500000000E-02 0. -1.
    8880022    1    1    2    0    0 -0.13428670379E+04  0.14144138415E+04 -0.12701080796E+04  0.23324717755E+04  0.15294330000E+03 0.  0.
    8880022    1    1    2    0    0  0.13428670379E+04 -0.14144138415E+04  0.15522871451E+04  0.24973677003E+04  0.15294330000E+03 0.  0.
<mgrwt>
<rscale>  0 0.19563359E+04</rscale>
<asrwt>0</asrwt>
<pdfrwt beam="1">  1        2 0.34982003E+00 0.19563359E+04</pdfrwt>
<pdfrwt beam="2">  1       -2 0.39323220E+00 0.19563359E+04</pdfrwt>
<totfact> 0.34227947E-02</totfact>
</mgrwt>
</event>
<event>
 4    1  0.2202466E-008  0.7398991E+03  0.7818608E-02  0.9651332E-01
         -2   -1    0    0    0  501 -0.00000000000E+00  0.00000000000E+00  0.59390887277E+03  0.59390887277E+03  0.25500000000E-02 0.  1.
          2   -1    0    0  501    0  0.00000000000E+00 -0.00000000000E+00 -0.25204065345E+04  0.25204065345E+04  0.25500000000E-02 0. -1.
    8880022    1    1    2    0    0  0.22361618132E+03  0.68851641900E+03 -0.22033908028E+04  0.23243024198E+04  0.15294330000E+03 0.  0.
    8880022    1    1    2    0    0 -0.22361618132E+03 -0.68851641900E+03  0.27689314107E+03  0.79001298747E+03  0.15294330000E+03 0.  0.
<mgrwt>
<rscale>  0 0.73989912E+03</rscale>
<asrwt>0</asrwt>
<pdfrwt beam="1">  1        2 0.38775485E+00 0.73989912E+03</pdfrwt>
<pdfrwt beam="2">  1       -2 0.91370597E-01 0.73989912E+03</pdfrwt>
<totfact> 0.36392551E+00</totfact>
</mgrwt>
</event>
<event>
 4    1  0.2202466E-008  0.2312519E+03  0.7818608E-02  0.1125762E+00
          2   -1    0    0  501    0  0.00000000000E+00  0.00000000000E+00  0.98046095524E+03  0.98046095524E+03  0.25500000000E-02 0. -1.
         -2   -1    0    0    0  501 -0.00000000000E+00 -0.00000000000E+00 -0.12140724222E+03  0.12140724225E+03  0.25500000000E-02 0.  1.
    8880022    1    1    2    0    0 -0.14131049281E+03 -0.10058387962E+03  0.20667590663E+02  0.23217358708E+03  0.15294330000E+03 0.  1.
    8880022    1    1    2    0    0  0.14131049281E+03  0.10058387962E+03  0.83838612235E+03  0.86969461041E+03  0.15294330000E+03 0.  0.
<mgrwt>
<rscale>  0 0.23125187E+03</rscale>
<asrwt>0</asrwt>
<pdfrwt beam="1">  1        2 0.15084014E+00 0.23125187E+03</pdfrwt>
<pdfrwt beam="2">  1       -2 0.18678038E-01 0.23125187E+03</pdfrwt>
<totfact> 0.64263140E+02</totfact>
</mgrwt>
</event>
<event>
 4    1  0.2202466E-008  0.5179607E+03  0.7818608E-02  0.1009194E+00
         -2   -1    0    0    0  501 -0.00000000000E+00  0.00000000000E+00  0.20090113838E+04  0.20090113838E+04  0.25500000000E-02 0.  1.
          2   -1    0    0  501    0  0.00000000000E+00 -0.00000000000E+00 -0.39021178590E+03  0.39021178591E+03  0.25500000000E-02 0. -1.
    8880022    1    1    2    0    0  0.43773100591E+03  0.23083152942E+03 -0.16352565931E+03  0.54316104682E+03  0.15294330000E+03 0.  0.
    8880022    1    1    2    0    0 -0.43773100591E+03 -0.23083152942E+03  0.17823252573E+04  0.18560621229E+04  0.15294330000E+03 0.  0.
<mgrwt>
<rscale>  0 0.51796069E+03</rscale>
<asrwt>0</asrwt>
<pdfrwt beam="1">  1        2 0.60032582E-01 0.51796069E+03</pdfrwt>
<pdfrwt beam="2">  1       -2 0.30907867E+00 0.51796069E+03</pdfrwt>
<totfact> 0.24869574E+00</totfact>
</mgrwt>
</event>
<event>
 4    1  0.2202466E-008  0.8142906E+03  0.7818608E-02  0.9539559E-01
          2   -1    0    0  501    0  0.00000000000E+00  0.00000000000E+00  0.69729858295E+03  0.69729858295E+03  0.25500000000E-02 0. -1.
         -2   -1    0    0    0  501 -0.00000000000E+00 -0.00000000000E+00 -0.11070481223E+04  0.11070481223E+04  0.25500000000E-02 0.  1.
    8880022    1    1    2    0    0 -0.19536517468E+03 -0.77557076252E+03 -0.54368708966E+03  0.97911432613E+03  0.15294330000E+03 0.  0.
    8880022    1    1    2    0    0  0.19536517468E+03  0.77557076252E+03  0.13393755031E+03  0.82523237912E+03  0.15294330000E+03 0.  0.
<mgrwt>
<rscale>  0 0.81429062E+03</rscale>
<asrwt>0</asrwt>
<pdfrwt beam="1">  1        2 0.10727671E+00 0.81429062E+03</pdfrwt>
<pdfrwt beam="2">  1       -2 0.17031510E+00 0.81429062E+03</pdfrwt>
<totfact> 0.88173214E+00</totfact>
</mgrwt>
</event>
<event>
 4    1  0.2202466E-008  0.7593986E+03  0.7818608E-02  0.9620720E-01
         -2   -1    0    0    0  501 -0.00000000000E+00  0.00000000000E+00  0.50488901327E+03  0.50488901328E+03  0.25500000000E-02 0.  1.
          2   -1    0    0  501    0  0.00000000000E+00 -0.00000000000E+00 -0.22769891134E+04  0.22769891134E+04  0.25500000000E-02 0. -1.
    8880022    1    1    2    0    0  0.43050654353E+03  0.60659603851E+03  0.95888762767E+02  0.76542860268E+03  0.15294330000E+03 0.  0.
    8880022    1    1    2    0    0 -0.43050654353E+03 -0.60659603851E+03 -0.18679888629E+04  0.20164495240E+04  0.15294330000E+03 0.  0.
<mgrwt>
<rscale>  0 0.75939864E+03</rscale>
<asrwt>0</asrwt>
<pdfrwt beam="1">  1        2 0.35030601E+00 0.75939864E+03</pdfrwt>
<pdfrwt beam="2">  1       -2 0.77675234E-01 0.75939864E+03</pdfrwt>
<totfact> 0.71850643E+00</totfact>
</mgrwt>
</event>
<event>
 4    1  0.2202466E-008  0.1029297E+04  0.7818608E-02  0.9276983E-01
          2   -1    0    0  501    0  0.00000000000E+00  0.00000000000E+00  0.11706148884E+04  0.11706148884E+04  0.25500000000E-02 0. -1.
         -2   -1    0    0    0  501 -0.00000000000E+00 -0.00000000000E+00 -0.94230026053E+03  0.94230026053E+03  0.25500000000E-02 0.  1.
    8880022    1    1    2    0    0  0.24596436190E+03  0.98770597868E+03  0.32423539291E+03  0.10791579174E+04  0.15294330000E+03 0.  0.
    8880022    1    1    2    0    0 -0.24596436190E+03 -0.98770597868E+03 -0.95920765004E+02  0.10337572316E+04  0.15294330000E+03 0.  0.
<mgrwt>
<rscale>  0 0.10292974E+04</rscale>
<asrwt>0</asrwt>
<pdfrwt beam="1">  1        2 0.18009460E+00 0.10292974E+04</pdfrwt>
<pdfrwt beam="2">  1       -2 0.14496927E+00 0.10292974E+04</pdfrwt>
<totfact> 0.63939065E+00</totfact>
</mgrwt>
</event>
<event>
 4    1  0.2202466E-008  0.6116634E+03  0.7818608E-02  0.9881499E-01
         -2   -1    0    0    0  501 -0.00000000000E+00  0.00000000000E+00  0.16645251392E+04  0.16645251392E+04  0.25500000000E-02 0.  1.
          2   -1    0    0  501    0  0.00000000000E+00 -0.00000000000E+00 -0.23531853824E+04  0.23531853824E+04  0.25500000000E-02 0. -1.
    8880022    1    1    2    0    0 -0.28877467787E+03  0.51705869495E+03 -0.22548385745E+04  0.23363281359E+04  0.15294330000E+03 0.  0.
    8880022    1    1    2    0    0  0.28877467787E+03 -0.51705869495E+03  0.15661783312E+04  0.16813823857E+04  0.15294330000E+03 0.  1.
<mgrwt>
<rscale>  0 0.61166344E+03</rscale>
<asrwt>0</asrwt>
<pdfrwt beam="1">  1        2 0.36202852E+00 0.61166344E+03</pdfrwt>
<pdfrwt beam="2">  1       -2 0.25608079E+00 0.61166344E+03</pdfrwt>
<totfact> 0.27612045E-01</totfact>
</mgrwt>
</event>
<event>
 4    1  0.2202466E-008  0.3638889E+03  0.7818608E-02  0.1057055E+00
         -2   -1    0    0    0  501 -0.00000000000E+00  0.00000000000E+00  0.42451935095E+02  0.42451935171E+02  0.25500000000E-02 0.  1.
          2   -1    0    0  501    0  0.00000000000E+00 -0.00000000000E+00 -0.48056883467E+04  0.48056883467E+04  0.25500000000E-02 0. -1.
    8880022    1    1    2    0    0  0.31488684441E+03 -0.99346710662E+02 -0.94559363255E+03  0.10131941890E+04  0.15294330000E+03 0.  0.
    8880022    1    1    2    0    0 -0.31488684441E+03  0.99346710662E+02 -0.38176427791E+04  0.38349460929E+04  0.15294330000E+03 0.  0.
<mgrwt>
<rscale>  0 0.36388892E+03</rscale>
<asrwt>0</asrwt>
<pdfrwt beam="1">  1        2 0.73933624E+00 0.36388892E+03</pdfrwt>
<pdfrwt beam="2">  1       -2 0.65310707E-02 0.36388892E+03</pdfrwt>
<totfact> 0.10394839E+01</totfact>
</mgrwt>
</event>
<event>
 4    1  0.2202466E-008  0.1267231E+04  0.7818608E-02  0.9055963E-01
          2   -1    0    0  501    0  0.00000000000E+00  0.00000000000E+00  0.12269926646E+04  0.12269926646E+04  0.25500000000E-02 0. -1.
         -2   -1    0    0    0  501 -0.00000000000E+00 -0.00000000000E+00 -0.21002374538E+04  0.21002374538E+04  0.25500000000E-02 0.  1.
    8880022    1    1    2    0    0 -0.66395964527E+03  0.10684753919E+04 -0.14578678442E+04  0.19316449927E+04  0.15294330000E+03 0.  0.
    8880022    1    1    2    0    0  0.66395964527E+03 -0.10684753919E+04  0.58462305505E+03  0.13955851257E+04  0.15294330000E+03 0.  0.
<mgrwt>
<rscale>  0 0.12672307E+04</rscale>
<asrwt>0</asrwt>
<pdfrwt beam="1">  1        2 0.18876810E+00 0.12672307E+04</pdfrwt>
<pdfrwt beam="2">  1       -2 0.32311345E+00 0.12672307E+04</pdfrwt>
<totfact> 0.40556792E-01</totfact>
</mgrwt>
</event>
<event>
 4    1  0.2202466E-008  0.3904077E+03  0.7818608E-02  0.1047153E+00
         -2   -1    0    0    0  501 -0.00000000000E+00  0.00000000000E+00  0.11983066488E+04  0.11983066488E+04  0.25500000000E-02 0.  1.
          2   -1    0    0  501    0  0.00000000000E+00 -0.00000000000E+00 -0.15781274125E+04  0.15781274125E+04  0.25500000000E-02 0. -1.
    8880022    1    1    2    0    0 -0.23897003384E+03  0.26817878002E+03 -0.15210082278E+04  0.15703134137E+04  0.15294330000E+03 0. -1.
    8880022    1    1    2    0    0  0.23897003384E+03 -0.26817878002E+03  0.11411874641E+04  0.12061206475E+04  0.15294330000E+03 0.  0.
<mgrwt>
<rscale>  0 0.39040772E+03</rscale>
<asrwt>0</asrwt>
<pdfrwt beam="1">  1        2 0.24278883E+00 0.39040772E+03</pdfrwt>
<pdfrwt beam="2">  1       -2 0.18435487E+00 0.39040772E+03</pdfrwt>
<totfact> 0.21869625E+00</totfact>
</mgrwt>
</event>
<event>
 4    1  0.2202466E-008  0.6606266E+03  0.7818608E-02  0.9787041E-01
          2   -1    0    0  501    0  0.00000000000E+00  0.00000000000E+00  0.29285339878E+04  0.29285339878E+04  0.25500000000E-02 0. -1.
         -2   -1    0    0    0  501 -0.00000000000E+00 -0.00000000000E+00 -0.21965055170E+03  0.21965055171E+03  0.25500000000E-02 0.  1.
    8880022    1    1    2    0    0 -0.29244358261E+03  0.57228712376E+03  0.46187198973E+03  0.80607269457E+03  0.15294330000E+03 0.  0.
    8880022    1    1    2    0    0  0.29244358261E+03 -0.57228712376E+03  0.22470114464E+04  0.23421118449E+04  0.15294330000E+03 0.  0.
<mgrwt>
<rscale>  0 0.66062656E+03</rscale>
<asrwt>0</asrwt>
<pdfrwt beam="1">  1        2 0.45054367E+00 0.66062656E+03</pdfrwt>
<pdfrwt beam="2">  1       -2 0.33792394E-01 0.66062656E+03</pdfrwt>
<totfact> 0.16992022E+01</totfact>
</mgrwt>
</event>
<event>
 4    1  0.2202466E-008  0.1851210E+04  0.7818608E-02  0.8679531E-01
          2   -1    0    0  501    0  0.00000000000E+00  0.00000000000E+00  0.40823623344E+04  0.40823623344E+04  0.25500000000E-02 0. -1.
         -2   -1    0    0    0  501 -0.00000000000E+00 -0.00000000000E+00 -0.95066254906E+03  0.95066254906E+03  0.25500000000E-02 0.  1.
    8880022    1    1    2    0    0  0.17811666708E+04  0.48065790673E+03  0.24265343849E+04  0.30520562751E+04  0.15294330000E+03 0.  0.
    8880022    1    1    2    0    0 -0.17811666708E+04 -0.48065790673E+03  0.70516540046E+03  0.19809686084E+04  0.15294330000E+03 0.  0.
<mgrwt>
<rscale>  0 0.18512100E+04</rscale>
<asrwt>0</asrwt>
<pdfrwt beam="1">  1        2 0.62805573E+00 0.18512100E+04</pdfrwt>
<pdfrwt beam="2">  1       -2 0.14625578E+00 0.18512100E+04</pdfrwt>
<totfact> 0.86393548E-02</totfact>
</mgrwt>
</event>
<event>
 4    1  0.2202466E-008  0.3645933E+03  0.7818608E-02  0.1056780E+00
         -2   -1    0    0    0  501 -0.00000000000E+00  0.00000000000E+00  0.26553445021E+03  0.26553445023E+03  0.25500000000E-02 0.  1.
          2   -1    0    0  501    0  0.00000000000E+00 -0.00000000000E+00 -0.27149799556E+04  0.27149799556E+04  0.25500000000E-02 0. -1.
    8880022    1    1    2    0    0  0.32117008357E+03 -0.79914851583E+02 -0.25705935003E+04  0.25963203198E+04  0.15294330000E+03 0. -1.
    8880022    1    1    2    0    0 -0.32117008357E+03  0.79914851583E+02  0.12114799490E+03  0.38419408606E+03  0.15294330000E+03 0.  0.
<mgrwt>
<rscale>  0 0.36459328E+03</rscale>
<asrwt>0</asrwt>
<pdfrwt beam="1">  1        2 0.41768921E+00 0.36459328E+03</pdfrwt>
<pdfrwt beam="2">  1       -2 0.40851456E-01 0.36459328E+03</pdfrwt>
<totfact> 0.17004093E+01</totfact>
</mgrwt>
</event>
<event>
 4    1  0.2202466E-008  0.1001271E+04  0.7818608E-02  0.9307152E-01
         -2   -1    0    0    0  501 -0.00000000000E+00  0.00000000000E+00  0.44868151823E+03  0.44868151824E+03  0.25500000000E-02 0.  1.
          2   -1    0    0  501    0  0.00000000000E+00 -0.00000000000E+00 -0.27777658871E+04  0.27777658871E+04  0.25500000000E-02 0. -1.
    8880022    1    1    2    0    0 -0.60777203067E+02 -0.98765308491E+03 -0.45105871485E+03  0.10981794488E+04  0.15294330000E+03 0.  0.
    8880022    1    1    2    0    0  0.60777203067E+02  0.98765308491E+03 -0.18780256540E+04  0.21282679565E+04  0.15294330000E+03 0.  0.
<mgrwt>
<rscale>  0 0.10012713E+04</rscale>
<asrwt>0</asrwt>
<pdfrwt beam="1">  1        2 0.42734859E+00 0.10012713E+04</pdfrwt>
<pdfrwt beam="2">  1       -2 0.69027928E-01 0.10012713E+04</pdfrwt>
<totfact> 0.46476083E+00</totfact>
</mgrwt>
</event>
<event>
 4    1  0.2202466E-008  0.5219054E+03  0.7818608E-02  0.1008214E+00
          2   -1    0    0  501    0  0.00000000000E+00  0.00000000000E+00  0.17436797789E+04  0.17436797789E+04  0.25500000000E-02 0. -1.
         -2   -1    0    0    0  501 -0.00000000000E+00 -0.00000000000E+00 -0.26395874060E+03  0.26395874061E+03  0.25500000000E-02 0.  1.
    8880022    1    1    2    0    0  0.21923338938E+03  0.44825249448E+03  0.98521286181E+02  0.53112303158E+03  0.15294330000E+03 0.  0.
    8880022    1    1    2    0    0 -0.21923338938E+03 -0.44825249448E+03  0.13811997521E+04  0.14765154879E+04  0.15294330000E+03 0.  0.
<mgrwt>
<rscale>  0 0.52190538E+03</rscale>
<asrwt>0</asrwt>
<pdfrwt beam="1">  1        2 0.26825843E+00 0.52190538E+03</pdfrwt>
<pdfrwt beam="2">  1       -2 0.40609037E-01 0.52190538E+03</pdfrwt>
<totfact> 0.56244773E+01</totfact>
</mgrwt>
</event>
<event>
 4    1  0.2202466E-008  0.9373766E+03  0.7818608E-02  0.9380028E-01
          2   -1    0    0  501    0  0.00000000000E+00  0.00000000000E+00  0.16805973159E+04  0.16805973159E+04  0.25500000000E-02 0. -1.
         -2   -1    0    0    0  501 -0.00000000000E+00 -0.00000000000E+00 -0.72283622126E+03  0.72283622126E+03  0.25500000000E-02 0.  1.
    8880022    1    1    2    0    0  0.61569906336E+03 -0.69007097582E+03  0.11109991809E+04  0.14536141583E+04  0.15294330000E+03 0.  0.
    8880022    1    1    2    0    0 -0.61569906336E+03  0.69007097582E+03 -0.15323808628E+03  0.94981937882E+03  0.15294330000E+03 0.  0.
<mgrwt>
<rscale>  0 0.93737663E+03</rscale>
<asrwt>0</asrwt>
<pdfrwt beam="1">  1        2 0.25855343E+00 0.93737663E+03</pdfrwt>
<pdfrwt beam="2">  1       -2 0.11120557E+00 0.93737663E+03</pdfrwt>
<totfact> 0.64543252E+00</totfact>
</mgrwt>
</event>
<event>
 4    1  0.2202466E-008  0.1225262E+04  0.7818608E-02  0.9091028E-01
         -2   -1    0    0    0  501 -0.00000000000E+00  0.00000000000E+00  0.55964953735E+03  0.55964953735E+03  0.25500000000E-02 0.  1.
          2   -1    0    0  501    0  0.00000000000E+00 -0.00000000000E+00 -0.37556206303E+04  0.37556206303E+04  0.25500000000E-02 0. -1.
    8880022    1    1    2    0    0  0.68600209703E+03  0.10036314550E+04 -0.27513298394E+04  0.30118237852E+04  0.15294330000E+03 0.  0.
    8880022    1    1    2    0    0 -0.68600209703E+03 -0.10036314550E+04 -0.44464125352E+03  0.13034463825E+04  0.15294330000E+03 0.  0.
<mgrwt>
<rscale>  0 0.12252619E+04</rscale>
<asrwt>0</asrwt>
<pdfrwt beam="1">  1        2 0.57778777E+00 0.12252619E+04</pdfrwt>
<pdfrwt beam="2">  1       -2 0.86099931E-01 0.12252619E+04</pdfrwt>
<totfact> 0.62387210E-01</totfact>
</mgrwt>
</event>
<event>
 4    1  0.2202466E-008  0.9624121E+03  0.7818608E-02  0.9350759E-01
         -2   -1    0    0    0  501 -0.00000000000E+00  0.00000000000E+00  0.86938005642E+03  0.86938005642E+03  0.25500000000E-02 0.  1.
          2   -1    0    0  501    0  0.00000000000E+00 -0.00000000000E+00 -0.22024933716E+04  0.22024933716E+04  0.25500000000E-02 0. -1.
    8880022    1    1    2    0    0 -0.77366640341E+03  0.55162094051E+03  0.43704968786E+03  0.10570002121E+04  0.15294330000E+03 0.  0.
    8880022    1    1    2    0    0  0.77366640341E+03 -0.55162094051E+03 -0.17701630030E+04  0.20148732158E+04  0.15294330000E+03 0.  0.
<mgrwt>
<rscale>  0 0.96241208E+03</rscale>
<asrwt>0</asrwt>
<pdfrwt beam="1">  1        2 0.33884513E+00 0.96241208E+03</pdfrwt>
<pdfrwt beam="2">  1       -2 0.13375078E+00 0.96241208E+03</pdfrwt>
<totfact> 0.20931077E+00</totfact>
</mgrwt>
</event>
<event>
 4    1  0.2202466E-008  0.6485796E+03  0.7818608E-02  0.9809448E-01
         -2   -1    0    0    0  501 -0.00000000000E+00  0.00000000000E+00  0.79539769164E+03  0.79539769165E+03  0.25500000000E-02 0.  1.
          2   -1    0    0  501    0  0.00000000000E+00 -0.00000000000E+00 -0.82808939839E+03  0.82808939839E+03  0.25500000000E-02 0. -1.
    8880022    1    1    2    0    0  0.63027533235E+03 -0.41114807285E+01 -0.50430219492E+03  0.82156938578E+03  0.15294330000E+03 0.  0.
    8880022    1    1    2    0    0 -0.63027533235E+03  0.41114807285E+01  0.47161048817E+03  0.80191770426E+03  0.15294330000E+03 0.  1.
<mgrwt>
<rscale>  0 0.64857964E+03</rscale>
<asrwt>0</asrwt>
<pdfrwt beam="1">  1        2 0.12739837E+00 0.64857964E+03</pdfrwt>
<pdfrwt beam="2">  1       -2 0.12236888E+00 0.64857964E+03</pdfrwt>
<totfact> 0.17070873E+01</totfact>
</mgrwt>
</event>
<event>
 4    1  0.2202466E-008  0.1532537E+04  0.7818608E-02  0.8863100E-01
         -2   -1    0    0    0  501 -0.00000000000E+00  0.00000000000E+00  0.13355214896E+04  0.13355214896E+04  0.25500000000E-02 0.  1.
          2   -1    0    0  501    0  0.00000000000E+00 -0.00000000000E+00 -0.27645684128E+04  0.27645684128E+04  0.25500000000E-02 0. -1.
    8880022    1    1    2    0    0  0.47659811690E+03  0.14484930775E+04 -0.19511495565E+04  0.24810590895E+04  0.15294330000E+03 0.  0.
    8880022    1    1    2    0    0 -0.47659811690E+03 -0.14484930775E+04  0.52210263327E+03  0.16190308130E+04  0.15294330000E+03 0.  0.
<mgrwt>
<rscale>  0 0.15325370E+04</rscale>
<asrwt>0</asrwt>
<pdfrwt beam="1">  1        2 0.42531822E+00 0.15325370E+04</pdfrwt>
<pdfrwt beam="2">  1       -2 0.20546485E+00 0.15325370E+04</pdfrwt>
<totfact> 0.27880917E-01</totfact>
</mgrwt>
</event>
<event>
 4    1  0.2202466E-008  0.6092437E+03  0.7818608E-02  0.9886412E-01
          2   -1    0    0  501    0  0.00000000000E+00  0.00000000000E+00  0.14744406496E+04  0.14744406496E+04  0.25500000000E-02 0. -1.
         -2   -1    0    0    0  501 -0.00000000000E+00 -0.00000000000E+00 -0.53113405246E+03  0.53113405246E+03  0.25500000000E-02 0.  1.
    8880022    1    1    2    0    0  0.58851072476E+03 -0.37965308301E+02  0.11989543109E+04  0.13448677743E+04  0.15294330000E+03 0.  0.
    8880022    1    1    2    0    0 -0.58851072476E+03  0.37965308301E+02 -0.25564771376E+03  0.66070692773E+03  0.15294330000E+03 0.  1.
<mgrwt>
<rscale>  0 0.60924370E+03</rscale>
<asrwt>0</asrwt>
<pdfrwt beam="1">  1        2 0.22683702E+00 0.60924370E+03</pdfrwt>
<pdfrwt beam="2">  1       -2 0.81712932E-01 0.60924370E+03</pdfrwt>
<totfact> 0.18049221E+01</totfact>
</mgrwt>
</event>
<event>
 4    1  0.2202466E-008  0.3703588E+03  0.7818608E-02  0.1054556E+00
          2   -1    0    0  501    0  0.00000000000E+00  0.00000000000E+00  0.26253325093E+03  0.26253325094E+03  0.25500000000E-02 0. -1.
         -2   -1    0    0    0  501 -0.00000000000E+00 -0.00000000000E+00 -0.13973593021E+04  0.13973593021E+04  0.25500000000E-02 0.  1.
    8880022    1    1    2    0    0 -0.24805507096E+03  0.22856653116E+03 -0.12241214682E+04  0.12789210293E+04  0.15294330000E+03 0.  0.
    8880022    1    1    2    0    0  0.24805507096E+03 -0.22856653116E+03  0.89295416982E+02  0.38097152374E+03  0.15294330000E+03 0.  0.
<mgrwt>
<rscale>  0 0.37035879E+03</rscale>
<asrwt>0</asrwt>
<pdfrwt beam="1">  1        2 0.40389732E-01 0.37035879E+03</pdfrwt>
<pdfrwt beam="2">  1       -2 0.21497835E+00 0.37035879E+03</pdfrwt>
<totfact> 0.14508871E+01</totfact>
</mgrwt>
</event>
<event>
 4    1  0.2202466E-008  0.1084556E+04  0.7818608E-02  0.9220376E-01
          2   -1    0    0  501    0  0.00000000000E+00  0.00000000000E+00  0.11358764466E+04  0.11358764466E+04  0.25500000000E-02 0. -1.
         -2   -1    0    0    0  501 -0.00000000000E+00 -0.00000000000E+00 -0.14465427939E+04  0.14465427939E+04  0.25500000000E-02 0.  1.
    8880022    1    1    2    0    0  0.10622568326E+04 -0.15646425231E+03  0.53291597613E+03  0.12084128977E+04  0.15294330000E+03 0.  0.
    8880022    1    1    2    0    0 -0.10622568326E+04  0.15646425231E+03 -0.84358232352E+03  0.13740063428E+04  0.15294330000E+03 0.  0.
<mgrwt>
<rscale>  0 0.10845563E+04</rscale>
<asrwt>0</asrwt>
<pdfrwt beam="1">  1        2 0.17475022E+00 0.10845563E+04</pdfrwt>
<pdfrwt beam="2">  1       -2 0.22254505E+00 0.10845563E+04</pdfrwt>
<totfact> 0.19405799E+00</totfact>
</mgrwt>
</event>
<event>
 4    1  0.2202466E-008  0.1625301E+04  0.7818608E-02  0.8805153E-01
          2   -1    0    0  501    0  0.00000000000E+00  0.00000000000E+00  0.36159600968E+04  0.36159600968E+04  0.25500000000E-02 0. -1.
         -2   -1    0    0    0  501 -0.00000000000E+00 -0.00000000000E+00 -0.89772468743E+03  0.89772468744E+03  0.25500000000E-02 0.  1.
    8880022    1    1    2    0    0  0.85630855219E+03  0.13729344378E+04  0.23330468603E+04  0.28433629055E+04  0.15294330000E+03 0.  0.
    8880022    1    1    2    0    0 -0.85630855219E+03 -0.13729344378E+04  0.38518854899E+03  0.16703218787E+04  0.15294330000E+03 0.  0.
<mgrwt>
<rscale>  0 0.16253015E+04</rscale>
<asrwt>0</asrwt>
<pdfrwt beam="1">  1        2 0.55630156E+00 0.16253015E+04</pdfrwt>
<pdfrwt beam="2">  1       -2 0.13811149E+00 0.16253015E+04</pdfrwt>
<totfact> 0.23566033E-01</totfact>
</mgrwt>
</event>
<event>
 4    1  0.2202466E-008  0.1103531E+04  0.7818608E-02  0.9201757E-01
         -2   -1    0    0    0  501 -0.00000000000E+00  0.00000000000E+00  0.85352094802E+03  0.85352094803E+03  0.25500000000E-02 0.  1.
          2   -1    0    0  501    0  0.00000000000E+00 -0.00000000000E+00 -0.25277877261E+04  0.25277877261E+04  0.25500000000E-02 0. -1.
    8880022    1    1    2    0    0 -0.12620241791E+03 -0.10855702606E+04 -0.19529193427E+04  0.22431396419E+04  0.15294330000E+03 0.  0.
    8880022    1    1    2    0    0  0.12620241791E+03  0.10855702606E+04  0.27865256469E+03  0.11381690322E+04  0.15294330000E+03 0.  0.
<mgrwt>
<rscale>  0 0.11035314E+04</rscale>
<asrwt>0</asrwt>
<pdfrwt beam="1">  1        2 0.38889042E+00 0.11035314E+04</pdfrwt>
<pdfrwt beam="2">  1       -2 0.13131092E+00 0.11035314E+04</pdfrwt>
<totfact> 0.14089617E+00</totfact>
</mgrwt>
</event>
<event>
 4    1  0.2202466E-008  0.1193256E+04  0.7818608E-02  0.9118780E-01
         -2   -1    0    0    0  501 -0.00000000000E+00  0.00000000000E+00  0.11627292230E+04  0.11627292230E+04  0.25500000000E-02 0.  1.
          2   -1    0    0  501    0  0.00000000000E+00 -0.00000000000E+00 -0.23834241078E+04  0.23834241078E+04  0.25500000000E-02 0. -1.
    8880022    1    1    2    0    0 -0.11077965400E+04 -0.41623935209E+03  0.62599432492E+03  0.13474898590E+04  0.15294330000E+03 0.  0.
    8880022    1    1    2    0    0  0.11077965400E+04  0.41623935209E+03 -0.18466892097E+04  0.21986634718E+04  0.15294330000E+03 0.  0.
<mgrwt>
<rscale>  0 0.11932561E+04</rscale>
<asrwt>0</asrwt>
<pdfrwt beam="1">  1        2 0.36668063E+00 0.11932561E+04</pdfrwt>
<pdfrwt beam="2">  1       -2 0.17888142E+00 0.11932561E+04</pdfrwt>
<totfact> 0.73188399E-01</totfact>
</mgrwt>
</event>
<event>
 4    1  0.2202466E-008  0.1403253E+04  0.7818608E-02  0.8951467E-01
         -2   -1    0    0    0  501 -0.00000000000E+00  0.00000000000E+00  0.21462567213E+04  0.21462567213E+04  0.25500000000E-02 0.  1.
          2   -1    0    0  501    0  0.00000000000E+00 -0.00000000000E+00 -0.15251054397E+04  0.15251054397E+04  0.25500000000E-02 0. -1.
    8880022    1    1    2    0    0 -0.13882312984E+04 -0.13616412200E+03  0.14692732902E+04  0.20317190899E+04  0.15294330000E+03 0.  0.
    8880022    1    1    2    0    0  0.13882312984E+04  0.13616412200E+03 -0.84812200860E+03  0.16396430711E+04  0.15294330000E+03 0.  0.
<mgrwt>
<rscale>  0 0.14032528E+04</rscale>
<asrwt>0</asrwt>
<pdfrwt beam="1">  1        2 0.23463161E+00 0.14032528E+04</pdfrwt>
<pdfrwt beam="2">  1       -2 0.33019334E+00 0.14032528E+04</pdfrwt>
<totfact> 0.24222027E-01</totfact>
</mgrwt>
</event>
<event>
 4    1  0.2202466E-008  0.8723428E+03  0.7818608E-02  0.9460830E-01
         -2   -1    0    0    0  501 -0.00000000000E+00  0.00000000000E+00  0.85229885468E+03  0.85229885469E+03  0.25500000000E-02 0.  1.
          2   -1    0    0  501    0  0.00000000000E+00 -0.00000000000E+00 -0.12687908411E+04  0.12687908411E+04  0.25500000000E-02 0. -1.
    8880022    1    1    2    0    0  0.63517558265E+03  0.57805041384E+03 -0.78552941264E+03  0.11738988086E+04  0.15294330000E+03 0.  0.
    8880022    1    1    2    0    0 -0.63517558265E+03 -0.57805041384E+03  0.36903742624E+03  0.94719088716E+03  0.15294330000E+03 0.  0.
<mgrwt>
<rscale>  0 0.87234280E+03</rscale>
<asrwt>0</asrwt>
<pdfrwt beam="1">  1        2 0.19519859E+00 0.87234280E+03</pdfrwt>
<pdfrwt beam="2">  1       -2 0.13112290E+00 0.87234280E+03</pdfrwt>
<totfact> 0.73698783E+00</totfact>
</mgrwt>
</event>
<event>
 4    1  0.2202466E-008  0.4365619E+03  0.7818608E-02  0.1031807E+00
          2   -1    0    0  501    0  0.00000000000E+00  0.00000000000E+00  0.66645584860E+03  0.66645584860E+03  0.25500000000E-02 0. -1.
         -2   -1    0    0    0  501 -0.00000000000E+00 -0.00000000000E+00 -0.86074342427E+03  0.86074342427E+03  0.25500000000E-02 0.  1.
    8880022    1    1    2    0    0 -0.40322423723E+03  0.67859336370E+02  0.52684563033E+03  0.68421681230E+03  0.15294330000E+03 0.  0.
    8880022    1    1    2    0    0  0.40322423723E+03 -0.67859336370E+02 -0.72113320600E+03  0.84298246057E+03  0.15294330000E+03 0.  0.
<mgrwt>
<rscale>  0 0.43656194E+03</rscale>
<asrwt>0</asrwt>
<pdfrwt beam="1">  1        2 0.10253167E+00 0.43656194E+03</pdfrwt>
<pdfrwt beam="2">  1       -2 0.13242207E+00 0.43656194E+03</pdfrwt>
<totfact> 0.19029975E+01</totfact>
</mgrwt>
</event>
<event>
 4    1  0.2202466E-008  0.1174817E+04  0.7818608E-02  0.9135189E-01
         -2   -1    0    0    0  501 -0.00000000000E+00  0.00000000000E+00  0.11029930914E+04  0.11029930914E+04  0.25500000000E-02 0.  1.
          2   -1    0    0  501    0  0.00000000000E+00 -0.00000000000E+00 -0.15912314351E+04  0.15912314351E+04  0.25500000000E-02 0. -1.
    8880022    1    1    2    0    0 -0.99756737663E+03  0.60138442224E+03  0.37849790244E+03  0.12342836827E+04  0.15294330000E+03 0.  0.
    8880022    1    1    2    0    0  0.99756737663E+03 -0.60138442224E+03 -0.86673624611E+03  0.14599408439E+04  0.15294330000E+03 0.  0.
<mgrwt>
<rscale>  0 0.11748172E+04</rscale>
<asrwt>0</asrwt>
<pdfrwt beam="1">  1        2 0.24480484E+00 0.11748172E+04</pdfrwt>
<pdfrwt beam="2">  1       -2 0.16969124E+00 0.11748172E+04</pdfrwt>
<totfact> 0.23517701E+00</totfact>
</mgrwt>
</event>
<event>
 4    1  0.2202466E-008  0.3254499E+03  0.7818608E-02  0.1073168E+00
         -2   -1    0    0    0  501 -0.00000000000E+00  0.00000000000E+00  0.26482934324E+03  0.26482934325E+03  0.25500000000E-02 0.  1.
          2   -1    0    0  501    0  0.00000000000E+00 -0.00000000000E+00 -0.52035610597E+03  0.52035610597E+03  0.25500000000E-02 0. -1.
    8880022    1    1    2    0    0 -0.15570159576E+03  0.24141866678E+03  0.61088880111E+02  0.33113360428E+03  0.15294330000E+03 0.  0.
    8880022    1    1    2    0    0  0.15570159576E+03 -0.24141866678E+03 -0.31661564284E+03  0.45405184495E+03  0.15294330000E+03 0.  0.
<mgrwt>
<rscale>  0 0.32544986E+03</rscale>
<asrwt>0</asrwt>
<pdfrwt beam="1">  1        2 0.80054786E-01 0.32544986E+03</pdfrwt>
<pdfrwt beam="2">  1       -2 0.40742976E-01 0.32544986E+03</pdfrwt>
<totfact> 0.34345024E+02</totfact>
</mgrwt>
</event>
<event>
 4    1  0.2202466E-008  0.1363265E+04  0.7818608E-02  0.8980847E-01
         -2   -1    0    0    0  501 -0.00000000000E+00  0.00000000000E+00  0.10448170010E+04  0.10448170010E+04  0.25500000000E-02 0.  1.
          2   -1    0    0  501    0  0.00000000000E+00 -0.00000000000E+00 -0.24082430396E+04  0.24082430396E+04  0.25500000000E-02 0. -1.
    8880022    1    1    2    0    0  0.14683576068E+03  0.13466769108E+04  0.20098448236E+03  0.13780006742E+04  0.15294330000E+03 0.  0.
    8880022    1    1    2    0    0 -0.14683576068E+03 -0.13466769108E+04 -0.15644105210E+04  0.20750593664E+04  0.15294330000E+03 0.  0.
<mgrwt>
<rscale>  0 0.13632649E+04</rscale>
<asrwt>0</asrwt>
<pdfrwt beam="1">  1        2 0.37049893E+00 0.13632649E+04</pdfrwt>
<pdfrwt beam="2">  1       -2 0.16074108E+00 0.13632649E+04</pdfrwt>
<totfact> 0.93616262E-01</totfact>
</mgrwt>
</event>
<event>
 4    1  0.2202466E-008  0.1910744E+04  0.7818608E-02  0.8649527E-01
          2   -1    0    0  501    0  0.00000000000E+00  0.00000000000E+00  0.28620863905E+04  0.28620863905E+04  0.25500000000E-02 0. -1.
         -2   -1    0    0    0  501 -0.00000000000E+00 -0.00000000000E+00 -0.14427154376E+04  0.14427154376E+04  0.25500000000E-02 0.  1.
    8880022    1    1    2    0    0 -0.12050650085E+04 -0.14749134559E+04 -0.22820741324E+02  0.19108803773E+04  0.15294330000E+03 0.  0.
    8880022    1    1    2    0    0  0.12050650085E+04  0.14749134559E+04  0.14421916942E+04  0.23939214509E+04  0.15294330000E+03 0.  0.
<mgrwt>
<rscale>  0 0.19107441E+04</rscale>
<asrwt>0</asrwt>
<pdfrwt beam="1">  1        2 0.44032098E+00 0.19107441E+04</pdfrwt>
<pdfrwt beam="2">  1       -2 0.22195622E+00 0.19107441E+04</pdfrwt>
<totfact> 0.18301830E-01</totfact>
</mgrwt>
</event>
<event>
 4    1  0.2202466E-008  0.1300039E+04  0.7818608E-02  0.9029534E-01
         -2   -1    0    0    0  501 -0.00000000000E+00  0.00000000000E+00  0.14064785506E+04  0.14064785506E+04  0.25500000000E-02 0.  1.
          2   -1    0    0  501    0  0.00000000000E+00 -0.00000000000E+00 -0.13359242304E+04  0.13359242304E+04  0.25500000000E-02 0. -1.
    8880022    1    1    2    0    0  0.10966697509E+04 -0.68119455531E+03  0.46998583915E+03  0.13823852237E+04  0.15294330000E+03 0.  0.
    8880022    1    1    2    0    0 -0.10966697509E+04  0.68119455531E+03 -0.39943151903E+03  0.13600175573E+04  0.15294330000E+03 0.  0.
<mgrwt>
<rscale>  0 0.13000393E+04</rscale>
<asrwt>0</asrwt>
<pdfrwt beam="1">  1        2 0.20552680E+00 0.13000393E+04</pdfrwt>
<pdfrwt beam="2">  1       -2 0.21638132E+00 0.13000393E+04</pdfrwt>
<totfact> 0.15772066E+00</totfact>
</mgrwt>
</event>
<event>
 4    1  0.2202466E-008  0.3369437E+03  0.7818608E-02  0.1068105E+00
         -2   -1    0    0    0  501 -0.00000000000E+00  0.00000000000E+00  0.31889591019E+03  0.31889591020E+03  0.25500000000E-02 0.  1.
          2   -1    0    0  501    0  0.00000000000E+00 -0.00000000000E+00 -0.36668076447E+04  0.36668076447E+04  0.25500000000E-02 0. -1.
    8880022    1    1    2    0    0  0.25907429843E+03 -0.15172324574E+03 -0.35675942880E+04  0.35834703978E+04  0.15294330000E+03 0.  0.
    8880022    1    1    2    0    0 -0.25907429843E+03  0.15172324574E+03  0.21968255341E+03  0.40223315713E+03  0.15294330000E+03 0.  0.
<mgrwt>
<rscale>  0 0.33694375E+03</rscale>
<asrwt>0</asrwt>
<pdfrwt beam="1">  1        2 0.56412422E+00 0.33694375E+03</pdfrwt>
<pdfrwt beam="2">  1       -2 0.49060912E-01 0.33694375E+03</pdfrwt>
<totfact> 0.30479678E+00</totfact>
</mgrwt>
</event>
<event>
 4    1  0.2202466E-008  0.9070311E+03  0.7818608E-02  0.9416835E-01
         -2   -1    0    0    0  501 -0.00000000000E+00  0.00000000000E+00  0.44390454933E+03  0.44390454934E+03  0.25500000000E-02 0.  1.
          2   -1    0    0  501    0  0.00000000000E+00 -0.00000000000E+00 -0.28299446061E+04  0.28299446061E+04  0.25500000000E-02 0. -1.
    8880022    1    1    2    0    0 -0.27847908394E+03  0.84956645946E+03 -0.21546309882E+04  0.23377639140E+04  0.15294330000E+03 0.  0.
    8880022    1    1    2    0    0  0.27847908394E+03 -0.84956645946E+03 -0.23140906856E+03  0.93608524145E+03  0.15294330000E+03 0.  0.
<mgrwt>
<rscale>  0 0.90703110E+03</rscale>
<asrwt>0</asrwt>
<pdfrwt beam="1">  1        2 0.43537608E+00 0.90703110E+03</pdfrwt>
<pdfrwt beam="2">  1       -2 0.68293009E-01 0.90703110E+03</pdfrwt>
<totfact> 0.44905362E+00</totfact>
</mgrwt>
</event>
<event>
 4    1  0.2202466E-008  0.1010162E+04  0.7818608E-02  0.9297468E-01
          2   -1    0    0  501    0  0.00000000000E+00  0.00000000000E+00  0.16024049618E+04  0.16024049618E+04  0.25500000000E-02 0. -1.
         -2   -1    0    0    0  501 -0.00000000000E+00 -0.00000000000E+00 -0.11624642493E+04  0.11624642493E+04  0.25500000000E-02 0.  1.
    8880022    1    1    2    0    0  0.97636485715E+03  0.20916075719E+03 -0.70964802360E+03  0.12345155030E+04  0.15294330000E+03 0.  0.
    8880022    1    1    2    0    0 -0.97636485715E+03 -0.20916075719E+03  0.11495887361E+04  0.15303537081E+04  0.15294330000E+03 0.  0.
<mgrwt>
<rscale>  0 0.10101625E+04</rscale>
<asrwt>0</asrwt>
<pdfrwt beam="1">  1        2 0.24652384E+00 0.10101625E+04</pdfrwt>
<pdfrwt beam="2">  1       -2 0.17884065E+00 0.10101625E+04</pdfrwt>
<totfact> 0.20374835E+00</totfact>
</mgrwt>
</event>
<event>
 4    1  0.2202466E-008  0.8903132E+03  0.7818608E-02  0.9437772E-01
          2   -1    0    0  501    0  0.00000000000E+00  0.00000000000E+00  0.31659364997E+04  0.31659364997E+04  0.25500000000E-02 0. -1.
         -2   -1    0    0    0  501 -0.00000000000E+00 -0.00000000000E+00 -0.92291801163E+03  0.92291801164E+03  0.25500000000E-02 0.  1.
    8880022    1    1    2    0    0 -0.64796124186E+03 -0.59111102121E+03  0.28667346615E+04  0.30018036716E+04  0.15294330000E+03 0.  0.
    8880022    1    1    2    0    0  0.64796124186E+03  0.59111102121E+03 -0.62371617338E+03  0.10870508398E+04  0.15294330000E+03 0.  1.
<mgrwt>
<rscale>  0 0.89031324E+03</rscale>
<asrwt>0</asrwt>
<pdfrwt beam="1">  1        2 0.48706714E+00 0.89031324E+03</pdfrwt>
<pdfrwt beam="2">  1       -2 0.14198739E+00 0.89031324E+03</pdfrwt>
<totfact> 0.49266386E-01</totfact>
</mgrwt>
</event>
<event>
 4    1  0.2202466E-008  0.5351161E+03  0.7818608E-02  0.1004999E+00
          2   -1    0    0  501    0  0.00000000000E+00  0.00000000000E+00  0.23777330541E+04  0.23777330541E+04  0.25500000000E-02 0. -1.
         -2   -1    0    0    0  501 -0.00000000000E+00 -0.00000000000E+00 -0.44125639625E+03  0.44125639626E+03  0.25500000000E-02 0.  1.
    8880022    1    1    2    0    0  0.33714119199E+03  0.38638503574E+03  0.21700967882E+04  0.22350993943E+04  0.15294330000E+03 0.  0.
    8880022    1    1    2    0    0 -0.33714119199E+03 -0.38638503574E+03 -0.23362013040E+03  0.58389005603E+03  0.15294330000E+03 0.  0.
<mgrwt>
<rscale>  0 0.53511609E+03</rscale>
<asrwt>0</asrwt>
<pdfrwt beam="1">  1        2 0.36580509E+00 0.53511609E+03</pdfrwt>
<pdfrwt beam="2">  1       -2 0.67885598E-01 0.53511609E+03</pdfrwt>
<totfact> 0.88755182E+00</totfact>
</mgrwt>
</event>
<event>
 4    1  0.2202466E-008  0.6808623E+03  0.7818608E-02  0.9750532E-01
         -2   -1    0    0    0  501 -0.00000000000E+00  0.00000000000E+00  0.22230707109E+03  0.22230707111E+03  0.25500000000E-02 0.  1.
          2   -1    0    0  501    0  0.00000000000E+00 -0.00000000000E+00 -0.36462639685E+04  0.36462639685E+04  0.25500000000E-02 0. -1.
    8880022    1    1    2    0    0  0.32131970031E+03 -0.58046141001E+03 -0.29775746048E+04  0.30544269477E+04  0.15294330000E+03 0.  0.
    8880022    1    1    2    0    0 -0.32131970031E+03  0.58046141001E+03 -0.44638229261E+03  0.81414409196E+03  0.15294330000E+03 0.  0.
<mgrwt>
<rscale>  0 0.68086229E+03</rscale>
<asrwt>0</asrwt>
<pdfrwt beam="1">  1        2 0.56096364E+00 0.68086229E+03</pdfrwt>
<pdfrwt beam="2">  1       -2 0.34201091E-01 0.68086229E+03</pdfrwt>
<totfact> 0.56561794E+00</totfact>
</mgrwt>
</event>
<event>
 4    1  0.2202466E-008  0.5457797E+03  0.7818608E-02  0.1002476E+00
          2   -1    0    0  501    0  0.00000000000E+00  0.00000000000E+00  0.11980627151E+04  0.11980627151E+04  0.25500000000E-02 0. -1.
         -2   -1    0    0    0  501 -0.00000000000E+00 -0.00000000000E+00 -0.42971139188E+03  0.42971139189E+03  0.25500000000E-02 0.  1.
    8880022    1    1    2    0    0 -0.41904573133E+03 -0.31445898213E+03 -0.14416194084E+03  0.56449809086E+03  0.15294330000E+03 0.  0.
    8880022    1    1    2    0    0  0.41904573133E+03  0.31445898213E+03  0.91251326405E+03  0.10632760161E+04  0.15294330000E+03 0.  0.
<mgrwt>
<rscale>  0 0.54577965E+03</rscale>
<asrwt>0</asrwt>
<pdfrwt beam="1">  1        2 0.18431734E+00 0.54577965E+03</pdfrwt>
<pdfrwt beam="2">  1       -2 0.66109446E-01 0.54577965E+03</pdfrwt>
<totfact> 0.41666403E+01</totfact>
</mgrwt>
</event>
<event>
 4    1  0.2202466E-008  0.6767514E+03  0.7818608E-02  0.9757838E-01
          2   -1    0    0  501    0  0.00000000000E+00  0.00000000000E+00  0.13985974074E+04  0.13985974074E+04  0.25500000000E-02 0. -1.
         -2   -1    0    0    0  501 -0.00000000000E+00 -0.00000000000E+00 -0.42909928161E+03  0.42909928161E+03  0.25500000000E-02 0.  1.
    8880022    1    1    2    0    0 -0.19638745616E+03  0.62931135673E+03  0.40000891803E+02  0.67793254901E+03  0.15294330000E+03 0.  1.
    8880022    1    1    2    0    0  0.19638745616E+03 -0.62931135673E+03  0.92949723400E+03  0.11497641400E+04  0.15294330000E+03 0.  0.
<mgrwt>
<rscale>  0 0.67675141E+03</rscale>
<asrwt>0</asrwt>
<pdfrwt beam="1">  1        2 0.21516883E+00 0.67675141E+03</pdfrwt>
<pdfrwt beam="2">  1       -2 0.66015274E-01 0.67675141E+03</pdfrwt>
<totfact> 0.31536661E+01</totfact>
</mgrwt>
</event>
<event>
 4    1  0.2202466E-008  0.3895168E+03  0.7818608E-02  0.1047471E+00
         -2   -1    0    0    0  501 -0.00000000000E+00  0.00000000000E+00  0.19246726497E+03  0.19246726498E+03  0.25500000000E-02 0.  1.
          2   -1    0    0  501    0  0.00000000000E+00 -0.00000000000E+00 -0.11960578884E+04  0.11960578884E+04  0.25500000000E-02 0. -1.
    8880022    1    1    2    0    0 -0.35560541773E+03 -0.43318462674E+02 -0.90715909013E+03  0.98724919354E+03  0.15294330000E+03 0.  1.
    8880022    1    1    2    0    0  0.35560541773E+03  0.43318462674E+02 -0.96431533323E+02  0.40127595986E+03  0.15294330000E+03 0.  1.
<mgrwt>
<rscale>  0 0.38951682E+03</rscale>
<asrwt>0</asrwt>
<pdfrwt beam="1">  1        2 0.18400890E+00 0.38951682E+03</pdfrwt>
<pdfrwt beam="2">  1       -2 0.29610349E-01 0.38951682E+03</pdfrwt>
<totfact> 0.20881251E+02</totfact>
</mgrwt>
</event>
<event>
 4    1  0.2330727E-008  0.1024392E+04  0.7818608E-02  0.9282189E-01
         -2   -1    0    0    0  501 -0.00000000000E+00  0.00000000000E+00  0.22460741712E+04  0.22460741712E+04  0.25500000000E-02 0.  1.
          2   -1    0    0  501    0  0.00000000000E+00 -0.00000000000E+00 -0.13407397122E+04  0.13407397122E+04  0.25500000000E-02 0. -1.
    8880022    1    1    2    0    0 -0.23339554310E+03  0.98565428263E+03  0.19002600696E+04  0.21587885097E+04  0.15294330000E+03 0.  0.
    8880022    1    1    2    0    0  0.23339554310E+03 -0.98565428263E+03 -0.99492561056E+03  0.14280253737E+04  0.15294330000E+03 0.  0.
<mgrwt>
<rscale>  0 0.10243923E+04</rscale>
<asrwt>0</asrwt>
<pdfrwt beam="1">  1        2 0.20626765E+00 0.10243923E+04</pdfrwt>
<pdfrwt beam="2">  1       -2 0.34554987E+00 0.10243923E+04</pdfrwt>
<totfact> 0.26161545E-01</totfact>
</mgrwt>
</event>
<event>
 4    1  0.2202466E-008  0.6778441E+03  0.7818608E-02  0.9755890E-01
          2   -1    0    0  501    0  0.00000000000E+00  0.00000000000E+00  0.16251105321E+04  0.16251105321E+04  0.25500000000E-02 0. -1.
         -2   -1    0    0    0  501 -0.00000000000E+00 -0.00000000000E+00 -0.47679874217E+03  0.47679874218E+03  0.25500000000E-02 0.  1.
    8880022    1    1    2    0    0 -0.56884511582E+03 -0.33540446259E+03 -0.96331664059E+02  0.68465492171E+03  0.15294330000E+03 0.  0.
    8880022    1    1    2    0    0  0.56884511582E+03  0.33540446259E+03  0.12446434540E+04  0.14172543526E+04  0.15294330000E+03 0.  0.
<mgrwt>
<rscale>  0 0.67784406E+03</rscale>
<asrwt>0</asrwt>
<pdfrwt beam="1">  1        2 0.25001701E+00 0.67784406E+03</pdfrwt>
<pdfrwt beam="2">  1       -2 0.73353651E-01 0.67784406E+03</pdfrwt>
<totfact> 0.18768889E+01</totfact>
</mgrwt>
</event>
<event>
 4    1  0.2202466E-008  0.8068964E+03  0.7818608E-02  0.9550088E-01
          2   -1    0    0  501    0  0.00000000000E+00  0.00000000000E+00  0.39379588056E+04  0.39379588056E+04  0.25500000000E-02 0. -1.
         -2   -1    0    0    0  501 -0.00000000000E+00 -0.00000000000E+00 -0.23137891031E+03  0.23137891033E+03  0.25500000000E-02 0.  1.
    8880022    1    1    2    0    0 -0.65866389619E+03 -0.44028623701E+03  0.29670512898E+04  0.30748130200E+04  0.15294330000E+03 0.  0.
    8880022    1    1    2    0    0  0.65866389619E+03  0.44028623701E+03  0.73952860549E+03  0.10945246959E+04  0.15294330000E+03 0.  0.
<mgrwt>
<rscale>  0 0.80689637E+03</rscale>
<asrwt>0</asrwt>
<pdfrwt beam="1">  1        2 0.60583980E+00 0.80689637E+03</pdfrwt>
<pdfrwt beam="2">  1       -2 0.35596756E-01 0.80689637E+03</pdfrwt>
<totfact> 0.31033152E+00</totfact>
</mgrwt>
</event>
<event>
 4    1  0.2202466E-008  0.1069816E+04  0.7818608E-02  0.9235121E-01
         -2   -1    0    0    0  501 -0.00000000000E+00  0.00000000000E+00  0.18323047030E+04  0.18323047030E+04  0.25500000000E-02 0.  1.
          2   -1    0    0  501    0  0.00000000000E+00 -0.00000000000E+00 -0.77974299786E+03  0.77974299786E+03  0.25500000000E-02 0. -1.
    8880022    1    1    2    0    0  0.11773707336E+03  0.10522603156E+04  0.11087928082E+04  0.15407553131E+04  0.15294330000E+03 0.  0.
    8880022    1    1    2    0    0 -0.11773707336E+03 -0.10522603156E+04 -0.56231103036E+02  0.10712923878E+04  0.15294330000E+03 0.  0.
<mgrwt>
<rscale>  0 0.10698156E+04</rscale>
<asrwt>0</asrwt>
<pdfrwt beam="1">  1        2 0.11996046E+00 0.10698156E+04</pdfrwt>
<pdfrwt beam="2">  1       -2 0.28189303E+00 0.10698156E+04</pdfrwt>
<totfact> 0.14518655E+00</totfact>
</mgrwt>
</event>
<event>
 4    1  0.2202466E-008  0.6135597E+03  0.7818608E-02  0.9877667E-01
          2   -1    0    0  501    0  0.00000000000E+00  0.00000000000E+00  0.18900347767E+04  0.18900347767E+04  0.25500000000E-02 0. -1.
         -2   -1    0    0    0  501 -0.00000000000E+00 -0.00000000000E+00 -0.71909785780E+03  0.71909785780E+03  0.25500000000E-02 0.  1.
    8880022    1    1    2    0    0 -0.26856336620E+03 -0.53003543289E+03  0.16947451615E+04  0.18023919266E+04  0.15294330000E+03 0.  0.
    8880022    1    1    2    0    0  0.26856336620E+03  0.53003543289E+03 -0.52380824256E+03  0.80674070789E+03  0.15294330000E+03 0.  0.
<mgrwt>
<rscale>  0 0.61355969E+03</rscale>
<asrwt>0</asrwt>
<pdfrwt beam="1">  1        2 0.29077458E+00 0.61355969E+03</pdfrwt>
<pdfrwt beam="2">  1       -2 0.11063044E+00 0.61355969E+03</pdfrwt>
<totfact> 0.52775749E+00</totfact>
</mgrwt>
</event>
<event>
 4    1  0.2202466E-008  0.1548462E+04  0.7818608E-02  0.8852851E-01
         -2   -1    0    0    0  501 -0.00000000000E+00  0.00000000000E+00  0.71353679043E+03  0.71353679044E+03  0.25500000000E-02 0.  1.
          2   -1    0    0  501    0  0.00000000000E+00 -0.00000000000E+00 -0.39821909811E+04  0.39821909811E+04  0.25500000000E-02 0. -1.
    8880022    1    1    2    0    0 -0.12975903075E+04  0.83102445669E+03 -0.25621204826E+04  0.29936925818E+04  0.15294330000E+03 0.  0.
    8880022    1    1    2    0    0  0.12975903075E+04 -0.83102445669E+03 -0.70653370807E+03  0.17020351898E+04  0.15294330000E+03 0.  0.
<mgrwt>
<rscale>  0 0.15484618E+04</rscale>
<asrwt>0</asrwt>
<pdfrwt beam="1">  1        2 0.61264475E+00 0.15484618E+04</pdfrwt>
<pdfrwt beam="2">  1       -2 0.10977489E+00 0.15484618E+04</pdfrwt>
<totfact> 0.22454928E-01</totfact>
</mgrwt>
</event>
<event>
 4    1  0.2202466E-008  0.7797754E+03  0.7818608E-02  0.9589762E-01
         -2   -1    0    0    0  501 -0.00000000000E+00  0.00000000000E+00  0.44274581860E+03  0.44274581861E+03  0.25500000000E-02 0.  1.
          2   -1    0    0  501    0  0.00000000000E+00 -0.00000000000E+00 -0.23810230324E+04  0.23810230324E+04  0.25500000000E-02 0. -1.
    8880022    1    1    2    0    0 -0.19380752422E+03  0.73965978525E+03 -0.50647596251E+02  0.78141844512E+03  0.15294330000E+03 0.  0.
    8880022    1    1    2    0    0  0.19380752422E+03 -0.73965978525E+03 -0.18876296176E+04  0.20423504059E+04  0.15294330000E+03 0.  0.
<mgrwt>
<rscale>  0 0.77977536E+03</rscale>
<asrwt>0</asrwt>
<pdfrwt beam="1">  1        2 0.36631123E+00 0.77977536E+03</pdfrwt>
<pdfrwt beam="2">  1       -2 0.68114743E-01 0.77977536E+03</pdfrwt>
<totfact> 0.83684732E+00</totfact>
</mgrwt>
</event>
<event>
 4    1  0.2202466E-008  0.1393541E+04  0.7818608E-02  0.8958507E-01
          2   -1    0    0  501    0  0.00000000000E+00  0.00000000000E+00  0.14545756858E+04  0.14545756858E+04  0.25500000000E-02 0. -1.
         -2   -1    0    0    0  501 -0.00000000000E+00 -0.00000000000E+00 -0.20073806236E+04  0.20073806236E+04  0.25500000000E-02 0.  1.
    8880022    1    1    2    0    0 -0.13435476551E+04  0.33681525559E+03 -0.12781599024E+04  0.18909387106E+04  0.15294330000E+03 0.  0.
    8880022    1    1    2    0    0  0.13435476551E+04 -0.33681525559E+03  0.72535496460E+03  0.15710175988E+04  0.15294330000E+03 0.  0.
<mgrwt>
<rscale>  0 0.13935410E+04</rscale>
<asrwt>0</asrwt>
<pdfrwt beam="1">  1        2 0.22378088E+00 0.13935410E+04</pdfrwt>
<pdfrwt beam="2">  1       -2 0.30882779E+00 0.13935410E+04</pdfrwt>
<totfact> 0.36012103E-01</totfact>
</mgrwt>
</event>
<event>
 4    1  0.2202466E-008  0.8192646E+03  0.7818608E-02  0.9532543E-01
          2   -1    0    0  501    0  0.00000000000E+00  0.00000000000E+00  0.15525021207E+04  0.15525021207E+04  0.25500000000E-02 0. -1.
         -2   -1    0    0    0  501 -0.00000000000E+00 -0.00000000000E+00 -0.10296470633E+04  0.10296470633E+04  0.25500000000E-02 0.  1.
    8880022    1    1    2    0    0 -0.38616895308E+03 -0.70617026205E+03 -0.72192512829E+03  0.10919571618E+04  0.15294330000E+03 0.  0.
    8880022    1    1    2    0    0  0.38616895308E+03  0.70617026205E+03  0.12447801857E+04  0.14901920222E+04  0.15294330000E+03 0.  0.
<mgrwt>
<rscale>  0 0.81926464E+03</rscale>
<asrwt>0</asrwt>
<pdfrwt beam="1">  1        2 0.23884648E+00 0.81926464E+03</pdfrwt>
<pdfrwt beam="2">  1       -2 0.15840724E+00 0.81926464E+03</pdfrwt>
<totfact> 0.31223149E+00</totfact>
</mgrwt>
</event>
<event>
 4    1  0.2202466E-008  0.4046717E+03  0.7818608E-02  0.1042174E+00
          2   -1    0    0  501    0  0.00000000000E+00  0.00000000000E+00  0.11235826744E+04  0.11235826744E+04  0.25500000000E-02 0. -1.
         -2   -1    0    0    0  501 -0.00000000000E+00 -0.00000000000E+00 -0.22906116001E+03  0.22906116002E+03  0.25500000000E-02 0.  1.
    8880022    1    1    2    0    0  0.35381600357E+03 -0.12321430426E+03  0.85514437870E+03  0.94606082817E+03  0.15294330000E+03 0.  0.
    8880022    1    1    2    0    0 -0.35381600357E+03  0.12321430426E+03  0.39377135707E+02  0.40658300627E+03  0.15294330000E+03 0.  0.
<mgrwt>
<rscale>  0 0.40467170E+03</rscale>
<asrwt>0</asrwt>
<pdfrwt beam="1">  1        2 0.17285887E+00 0.40467170E+03</pdfrwt>
<pdfrwt beam="2">  1       -2 0.35240179E-01 0.40467170E+03</pdfrwt>
<totfact> 0.16629610E+02</totfact>
</mgrwt>
</event>
<event>
 4    1  0.2202466E-008  0.7389826E+03  0.7818608E-02  0.9652795E-01
         -2   -1    0    0    0  501 -0.00000000000E+00  0.00000000000E+00  0.45718262201E+03  0.45718262201E+03  0.25500000000E-02 0.  1.
          2   -1    0    0  501    0  0.00000000000E+00 -0.00000000000E+00 -0.18591490971E+04  0.18591490971E+04  0.25500000000E-02 0. -1.
    8880022    1    1    2    0    0 -0.30888117108E+03 -0.65367887540E+03 -0.13934780619E+04  0.15773003557E+04  0.15294330000E+03 0. -1.
    8880022    1    1    2    0    0  0.30888117108E+03  0.65367887540E+03 -0.84884131948E+01  0.73903136345E+03  0.15294330000E+03 0.  0.
<mgrwt>
<rscale>  0 0.73898261E+03</rscale>
<asrwt>0</asrwt>
<pdfrwt beam="1">  1        2 0.28602293E+00 0.73898261E+03</pdfrwt>
<pdfrwt beam="2">  1       -2 0.70335789E-01 0.73898261E+03</pdfrwt>
<totfact> 0.15205040E+01</totfact>
</mgrwt>
</event>
<event>
 4    1  0.2202466E-008  0.3438445E+03  0.7818608E-02  0.1065170E+00
         -2   -1    0    0    0  501 -0.00000000000E+00  0.00000000000E+00  0.64524903042E+02  0.64524903092E+02  0.25500000000E-02 0.  1.
          2   -1    0    0  501    0  0.00000000000E+00 -0.00000000000E+00 -0.20143781034E+04  0.20143781034E+04  0.25500000000E-02 0. -1.
    8880022    1    1    2    0    0  0.28813092845E+03  0.10871043883E+03 -0.12874347897E+04  0.13325604610E+04  0.15294330000E+03 0.  1.
    8880022    1    1    2    0    0 -0.28813092845E+03 -0.10871043883E+03 -0.66241841065E+03  0.74634254549E+03  0.15294330000E+03 0.  0.
<mgrwt>
<rscale>  0 0.34384451E+03</rscale>
<asrwt>0</asrwt>
<pdfrwt beam="1">  1        2 0.30990428E+00 0.34384451E+03</pdfrwt>
<pdfrwt beam="2">  1       -2 0.99269097E-02 0.34384451E+03</pdfrwt>
<totfact> 0.48544361E+02</totfact>
</mgrwt>
</event>
<event>
 4    1  0.2202466E-008  0.1526751E+04  0.7818608E-02  0.8866856E-01
          2   -1    0    0  501    0  0.00000000000E+00  0.00000000000E+00  0.18623383204E+04  0.18623383204E+04  0.25500000000E-02 0. -1.
         -2   -1    0    0    0  501 -0.00000000000E+00 -0.00000000000E+00 -0.30112442719E+04  0.30112442719E+04  0.25500000000E-02 0.  1.
    8880022    1    1    2    0    0 -0.14595314275E+04 -0.42112455589E+03  0.12882917783E+04  0.19976649464E+04  0.15294330000E+03 0.  0.
    8880022    1    1    2    0    0  0.14595314275E+04  0.42112455589E+03 -0.24371977297E+04  0.28759176459E+04  0.15294330000E+03 0.  0.
<mgrwt>
<rscale>  0 0.15267513E+04</rscale>
<asrwt>0</asrwt>
<pdfrwt beam="1">  1        2 0.28651359E+00 0.15267513E+04</pdfrwt>
<pdfrwt beam="2">  1       -2 0.46326835E+00 0.15267513E+04</pdfrwt>
<totfact> 0.21104666E-02</totfact>
</mgrwt>
</event>
<event>
 4    1  0.2202466E-008  0.8803545E+03  0.7818608E-02  0.9450478E-01
         -2   -1    0    0    0  501 -0.00000000000E+00  0.00000000000E+00  0.93461563329E+03  0.93461563329E+03  0.25500000000E-02 0.  1.
          2   -1    0    0  501    0  0.00000000000E+00 -0.00000000000E+00 -0.16766077270E+04  0.16766077270E+04  0.25500000000E-02 0. -1.
    8880022    1    1    2    0    0 -0.80472735609E+03 -0.32256214474E+03  0.55718631523E+03  0.10418640496E+04  0.15294330000E+03 0.  0.
    8880022    1    1    2    0    0  0.80472735609E+03  0.32256214474E+03 -0.12991784089E+04  0.15693593107E+04  0.15294330000E+03 0.  0.
<mgrwt>
<rscale>  0 0.88035454E+03</rscale>
<asrwt>0</asrwt>
<pdfrwt beam="1">  1        2 0.25793965E+00 0.88035454E+03</pdfrwt>
<pdfrwt beam="2">  1       -2 0.14378702E+00 0.88035454E+03</pdfrwt>
<totfact> 0.34183236E+00</totfact>
</mgrwt>
</event>
<event>
 4    1  0.2202466E-008  0.4779752E+03  0.7818608E-02  0.1019693E+00
         -2   -1    0    0    0  501 -0.00000000000E+00  0.00000000000E+00  0.36354808085E+03  0.36354808086E+03  0.25500000000E-02 0.  1.
          2   -1    0    0  501    0  0.00000000000E+00 -0.00000000000E+00 -0.19248746660E+04  0.19248746660E+04  0.25500000000E-02 0. -1.
    8880022    1    1    2    0    0  0.27833673699E+03  0.35720767028E+03  0.15837642942E+03  0.50353093776E+03  0.15294330000E+03 0.  0.
    8880022    1    1    2    0    0 -0.27833673699E+03 -0.35720767028E+03 -0.17197030145E+04  0.17848918091E+04  0.15294330000E+03 0.  0.
<mgrwt>
<rscale>  0 0.47797522E+03</rscale>
<asrwt>0</asrwt>
<pdfrwt beam="1">  1        2 0.29613456E+00 0.47797522E+03</pdfrwt>
<pdfrwt beam="2">  1       -2 0.55930475E-01 0.47797522E+03</pdfrwt>
<totfact> 0.23850446E+01</totfact>
</mgrwt>
</event>
<event>
 4    1  0.3166283E-008  0.7975785E+03  0.7818608E-02  0.9563529E-01
         -2   -1    0    0    0  501 -0.00000000000E+00  0.00000000000E+00  0.17004090013E+04  0.17004090013E+04  0.25500000000E-02 0.  1.
          2   -1    0    0  501    0  0.00000000000E+00 -0.00000000000E+00 -0.17769199924E+04  0.17769199924E+04  0.25500000000E-02 0. -1.
    8880022    1    1    2    0    0  0.64260912346E+03  0.44698254498E+03 -0.15830903033E+04  0.17726551956E+04  0.15294330000E+03 0.  0.
    8880022    1    1    2    0    0 -0.64260912346E+03 -0.44698254498E+03  0.15065793122E+04  0.17046737981E+04  0.15294330000E+03 0.  0.
<mgrwt>
<rscale>  0 0.79757854E+03</rscale>
<asrwt>0</asrwt>
<pdfrwt beam="1">  1        2 0.27337231E+00 0.79757854E+03</pdfrwt>
<pdfrwt beam="2">  1       -2 0.26160138E+00 0.79757854E+03</pdfrwt>
<totfact> 0.50435709E-01</totfact>
</mgrwt>
</event>
<event>
 4    1  0.2202466E-008  0.1952865E+04  0.7818608E-02  0.8628980E-01
          2   -1    0    0  501    0  0.00000000000E+00  0.00000000000E+00  0.34949618921E+04  0.34949618921E+04  0.25500000000E-02 0. -1.
         -2   -1    0    0    0  501 -0.00000000000E+00 -0.00000000000E+00 -0.14929849921E+04  0.14929849921E+04  0.25500000000E-02 0.  1.
    8880022    1    1    2    0    0  0.19318929122E+04  0.24100108473E+03  0.22947787755E+04  0.30132528982E+04  0.15294330000E+03 0.  0.
    8880022    1    1    2    0    0 -0.19318929122E+04 -0.24100108473E+03 -0.29280187558E+03  0.19746939860E+04  0.15294330000E+03 0.  0.
<mgrwt>
<rscale>  0 0.19528654E+04</rscale>
<asrwt>0</asrwt>
<pdfrwt beam="1">  1        2 0.53768644E+00 0.19528654E+04</pdfrwt>
<pdfrwt beam="2">  1       -2 0.22969000E+00 0.19528654E+04</pdfrwt>
<totfact> 0.62983418E-02</totfact>
</mgrwt>
</event>
<event>
 4    1  0.2202466E-008  0.7169762E+03  0.7818608E-02  0.9688633E-01
          2   -1    0    0  501    0  0.00000000000E+00  0.00000000000E+00  0.12447763670E+04  0.12447763670E+04  0.25500000000E-02 0. -1.
         -2   -1    0    0    0  501 -0.00000000000E+00 -0.00000000000E+00 -0.96237262083E+03  0.96237262084E+03  0.25500000000E-02 0.  1.
    8880022    1    1    2    0    0 -0.45847340633E+03  0.52958985757E+03 -0.69262426168E+03  0.99688680523E+03  0.15294330000E+03 0.  0.
    8880022    1    1    2    0    0  0.45847340633E+03 -0.52958985757E+03  0.97502800785E+03  0.12102621826E+04  0.15294330000E+03 0.  0.
<mgrwt>
<rscale>  0 0.71697624E+03</rscale>
<asrwt>0</asrwt>
<pdfrwt beam="1">  1        2 0.19150406E+00 0.71697624E+03</pdfrwt>
<pdfrwt beam="2">  1       -2 0.14805733E+00 0.71697624E+03</pdfrwt>
<totfact> 0.56725243E+00</totfact>
</mgrwt>
</event>
<event>
 4    1  0.2202466E-008  0.1738203E+04  0.7818608E-02  0.8739871E-01
         -2   -1    0    0    0  501 -0.00000000000E+00  0.00000000000E+00  0.10375305521E+04  0.10375305521E+04  0.25500000000E-02 0.  1.
          2   -1    0    0  501    0  0.00000000000E+00 -0.00000000000E+00 -0.38329676016E+04  0.38329676016E+04  0.25500000000E-02 0. -1.
    8880022    1    1    2    0    0 -0.86695739766E+03 -0.14987802681E+04 -0.25913886637E+04  0.31203596397E+04  0.15294330000E+03 0.  0.
    8880022    1    1    2    0    0  0.86695739766E+03  0.14987802681E+04 -0.20404838580E+03  0.17501385140E+04  0.15294330000E+03 0.  0.
<mgrwt>
<rscale>  0 0.17382028E+04</rscale>
<asrwt>0</asrwt>
<pdfrwt beam="1">  1        2 0.58968732E+00 0.17382028E+04</pdfrwt>
<pdfrwt beam="2">  1       -2 0.15962009E+00 0.17382028E+04</pdfrwt>
<totfact> 0.10907559E-01</totfact>
</mgrwt>
</event>
<event>
 4    1  0.2927103E-008  0.1353549E+04  0.7818608E-02  0.8988146E-01
         -2   -1    0    0    0  501 -0.00000000000E+00  0.00000000000E+00  0.14037144124E+04  0.14037144124E+04  0.25500000000E-02 0.  1.
          2   -1    0    0  501    0  0.00000000000E+00 -0.00000000000E+00 -0.28456266351E+04  0.28456266351E+04  0.25500000000E-02 0. -1.
    8880022    1    1    2    0    0 -0.53405868923E+03 -0.12342955992E+04  0.84228643368E+03  0.15942215653E+04  0.15294330000E+03 0.  0.
    8880022    1    1    2    0    0  0.53405868923E+03  0.12342955992E+04 -0.22841986564E+04  0.26551194822E+04  0.15294330000E+03 0.  0.
<mgrwt>
<rscale>  0 0.13535494E+04</rscale>
<asrwt>0</asrwt>
<pdfrwt beam="1">  1        2 0.43778871E+00 0.13535494E+04</pdfrwt>
<pdfrwt beam="2">  1       -2 0.21595606E+00 0.13535494E+04</pdfrwt>
<totfact> 0.21809897E-01</totfact>
</mgrwt>
</event>
<event>
 4    1  0.2202466E-008  0.8041299E+03  0.7818608E-02  0.9554058E-01
          2   -1    0    0  501    0  0.00000000000E+00  0.00000000000E+00  0.13474409842E+04  0.13474409842E+04  0.25500000000E-02 0. -1.
         -2   -1    0    0    0  501 -0.00000000000E+00 -0.00000000000E+00 -0.18728878389E+04  0.18728878389E+04  0.25500000000E-02 0.  1.
    8880022    1    1    2    0    0  0.66185333927E+02 -0.78667190623E+03 -0.16513625597E+04  0.18367425359E+04  0.15294330000E+03 0.  0.
    8880022    1    1    2    0    0 -0.66185333927E+02  0.78667190623E+03  0.11259157050E+04  0.13835862872E+04  0.15294330000E+03 0.  0.
<mgrwt>
<rscale>  0 0.80412986E+03</rscale>
<asrwt>0</asrwt>
<pdfrwt beam="1">  1        2 0.20729861E+00 0.80412986E+03</pdfrwt>
<pdfrwt beam="2">  1       -2 0.28813659E+00 0.80412986E+03</pdfrwt>
<totfact> 0.60454354E-01</totfact>
</mgrwt>
</event>
<event>
 4    1  0.2202466E-008  0.3759899E+03  0.7818608E-02  0.1052426E+00
         -2   -1    0    0    0  501 -0.00000000000E+00  0.00000000000E+00  0.58842138051E+03  0.58842138052E+03  0.25500000000E-02 0.  1.
          2   -1    0    0  501    0  0.00000000000E+00 -0.00000000000E+00 -0.10009161562E+04  0.10009161562E+04  0.25500000000E-02 0. -1.
    8880022    1    1    2    0    0  0.17724329081E+03 -0.29421344227E+03  0.48651495035E+03  0.61487005431E+03  0.15294330000E+03 0.  0.
    8880022    1    1    2    0    0 -0.17724329081E+03  0.29421344227E+03 -0.89900972604E+03  0.97446748241E+03  0.15294330000E+03 0. -1.
<mgrwt>
<rscale>  0 0.37598988E+03</rscale>
<asrwt>0</asrwt>
<pdfrwt beam="1">  1        2 0.15398710E+00 0.37598988E+03</pdfrwt>
<pdfrwt beam="2">  1       -2 0.90526366E-01 0.37598988E+03</pdfrwt>
<totfact> 0.28060628E+01</totfact>
</mgrwt>
</event>
<event>
 4    1  0.2202466E-008  0.2319451E+03  0.7818608E-02  0.1125278E+00
         -2   -1    0    0    0  501 -0.00000000000E+00  0.00000000000E+00  0.42076207315E+03  0.42076207315E+03  0.25500000000E-02 0.  1.
          2   -1    0    0  501    0  0.00000000000E+00 -0.00000000000E+00 -0.34701303663E+03  0.34701303664E+03  0.25500000000E-02 0. -1.
    8880022    1    1    2    0    0  0.14517599569E+03 -0.96596147107E+02 -0.26819942831E+03  0.35458351868E+03  0.15294330000E+03 0. -1.
    8880022    1    1    2    0    0 -0.14517599569E+03  0.96596147107E+02  0.34194846482E+03  0.41319159111E+03  0.15294330000E+03 0.  0.
<mgrwt>
<rscale>  0 0.23194512E+03</rscale>
<asrwt>0</asrwt>
<pdfrwt beam="1">  1        2 0.53386621E-01 0.23194512E+03</pdfrwt>
<pdfrwt beam="2">  1       -2 0.64732626E-01 0.23194512E+03</pdfrwt>
<totfact> 0.21251464E+02</totfact>
</mgrwt>
</event>
<event>
 4    1  0.2202466E-008  0.9276691E+03  0.7818608E-02  0.9391640E-01
          2   -1    0    0  501    0  0.00000000000E+00  0.00000000000E+00  0.29670217138E+04  0.29670217138E+04  0.25500000000E-02 0. -1.
         -2   -1    0    0    0  501 -0.00000000000E+00 -0.00000000000E+00 -0.56130067627E+03  0.56130067628E+03  0.25500000000E-02 0.  1.
    8880022    1    1    2    0    0 -0.87444379023E+03  0.26930714725E+03 -0.23533056916E+02  0.92796753156E+03  0.15294330000E+03 0.  0.
    8880022    1    1    2    0    0  0.87444379023E+03 -0.26930714725E+03  0.24292540944E+04  0.26003548585E+04  0.15294330000E+03 0.  0.
<mgrwt>
<rscale>  0 0.92766909E+03</rscale>
<asrwt>0</asrwt>
<pdfrwt beam="1">  1        2 0.45646488E+00 0.92766909E+03</pdfrwt>
<pdfrwt beam="2">  1       -2 0.86353949E-01 0.92766909E+03</pdfrwt>
<totfact> 0.21892835E+00</totfact>
</mgrwt>
</event>
<event>
 4    1  0.2202466E-008  0.6988405E+03  0.7818608E-02  0.9719217E-01
         -2   -1    0    0    0  501 -0.00000000000E+00  0.00000000000E+00  0.13431941280E+04  0.13431941280E+04  0.25500000000E-02 0.  1.
          2   -1    0    0  501    0  0.00000000000E+00 -0.00000000000E+00 -0.13568038208E+04  0.13568038208E+04  0.25500000000E-02 0. -1.
    8880022    1    1    2    0    0 -0.68147561681E+03 -0.24028761152E+02 -0.11618402447E+04  0.13558210814E+04  0.15294330000E+03 0. -1.
    8880022    1    1    2    0    0  0.68147561681E+03  0.24028761152E+02  0.11482305518E+04  0.13441768674E+04  0.15294330000E+03 0.  0.
<mgrwt>
<rscale>  0 0.69884050E+03</rscale>
<asrwt>0</asrwt>
<pdfrwt beam="1">  1        2 0.20873905E+00 0.69884050E+03</pdfrwt>
<pdfrwt beam="2">  1       -2 0.20664525E+00 0.69884050E+03</pdfrwt>
<totfact> 0.19186416E+00</totfact>
</mgrwt>
</event>
<event>
 4    1  0.2202466E-008  0.3064671E+03  0.7818608E-02  0.1082052E+00
          2   -1    0    0  501    0  0.00000000000E+00  0.00000000000E+00  0.11505063147E+04  0.11505063147E+04  0.25500000000E-02 0. -1.
         -2   -1    0    0    0  501 -0.00000000000E+00 -0.00000000000E+00 -0.14676560801E+03  0.14676560803E+03  0.25500000000E-02 0.  1.
    8880022    1    1    2    0    0 -0.24966112268E+03  0.90552618357E+02  0.93396603394E+03  0.98296218566E+03  0.15294330000E+03 0.  0.
    8880022    1    1    2    0    0  0.24966112268E+03 -0.90552618357E+02  0.69774672792E+02  0.31430973712E+03  0.15294330000E+03 0.  1.
<mgrwt>
<rscale>  0 0.30646714E+03</rscale>
<asrwt>0</asrwt>
<pdfrwt beam="1">  1        2 0.17700098E+00 0.30646714E+03</pdfrwt>
<pdfrwt beam="2">  1       -2 0.22579324E-01 0.30646714E+03</pdfrwt>
<totfact> 0.36405445E+02</totfact>
</mgrwt>
</event>
<event>
 4    1  0.2202466E-008  0.6102623E+03  0.7818608E-02  0.9884341E-01
          2   -1    0    0  501    0  0.00000000000E+00  0.00000000000E+00  0.88385432758E+03  0.88385432759E+03  0.25500000000E-02 0. -1.
         -2   -1    0    0    0  501 -0.00000000000E+00 -0.00000000000E+00 -0.11150992016E+04  0.11150992016E+04  0.25500000000E-02 0.  1.
    8880022    1    1    2    0    0  0.47720922204E+03  0.34828113291E+03 -0.90396387894E+03  0.10906744411E+04  0.15294330000E+03 0.  0.
    8880022    1    1    2    0    0 -0.47720922204E+03 -0.34828113291E+03  0.67271900493E+03  0.90827908803E+03  0.15294330000E+03 0. -1.
<mgrwt>
<rscale>  0 0.61026227E+03</rscale>
<asrwt>0</asrwt>
<pdfrwt beam="1">  1        2 0.13597759E+00 0.61026227E+03</pdfrwt>
<pdfrwt beam="2">  1       -2 0.17155372E+00 0.61026227E+03</pdfrwt>
<totfact> 0.64945877E+00</totfact>
</mgrwt>
</event>
<event>
 4    1  0.2202466E-008  0.8506678E+03  0.7818608E-02  0.9489441E-01
         -2   -1    0    0    0  501 -0.00000000000E+00  0.00000000000E+00  0.70893267041E+03  0.70893267042E+03  0.25500000000E-02 0.  1.
          2   -1    0    0  501    0  0.00000000000E+00 -0.00000000000E+00 -0.14857463313E+04  0.14857463313E+04  0.25500000000E-02 0. -1.
    8880022    1    1    2    0    0  0.76133686468E+03  0.34728976586E+03 -0.10023077666E+04  0.13146317032E+04  0.15294330000E+03 0.  0.
    8880022    1    1    2    0    0 -0.76133686468E+03 -0.34728976586E+03  0.22549410569E+03  0.88004729856E+03  0.15294330000E+03 0.  0.
<mgrwt>
<rscale>  0 0.85066777E+03</rscale>
<asrwt>0</asrwt>
<pdfrwt beam="1">  1        2 0.22857636E+00 0.85066777E+03</pdfrwt>
<pdfrwt beam="2">  1       -2 0.10906656E+00 0.85066777E+03</pdfrwt>
<totfact> 0.87717161E+00</totfact>
</mgrwt>
</event>
<event>
 4    1  0.2202466E-008  0.8822968E+03  0.7818608E-02  0.9447986E-01
          2   -1    0    0  501    0  0.00000000000E+00  0.00000000000E+00  0.28075372190E+04  0.28075372190E+04  0.25500000000E-02 0. -1.
         -2   -1    0    0    0  501 -0.00000000000E+00 -0.00000000000E+00 -0.62101896755E+03  0.62101896755E+03  0.25500000000E-02 0.  1.
    8880022    1    1    2    0    0  0.80320647343E+03  0.33153483091E+03  0.23686671383E+04  0.25276533877E+04  0.15294330000E+03 0.  0.
    8880022    1    1    2    0    0 -0.80320647343E+03 -0.33153483091E+03 -0.18214888685E+03  0.90090279890E+03  0.15294330000E+03 0.  0.
<mgrwt>
<rscale>  0 0.88229680E+03</rscale>
<asrwt>0</asrwt>
<pdfrwt beam="1">  1        2 0.43192880E+00 0.88229680E+03</pdfrwt>
<pdfrwt beam="2">  1       -2 0.95541379E-01 0.88229680E+03</pdfrwt>
<totfact> 0.21774162E+00</totfact>
</mgrwt>
</event>
<event>
 4    1  0.2202466E-008  0.2765073E+03  0.7818608E-02  0.1097612E+00
          2   -1    0    0  501    0  0.00000000000E+00  0.00000000000E+00  0.14806383796E+04  0.14806383796E+04  0.25500000000E-02 0. -1.
         -2   -1    0    0    0  501 -0.00000000000E+00 -0.00000000000E+00 -0.36715440013E+03  0.36715440014E+03  0.25500000000E-02 0.  1.
    8880022    1    1    2    0    0  0.50627933099E+02  0.22472532223E+03  0.14132083031E+04  0.14400048677E+04  0.15294330000E+03 0.  0.
    8880022    1    1    2    0    0 -0.50627933099E+02 -0.22472532223E+03 -0.29972432359E+03  0.40778791207E+03  0.15294330000E+03 0.  1.
<mgrwt>
<rscale>  0 0.27650734E+03</rscale>
<asrwt>0</asrwt>
<pdfrwt beam="1">  1        2 0.22779052E+00 0.27650734E+03</pdfrwt>
<pdfrwt beam="2">  1       -2 0.56485292E-01 0.27650734E+03</pdfrwt>
<totfact> 0.42484209E+01</totfact>
</mgrwt>
</event>
<event>
 4    1  0.2202466E-008  0.1104937E+04  0.7818608E-02  0.9200393E-01
          2   -1    0    0  501    0  0.00000000000E+00  0.00000000000E+00  0.12504164445E+04  0.12504164445E+04  0.25500000000E-02 0. -1.
         -2   -1    0    0    0  501 -0.00000000000E+00 -0.00000000000E+00 -0.14650645513E+04  0.14650645513E+04  0.25500000000E-02 0.  1.
    8880022    1    1    2    0    0 -0.10551175395E+04  0.29021020993E+03  0.67682912725E+03  0.12957562690E+04  0.15294330000E+03 0.  0.
    8880022    1    1    2    0    0  0.10551175395E+04 -0.29021020993E+03 -0.89147723406E+03  0.14197247268E+04  0.15294330000E+03 0.  0.
<mgrwt>
<rscale>  0 0.11049374E+04</rscale>
<asrwt>0</asrwt>
<pdfrwt beam="1">  1        2 0.19237176E+00 0.11049374E+04</pdfrwt>
<pdfrwt beam="2">  1       -2 0.22539455E+00 0.11049374E+04</pdfrwt>
<totfact> 0.15856760E+00</totfact>
</mgrwt>
</event>
<event>
 4    1  0.2202466E-008  0.6154254E+03  0.7818608E-02  0.9873910E-01
         -2   -1    0    0    0  501 -0.00000000000E+00  0.00000000000E+00  0.24141526010E+03  0.24141526011E+03  0.25500000000E-02 0.  1.
          2   -1    0    0  501    0  0.00000000000E+00 -0.00000000000E+00 -0.27570940595E+04  0.27570940595E+04  0.25500000000E-02 0. -1.
    8880022    1    1    2    0    0 -0.53404725234E+03 -0.26485890788E+03 -0.27360307213E+03  0.67350352850E+03  0.15294330000E+03 0.  0.
    8880022    1    1    2    0    0  0.53404725234E+03  0.26485890788E+03 -0.22420757273E+04  0.23250057911E+04  0.15294330000E+03 0.  0.
<mgrwt>
<rscale>  0 0.61542535E+03</rscale>
<asrwt>0</asrwt>
<pdfrwt beam="1">  1        2 0.42416829E+00 0.61542535E+03</pdfrwt>
<pdfrwt beam="2">  1       -2 0.37140811E-01 0.61542535E+03</pdfrwt>
<totfact> 0.18093339E+01</totfact>
</mgrwt>
</event>
<event>
 4    1  0.2202466E-008  0.9996414E+03  0.7818608E-02  0.9308938E-01
         -2   -1    0    0    0  501 -0.00000000000E+00  0.00000000000E+00  0.78944832680E+03  0.78944832681E+03  0.25500000000E-02 0.  1.
          2   -1    0    0  501    0  0.00000000000E+00 -0.00000000000E+00 -0.33877585518E+04  0.33877585518E+04  0.25500000000E-02 0. -1.
    8880022    1    1    2    0    0  0.79575449986E+03  0.58537678864E+03 -0.29521378555E+04  0.31167933489E+04  0.15294330000E+03 0.  0.
    8880022    1    1    2    0    0 -0.79575449986E+03 -0.58537678864E+03  0.35382763057E+03  0.10604135297E+04  0.15294330000E+03 0.  0.
<mgrwt>
<rscale>  0 0.99964137E+03</rscale>
<asrwt>0</asrwt>
<pdfrwt beam="1">  1        2 0.52119361E+00 0.99964137E+03</pdfrwt>
<pdfrwt beam="2">  1       -2 0.12145359E+00 0.99964137E+03</pdfrwt>
<totfact> 0.51514086E-01</totfact>
</mgrwt>
</event>
<event>
 4    1  0.2202466E-008  0.2752489E+03  0.7818608E-02  0.1098313E+00
         -2   -1    0    0    0  501 -0.00000000000E+00  0.00000000000E+00  0.27251477614E+03  0.27251477615E+03  0.25500000000E-02 0.  1.
          2   -1    0    0  501    0  0.00000000000E+00 -0.00000000000E+00 -0.13474336869E+04  0.13474336869E+04  0.25500000000E-02 0. -1.
    8880022    1    1    2    0    0  0.13065037844E+03 -0.18788499470E+03 -0.12590524654E+04  0.12887882124E+04  0.15294330000E+03 0.  0.
    8880022    1    1    2    0    0 -0.13065037844E+03  0.18788499470E+03  0.18413355471E+03  0.33116025064E+03  0.15294330000E+03 0.  0.
<mgrwt>
<rscale>  0 0.27524888E+03</rscale>
<asrwt>0</asrwt>
<pdfrwt beam="1">  1        2 0.20729749E+00 0.27524888E+03</pdfrwt>
<pdfrwt beam="2">  1       -2 0.41925351E-01 0.27524888E+03</pdfrwt>
<totfact> 0.90953827E+01</totfact>
</mgrwt>
</event>
<event>
 4    1  0.2202466E-008  0.9077937E+03  0.7818608E-02  0.9415891E-01
          2   -1    0    0  501    0  0.00000000000E+00  0.00000000000E+00  0.20609070224E+04  0.20609070224E+04  0.25500000000E-02 0. -1.
         -2   -1    0    0    0  501 -0.00000000000E+00 -0.00000000000E+00 -0.56158925909E+03  0.56158925910E+03  0.25500000000E-02 0.  1.
    8880022    1    1    2    0    0 -0.65120882255E+03 -0.61369769245E+03  0.14533140973E+04  0.17135376584E+04  0.15294330000E+03 0.  0.
    8880022    1    1    2    0    0  0.65120882255E+03  0.61369769245E+03  0.46003666054E+02  0.90895862315E+03  0.15294330000E+03 0.  0.
<mgrwt>
<rscale>  0 0.90779372E+03</rscale>
<asrwt>0</asrwt>
<pdfrwt beam="1">  1        2 0.31706262E+00 0.90779372E+03</pdfrwt>
<pdfrwt beam="2">  1       -2 0.86398347E-01 0.90779372E+03</pdfrwt>
<totfact> 0.72727771E+00</totfact>
</mgrwt>
</event>
<event>
 4    1  0.2202466E-008  0.1359374E+04  0.7818608E-02  0.8983763E-01
         -2   -1    0    0    0  501 -0.00000000000E+00  0.00000000000E+00  0.11393201932E+04  0.11393201932E+04  0.25500000000E-02 0.  1.
          2   -1    0    0  501    0  0.00000000000E+00 -0.00000000000E+00 -0.31004049699E+04  0.31004049699E+04  0.25500000000E-02 0. -1.
    8880022    1    1    2    0    0  0.12484829254E+04  0.51555375401E+03 -0.24444227010E+04  0.27969803865E+04  0.15294330000E+03 0.  0.
    8880022    1    1    2    0    0 -0.12484829254E+04 -0.51555375401E+03  0.48333792427E+03  0.14427447766E+04  0.15294330000E+03 0.  0.
<mgrwt>
<rscale>  0 0.13593737E+04</rscale>
<asrwt>0</asrwt>
<pdfrwt beam="1">  1        2 0.47698538E+00 0.13593737E+04</pdfrwt>
<pdfrwt beam="2">  1       -2 0.17528003E+00 0.13593737E+04</pdfrwt>
<totfact> 0.28321862E-01</totfact>
</mgrwt>
</event>
<event>
 4    1  0.2202466E-008  0.9871204E+03  0.7818608E-02  0.9322785E-01
         -2   -1    0    0    0  501 -0.00000000000E+00  0.00000000000E+00  0.87946976232E+03  0.87946976232E+03  0.25500000000E-02 0.  1.
          2   -1    0    0  501    0  0.00000000000E+00 -0.00000000000E+00 -0.27193646199E+04  0.27193646199E+04  0.25500000000E-02 0. -1.
    8880022    1    1    2    0    0  0.97502413013E+03  0.18517572840E+02  0.46521941381E+03  0.10912541917E+04  0.15294330000E+03 0.  0.
    8880022    1    1    2    0    0 -0.97502413013E+03 -0.18517572840E+02 -0.23051142714E+04  0.25075801905E+04  0.15294330000E+03 0.  0.
<mgrwt>
<rscale>  0 0.98712036E+03</rscale>
<asrwt>0</asrwt>
<pdfrwt beam="1">  1        2 0.41836378E+00 0.98712036E+03</pdfrwt>
<pdfrwt beam="2">  1       -2 0.13530304E+00 0.98712036E+03</pdfrwt>
<totfact> 0.10273087E+00</totfact>
</mgrwt>
</event>
<event>
 4    1  0.2202466E-008  0.5838842E+03  0.7818608E-02  0.9939417E-01
         -2   -1    0    0    0  501 -0.00000000000E+00  0.00000000000E+00  0.40092918540E+03  0.40092918541E+03  0.25500000000E-02 0.  1.
          2   -1    0    0  501    0  0.00000000000E+00 -0.00000000000E+00 -0.98726024957E+03  0.98726024957E+03  0.25500000000E-02 0. -1.
    8880022    1    1    2    0    0  0.56259606059E+03 -0.31855909001E+02 -0.34667111857E+02  0.58491246182E+03  0.15294330000E+03 0.  0.
    8880022    1    1    2    0    0 -0.56259606059E+03  0.31855909001E+02 -0.55166395230E+03  0.80327697316E+03  0.15294330000E+03 0.  0.
<mgrwt>
<rscale>  0 0.58388422E+03</rscale>
<asrwt>0</asrwt>
<pdfrwt beam="1">  1        2 0.15188619E+00 0.58388422E+03</pdfrwt>
<pdfrwt beam="2">  1       -2 0.61681413E-01 0.58388422E+03</pdfrwt>
<totfact> 0.64608782E+01</totfact>
</mgrwt>
</event>
<event>
 4    1  0.2202466E-008  0.1017087E+04  0.7818608E-02  0.9290000E-01
          2   -1    0    0  501    0  0.00000000000E+00  0.00000000000E+00  0.38894082515E+04  0.38894082515E+04  0.25500000000E-02 0. -1.
         -2   -1    0    0    0  501 -0.00000000000E+00 -0.00000000000E+00 -0.48842963447E+03  0.48842963448E+03  0.25500000000E-02 0.  1.
    8880022    1    1    2    0    0  0.51321414176E+03 -0.86468866611E+03  0.22323917085E+03  0.10412985283E+04  0.15294330000E+03 0.  0.
    8880022    1    1    2    0    0 -0.51321414176E+03  0.86468866611E+03  0.31777394462E+04  0.33365393577E+04  0.15294330000E+03 0.  0.
<mgrwt>
<rscale>  0 0.10170875E+04</rscale>
<asrwt>0</asrwt>
<pdfrwt beam="1">  1        2 0.59837052E+00 0.10170875E+04</pdfrwt>
<pdfrwt beam="2">  1       -2 0.75143019E-01 0.10170875E+04</pdfrwt>
<totfact> 0.69667105E-01</totfact>
</mgrwt>
</event>
<event>
 4    1  0.2202466E-008  0.9989182E+03  0.7818608E-02  0.9309732E-01
          2   -1    0    0  501    0  0.00000000000E+00  0.00000000000E+00  0.43543870140E+04  0.43543870140E+04  0.25500000000E-02 0. -1.
         -2   -1    0    0    0  501 -0.00000000000E+00 -0.00000000000E+00 -0.32784375872E+03  0.32784375873E+03  0.25500000000E-02 0.  1.
    8880022    1    1    2    0    0  0.88774698905E+03  0.43168413337E+03  0.32977274085E+04  0.34456992935E+04  0.15294330000E+03 0.  0.
    8880022    1    1    2    0    0 -0.88774698905E+03 -0.43168413337E+03  0.72881584679E+03  0.12365314792E+04  0.15294330000E+03 0.  0.
<mgrwt>
<rscale>  0 0.99891820E+03</rscale>
<asrwt>0</asrwt>
<pdfrwt beam="1">  1        2 0.66990566E+00 0.99891820E+03</pdfrwt>
<pdfrwt beam="2">  1       -2 0.50437504E-01 0.99891820E+03</pdfrwt>
<totfact> 0.67300791E-01</totfact>
</mgrwt>
</event>
<event>
 4    1  0.2202466E-008  0.8187922E+03  0.7818608E-02  0.9533208E-01
          2   -1    0    0  501    0  0.00000000000E+00  0.00000000000E+00  0.28681871280E+04  0.28681871280E+04  0.25500000000E-02 0. -1.
         -2   -1    0    0    0  501 -0.00000000000E+00 -0.00000000000E+00 -0.81594988334E+03  0.81594988334E+03  0.25500000000E-02 0.  1.
    8880022    1    1    2    0    0 -0.70088815749E+02 -0.80132172786E+03 -0.52989161602E+03  0.97529776550E+03  0.15294330000E+03 0.  0.
    8880022    1    1    2    0    0  0.70088815749E+02  0.80132172786E+03  0.25821288607E+04  0.27088392458E+04  0.15294330000E+03 0.  0.
<mgrwt>
<rscale>  0 0.81879216E+03</rscale>
<asrwt>0</asrwt>
<pdfrwt beam="1">  1        2 0.44125955E+00 0.81879216E+03</pdfrwt>
<pdfrwt beam="2">  1       -2 0.12553075E+00 0.81879216E+03</pdfrwt>
<totfact> 0.10451380E+00</totfact>
</mgrwt>
</event>
<event>
 4    1  0.2648942E-008  0.1417925E+04  0.7818608E-02  0.8940945E-01
         -2   -1    0    0    0  501 -0.00000000000E+00  0.00000000000E+00  0.23102932134E+04  0.23102932134E+04  0.25500000000E-02 0.  1.
          2   -1    0    0  501    0  0.00000000000E+00 -0.00000000000E+00 -0.16102032779E+04  0.16102032779E+04  0.25500000000E-02 0. -1.
    8880022    1    1    2    0    0 -0.34852661502E+03 -0.13658877209E+04  0.16788936521E+04  0.21975430862E+04  0.15294330000E+03 0.  0.
    8880022    1    1    2    0    0  0.34852661502E+03  0.13658877209E+04 -0.97880371667E+03  0.17229534051E+04  0.15294330000E+03 0. -1.
<mgrwt>
<rscale>  0 0.14179251E+04</rscale>
<asrwt>0</asrwt>
<pdfrwt beam="1">  1        2 0.24772358E+00 0.14179251E+04</pdfrwt>
<pdfrwt beam="2">  1       -2 0.35542973E+00 0.14179251E+04</pdfrwt>
<totfact> 0.15049364E-01</totfact>
</mgrwt>
</event>
<event>
 4    1  0.2202466E-008  0.1157792E+04  0.7818608E-02  0.9150625E-01
          2   -1    0    0  501    0  0.00000000000E+00  0.00000000000E+00  0.10175661868E+04  0.10175661868E+04  0.25500000000E-02 0. -1.
         -2   -1    0    0    0  501 -0.00000000000E+00 -0.00000000000E+00 -0.36785499615E+04  0.36785499615E+04  0.25500000000E-02 0.  1.
    8880022    1    1    2    0    0 -0.97007915988E+03  0.61321771635E+03 -0.32117039621E+04  0.34140186785E+04  0.15294330000E+03 0.  0.
    8880022    1    1    2    0    0  0.97007915988E+03 -0.61321771635E+03  0.55072018749E+03  0.12820974698E+04  0.15294330000E+03 0.  0.
<mgrwt>
<rscale>  0 0.11577915E+04</rscale>
<asrwt>0</asrwt>
<pdfrwt beam="1">  1        2 0.15654865E+00 0.11577915E+04</pdfrwt>
<pdfrwt beam="2">  1       -2 0.56593075E+00 0.11577915E+04</pdfrwt>
<totfact> 0.16836435E-02</totfact>
</mgrwt>
</event>
<event>
 4    1  0.2202466E-008  0.1626251E+04  0.7818608E-02  0.8804581E-01
          2   -1    0    0  501    0  0.00000000000E+00  0.00000000000E+00  0.14661090058E+04  0.14661090058E+04  0.25500000000E-02 0. -1.
         -2   -1    0    0    0  501 -0.00000000000E+00 -0.00000000000E+00 -0.24340699869E+04  0.24340699869E+04  0.25500000000E-02 0.  1.
    8880022    1    1    2    0    0 -0.14437136483E+04  0.73279800997E+03 -0.14762317423E+04  0.21963501159E+04  0.15294330000E+03 0.  0.
    8880022    1    1    2    0    0  0.14437136483E+04 -0.73279800997E+03  0.50827076112E+03  0.17038288768E+04  0.15294330000E+03 0.  0.
<mgrwt>
<rscale>  0 0.16262514E+04</rscale>
<asrwt>0</asrwt>
<pdfrwt beam="1">  1        2 0.22555523E+00 0.16262514E+04</pdfrwt>
<pdfrwt beam="2">  1       -2 0.37447230E+00 0.16262514E+04</pdfrwt>
<totfact> 0.13401537E-01</totfact>
</mgrwt>
</event>
<event>
 4    1  0.2202466E-008  0.8255210E+03  0.7818608E-02  0.9523794E-01
         -2   -1    0    0    0  501 -0.00000000000E+00  0.00000000000E+00  0.58696254661E+03  0.58696254662E+03  0.25500000000E-02 0.  1.
          2   -1    0    0  501    0  0.00000000000E+00 -0.00000000000E+00 -0.24058150474E+04  0.24058150474E+04  0.25500000000E-02 0. -1.
    8880022    1    1    2    0    0 -0.57688753655E+03 -0.57034556714E+03  0.16693827218E+03  0.84223116513E+03  0.15294330000E+03 0.  0.
    8880022    1    1    2    0    0  0.57688753655E+03  0.57034556714E+03 -0.19857907730E+04  0.21505464289E+04  0.15294330000E+03 0.  0.
<mgrwt>
<rscale>  0 0.82552102E+03</rscale>
<asrwt>0</asrwt>
<pdfrwt beam="1">  1        2 0.37012539E+00 0.82552102E+03</pdfrwt>
<pdfrwt beam="2">  1       -2 0.90301932E-01 0.82552102E+03</pdfrwt>
<totfact> 0.42767479E+00</totfact>
</mgrwt>
</event>
<event>
 4    1  0.2202466E-008  0.4430546E+03  0.7818608E-02  0.1029814E+00
         -2   -1    0    0    0  501 -0.00000000000E+00  0.00000000000E+00  0.65111870544E+03  0.65111870544E+03  0.25500000000E-02 0.  1.
          2   -1    0    0  501    0  0.00000000000E+00 -0.00000000000E+00 -0.14124094677E+04  0.14124094677E+04  0.25500000000E-02 0. -1.
    8880022    1    1    2    0    0 -0.48211172994E+02  0.41301505000E+03 -0.12956934321E+04  0.13693497989E+04  0.15294330000E+03 0.  0.
    8880022    1    1    2    0    0  0.48211172994E+02 -0.41301505000E+03  0.53440266984E+03  0.69417837425E+03  0.15294330000E+03 0.  1.
<mgrwt>
<rscale>  0 0.44305463E+03</rscale>
<asrwt>0</asrwt>
<pdfrwt beam="1">  1        2 0.21729376E+00 0.44305463E+03</pdfrwt>
<pdfrwt beam="2">  1       -2 0.10017211E+00 0.44305463E+03</pdfrwt>
<totfact> 0.12613034E+01</totfact>
</mgrwt>
</event>
<event>
 4    1  0.2202466E-008  0.7239552E+03  0.7818608E-02  0.9677120E-01
         -2   -1    0    0    0  501 -0.00000000000E+00  0.00000000000E+00  0.51728854571E+03  0.51728854571E+03  0.25500000000E-02 0.  1.
          2   -1    0    0  501    0  0.00000000000E+00 -0.00000000000E+00 -0.23155543533E+04  0.23155543533E+04  0.25500000000E-02 0. -1.
    8880022    1    1    2    0    0 -0.55920410138E+03  0.43360143599E+03  0.16312853238E+03  0.74210646365E+03  0.15294330000E+03 0.  0.
    8880022    1    1    2    0    0  0.55920410138E+03 -0.43360143599E+03 -0.19613943400E+04  0.20907364354E+04  0.15294330000E+03 0.  0.
<mgrwt>
<rscale>  0 0.72395517E+03</rscale>
<asrwt>0</asrwt>
<pdfrwt beam="1">  1        2 0.35623913E+00 0.72395517E+03</pdfrwt>
<pdfrwt beam="2">  1       -2 0.79582854E-01 0.72395517E+03</pdfrwt>
<totfact> 0.65164877E+00</totfact>
</mgrwt>
</event>
<event>
 4    1  0.2202466E-008  0.9027457E+03  0.7818608E-02  0.9422156E-01
         -2   -1    0    0    0  501 -0.00000000000E+00  0.00000000000E+00  0.13069737950E+04  0.13069737950E+04  0.25500000000E-02 0.  1.
          2   -1    0    0  501    0  0.00000000000E+00 -0.00000000000E+00 -0.95804943693E+03  0.95804943693E+03  0.25500000000E-02 0. -1.
    8880022    1    1    2    0    0  0.37324404749E+03 -0.80761812010E+03  0.84365798481E+03  0.12356004999E+04  0.15294330000E+03 0.  0.
    8880022    1    1    2    0    0 -0.37324404749E+03  0.80761812010E+03 -0.49473362673E+03  0.10294227321E+04  0.15294330000E+03 0. -1.
<mgrwt>
<rscale>  0 0.90274570E+03</rscale>
<asrwt>0</asrwt>
<pdfrwt beam="1">  1        2 0.14739222E+00 0.90274570E+03</pdfrwt>
<pdfrwt beam="2">  1       -2 0.20107289E+00 0.90274570E+03</pdfrwt>
<totfact> 0.35216290E+00</totfact>
</mgrwt>
</event>
<event>
 4    1  0.2202466E-008  0.5617129E+03  0.7818608E-02  0.9988186E-01
          2   -1    0    0  501    0  0.00000000000E+00  0.00000000000E+00  0.14682417479E+04  0.14682417479E+04  0.25500000000E-02 0. -1.
         -2   -1    0    0    0  501 -0.00000000000E+00 -0.00000000000E+00 -0.93956314340E+03  0.93956314341E+03  0.25500000000E-02 0.  1.
    8880022    1    1    2    0    0  0.53887586019E+03  0.41743655861E+02 -0.79295810547E+03  0.97175302189E+03  0.15294330000E+03 0.  0.
    8880022    1    1    2    0    0 -0.53887586019E+03 -0.41743655861E+02  0.13216367100E+04  0.14360518694E+04  0.15294330000E+03 0.  0.
<mgrwt>
<rscale>  0 0.56171290E+03</rscale>
<asrwt>0</asrwt>
<pdfrwt beam="1">  1        2 0.22588335E+00 0.56171290E+03</pdfrwt>
<pdfrwt beam="2">  1       -2 0.14454817E+00 0.56171290E+03</pdfrwt>
<totfact> 0.46346240E+00</totfact>
</mgrwt>
</event>
<event>
 4    1  0.2202466E-008  0.9930909E+03  0.7818608E-02  0.9316155E-01
         -2   -1    0    0    0  501 -0.00000000000E+00  0.00000000000E+00  0.27629967609E+04  0.27629967609E+04  0.25500000000E-02 0.  1.
          2   -1    0    0  501    0  0.00000000000E+00 -0.00000000000E+00 -0.61775523000E+03  0.61775523000E+03  0.25500000000E-02 0. -1.
    8880022    1    1    2    0    0 -0.22317693617E+03 -0.95552601831E+03 -0.25727114999E+02  0.99342410580E+03  0.15294330000E+03 0.  0.
    8880022    1    1    2    0    0  0.22317693617E+03  0.95552601831E+03  0.21709686459E+04  0.23873278851E+04  0.15294330000E+03 0.  0.
<mgrwt>
<rscale>  0 0.99309092E+03</rscale>
<asrwt>0</asrwt>
<pdfrwt beam="1">  1        2 0.95039267E-01 0.99309092E+03</pdfrwt>
<pdfrwt beam="2">  1       -2 0.42507642E+00 0.99309092E+03</pdfrwt>
<totfact> 0.24810276E-01</totfact>
</mgrwt>
</event>
<event>
 4    1  0.2202466E-008  0.1037212E+04  0.7818608E-02  0.9268647E-01
          2   -1    0    0  501    0  0.00000000000E+00  0.00000000000E+00  0.27019111755E+04  0.27019111755E+04  0.25500000000E-02 0. -1.
         -2   -1    0    0    0  501 -0.00000000000E+00 -0.00000000000E+00 -0.67164933877E+03  0.67164933878E+03  0.25500000000E-02 0.  1.
    8880022    1    1    2    0    0 -0.67471464847E+03 -0.77277308762E+03 -0.61216508109E+02  0.10390174280E+04  0.15294330000E+03 0.  0.
    8880022    1    1    2    0    0  0.67471464847E+03  0.77277308762E+03  0.20914783448E+04  0.23345430863E+04  0.15294330000E+03 0.  0.
<mgrwt>
<rscale>  0 0.10372125E+04</rscale>
<asrwt>0</asrwt>
<pdfrwt beam="1">  1        2 0.41567866E+00 0.10372125E+04</pdfrwt>
<pdfrwt beam="2">  1       -2 0.10333066E+00 0.10372125E+04</pdfrwt>
<totfact> 0.20371566E+00</totfact>
</mgrwt>
</event>
<event>
 4    1  0.2202466E-008  0.4976291E+03  0.7818608E-02  0.1014400E+00
          2   -1    0    0  501    0  0.00000000000E+00  0.00000000000E+00  0.13274708113E+04  0.13274708113E+04  0.25500000000E-02 0. -1.
         -2   -1    0    0    0  501 -0.00000000000E+00 -0.00000000000E+00 -0.35763919420E+03  0.35763919421E+03  0.25500000000E-02 0.  1.
    8880022    1    1    2    0    0  0.46468030620E+03  0.91188292330E+02 -0.97846851142E+02  0.50715752082E+03  0.15294330000E+03 0.  0.
    8880022    1    1    2    0    0 -0.46468030620E+03 -0.91188292330E+02  0.10676784683E+04  0.11779524847E+04  0.15294330000E+03 0.  0.
<mgrwt>
<rscale>  0 0.49762912E+03</rscale>
<asrwt>0</asrwt>
<pdfrwt beam="1">  1        2 0.20422628E+00 0.49762912E+03</pdfrwt>
<pdfrwt beam="2">  1       -2 0.55021414E-01 0.49762912E+03</pdfrwt>
<totfact> 0.52008023E+01</totfact>
</mgrwt>
</event>
<event>
 4    1  0.2202466E-008  0.1893779E+04  0.7818608E-02  0.8657959E-01
          2   -1    0    0  501    0  0.00000000000E+00  0.00000000000E+00  0.26097446589E+04  0.26097446589E+04  0.25500000000E-02 0. -1.
         -2   -1    0    0    0  501 -0.00000000000E+00 -0.00000000000E+00 -0.19459843017E+04  0.19459843017E+04  0.25500000000E-02 0.  1.
    8880022    1    1    2    0    0  0.82663589137E+03  0.16969618197E+04 -0.90282050971E+03  0.20979711247E+04  0.15294330000E+03 0.  0.
    8880022    1    1    2    0    0 -0.82663589137E+03 -0.16969618197E+04  0.15665808669E+04  0.24577578359E+04  0.15294330000E+03 0.  0.
<mgrwt>
<rscale>  0 0.18937788E+04</rscale>
<asrwt>0</asrwt>
<pdfrwt beam="1">  1        2 0.40149918E+00 0.18937788E+04</pdfrwt>
<pdfrwt beam="2">  1       -2 0.29938220E+00 0.18937788E+04</pdfrwt>
<totfact> 0.86241194E-02</totfact>
</mgrwt>
</event>
<event>
 4    1  0.2202466E-008  0.6173054E+03  0.7818608E-02  0.9870139E-01
          2   -1    0    0  501    0  0.00000000000E+00  0.00000000000E+00  0.33182439355E+04  0.33182439355E+04  0.25500000000E-02 0. -1.
         -2   -1    0    0    0  501 -0.00000000000E+00 -0.00000000000E+00 -0.36864169725E+03  0.36864169726E+03  0.25500000000E-02 0.  1.
    8880022    1    1    2    0    0  0.58672911645E+03 -0.11585861469E+03  0.30043910422E+04  0.30671536417E+04  0.15294330000E+03 0.  0.
    8880022    1    1    2    0    0 -0.58672911645E+03  0.11585861469E+03 -0.54788803895E+02  0.61973199105E+03  0.15294330000E+03 0.  0.
<mgrwt>
<rscale>  0 0.61730538E+03</rscale>
<asrwt>0</asrwt>
<pdfrwt beam="1">  1        2 0.51049908E+00 0.61730538E+03</pdfrwt>
<pdfrwt beam="2">  1       -2 0.56714106E-01 0.61730538E+03</pdfrwt>
<totfact> 0.35127336E+00</totfact>
</mgrwt>
</event>
<event>
 4    1  0.2202466E-008  0.6330624E+03  0.7818608E-02  0.9839091E-01
          2   -1    0    0  501    0  0.00000000000E+00  0.00000000000E+00  0.14992624394E+04  0.14992624394E+04  0.25500000000E-02 0. -1.
         -2   -1    0    0    0  501 -0.00000000000E+00 -0.00000000000E+00 -0.32732387068E+03  0.32732387069E+03  0.25500000000E-02 0.  1.
    8880022    1    1    2    0    0  0.61921048690E+02  0.61118092611E+03  0.97703236587E+03  0.11641993977E+04  0.15294330000E+03 0.  0.
    8880022    1    1    2    0    0 -0.61921048690E+02 -0.61118092611E+03  0.19490620282E+03  0.66238691233E+03  0.15294330000E+03 0.  1.
<mgrwt>
<rscale>  0 0.63306239E+03</rscale>
<asrwt>0</asrwt>
<pdfrwt beam="1">  1        2 0.23065576E+00 0.63306239E+03</pdfrwt>
<pdfrwt beam="2">  1       -2 0.50357520E-01 0.63306239E+03</pdfrwt>
<totfact> 0.49074364E+01</totfact>
</mgrwt>
</event>
<event>
 4    1  0.2202466E-008  0.4523640E+03  0.7818608E-02  0.1027019E+00
          2   -1    0    0  501    0  0.00000000000E+00  0.00000000000E+00  0.81452313941E+03  0.81452313941E+03  0.25500000000E-02 0. -1.
         -2   -1    0    0    0  501 -0.00000000000E+00 -0.00000000000E+00 -0.34016894327E+03  0.34016894328E+03  0.25500000000E-02 0.  1.
    8880022    1    1    2    0    0  0.42106176227E+03  0.62837055331E+02  0.53238863250E+03  0.69862064971E+03  0.15294330000E+03 0.  0.
    8880022    1    1    2    0    0 -0.42106176227E+03 -0.62837055331E+02 -0.58034436369E+02  0.45607143299E+03  0.15294330000E+03 0.  0.
<mgrwt>
<rscale>  0 0.45236396E+03</rscale>
<asrwt>0</asrwt>
<pdfrwt beam="1">  1        2 0.12531125E+00 0.45236396E+03</pdfrwt>
<pdfrwt beam="2">  1       -2 0.52333684E-01 0.45236396E+03</pdfrwt>
<totfact> 0.12006662E+02</totfact>
</mgrwt>
</event>
<event>
 4    1  0.2202466E-008  0.9519479E+03  0.7818608E-02  0.9362877E-01
          2   -1    0    0  501    0  0.00000000000E+00  0.00000000000E+00  0.84944820063E+03  0.84944820064E+03  0.25500000000E-02 0. -1.
         -2   -1    0    0    0  501 -0.00000000000E+00 -0.00000000000E+00 -0.13737036346E+04  0.13737036346E+04  0.25500000000E-02 0.  1.
    8880022    1    1    2    0    0  0.81469868820E+03 -0.46805896664E+03 -0.78751845029E+03  0.12354716150E+04  0.15294330000E+03 0.  0.
    8880022    1    1    2    0    0 -0.81469868820E+03  0.46805896664E+03  0.26326301630E+03  0.98768022030E+03  0.15294330000E+03 0.  0.
<mgrwt>
<rscale>  0 0.95194790E+03</rscale>
<asrwt>0</asrwt>
<pdfrwt beam="1">  1        2 0.13068434E+00 0.95194790E+03</pdfrwt>
<pdfrwt beam="2">  1       -2 0.21133902E+00 0.95194790E+03</pdfrwt>
<totfact> 0.35610816E+00</totfact>
</mgrwt>
</event>
<event>
 4    1  0.2202466E-008  0.1617885E+03  0.7818608E-02  0.1186692E+00
         -2   -1    0    0    0  501 -0.00000000000E+00  0.00000000000E+00  0.14593747876E+04  0.14593747876E+04  0.25500000000E-02 0.  1.
          2   -1    0    0  501    0  0.00000000000E+00 -0.00000000000E+00 -0.65771925437E+03  0.65771925437E+03  0.25500000000E-02 0. -1.
    8880022    1    1    2    0    0  0.25627792418E+02 -0.46120449867E+02  0.14448416341E+04  0.14538716863E+04  0.15294330000E+03 0.  0.
    8880022    1    1    2    0    0 -0.25627792418E+02  0.46120449867E+02 -0.64318610088E+03  0.66322235564E+03  0.15294330000E+03 0. -1.
<mgrwt>
<rscale>  0 0.16178854E+03</rscale>
<asrwt>0</asrwt>
<pdfrwt beam="1">  1        2 0.10118758E+00 0.16178854E+03</pdfrwt>
<pdfrwt beam="2">  1       -2 0.22451920E+00 0.16178854E+03</pdfrwt>
<totfact> 0.49248452E+00</totfact>
</mgrwt>
</event>
<event>
 4    1  0.2202466E-008  0.6608879E+03  0.7818608E-02  0.9786561E-01
         -2   -1    0    0    0  501 -0.00000000000E+00  0.00000000000E+00  0.20720037121E+04  0.20720037121E+04  0.25500000000E-02 0.  1.
          2   -1    0    0  501    0  0.00000000000E+00 -0.00000000000E+00 -0.33289999723E+03  0.33289999724E+03  0.25500000000E-02 0. -1.
    8880022    1    1    2    0    0 -0.17342875610E+03  0.61911523510E+03  0.14131380683E+03  0.67582723590E+03  0.15294330000E+03 0.  0.
    8880022    1    1    2    0    0  0.17342875610E+03 -0.61911523510E+03  0.15977899081E+04  0.17290764735E+04  0.15294330000E+03 0.  1.
<mgrwt>
<rscale>  0 0.66088793E+03</rscale>
<asrwt>0</asrwt>
<pdfrwt beam="1">  1        2 0.51215385E-01 0.66088793E+03</pdfrwt>
<pdfrwt beam="2">  1       -2 0.31876980E+00 0.66088793E+03</pdfrwt>
<totfact> 0.25238492E+00</totfact>
</mgrwt>
</event>
<event>
 4    1  0.2202466E-008  0.9881946E+03  0.7818608E-02  0.9321588E-01
         -2   -1    0    0    0  501 -0.00000000000E+00  0.00000000000E+00  0.93210649872E+03  0.93210649873E+03  0.25500000000E-02 0.  1.
          2   -1    0    0  501    0  0.00000000000E+00 -0.00000000000E+00 -0.14373231085E+04  0.14373231085E+04  0.25500000000E-02 0. -1.
    8880022    1    1    2    0    0  0.33187538747E+02  0.97572303203E+03 -0.86946256447E+03  0.13162422467E+04  0.15294330000E+03 0.  0.
    8880022    1    1    2    0    0 -0.33187538747E+02 -0.97572303203E+03  0.36424595466E+03  0.10531873606E+04  0.15294330000E+03 0.  0.
<mgrwt>
<rscale>  0 0.98819457E+03</rscale>
<asrwt>0</asrwt>
<pdfrwt beam="1">  1        2 0.22112663E+00 0.98819457E+03</pdfrwt>
<pdfrwt beam="2">  1       -2 0.14340100E+00 0.98819457E+03</pdfrwt>
<totfact> 0.46189913E+00</totfact>
</mgrwt>
</event>
<event>
 4    1  0.2202466E-008  0.1354132E+04  0.7818608E-02  0.8987706E-01
         -2   -1    0    0    0  501 -0.00000000000E+00  0.00000000000E+00  0.64600975636E+03  0.64600975637E+03  0.25500000000E-02 0.  1.
          2   -1    0    0  501    0  0.00000000000E+00 -0.00000000000E+00 -0.35538198380E+04  0.35538198380E+04  0.25500000000E-02 0. -1.
    8880022    1    1    2    0    0 -0.36267377139E+03 -0.12956660995E+04 -0.23960450472E+04  0.27522184556E+04  0.15294330000E+03 0.  0.
    8880022    1    1    2    0    0  0.36267377139E+03  0.12956660995E+04 -0.51176503439E+03  0.14476111388E+04  0.15294330000E+03 0.  0.
<mgrwt>
<rscale>  0 0.13541324E+04</rscale>
<asrwt>0</asrwt>
<pdfrwt beam="1">  1        2 0.54674150E+00 0.13541324E+04</pdfrwt>
<pdfrwt beam="2">  1       -2 0.99386119E-01 0.13541324E+04</pdfrwt>
<totfact> 0.61216940E-01</totfact>
</mgrwt>
</event>
<event>
 4    1  0.2202466E-008  0.5524131E+03  0.7818608E-02  0.1000937E+00
          2   -1    0    0  501    0  0.00000000000E+00  0.00000000000E+00  0.25654268320E+04  0.25654268320E+04  0.25500000000E-02 0. -1.
         -2   -1    0    0    0  501 -0.00000000000E+00 -0.00000000000E+00 -0.74935279545E+03  0.74935279545E+03  0.25500000000E-02 0.  1.
    8880022    1    1    2    0    0 -0.39250686805E+03  0.35736115147E+03  0.24282001425E+04  0.24902442087E+04  0.15294330000E+03 0.  0.
    8880022    1    1    2    0    0  0.39250686805E+03 -0.35736115147E+03 -0.61212610598E+03  0.82453541869E+03  0.15294330000E+03 0.  0.
<mgrwt>
<rscale>  0 0.55241315E+03</rscale>
<asrwt>0</asrwt>
<pdfrwt beam="1">  1        2 0.39468105E+00 0.55241315E+03</pdfrwt>
<pdfrwt beam="2">  1       -2 0.11528505E+00 0.55241315E+03</pdfrwt>
<totfact> 0.20608995E+00</totfact>
</mgrwt>
</event>
<event>
 4    1  0.2202466E-008  0.2036129E+04  0.7818608E-02  0.8589913E-01
         -2   -1    0    0    0  501 -0.00000000000E+00  0.00000000000E+00  0.30362118634E+04  0.30362118634E+04  0.25500000000E-02 0.  1.
          2   -1    0    0  501    0  0.00000000000E+00 -0.00000000000E+00 -0.19561608124E+04  0.19561608124E+04  0.25500000000E-02 0. -1.
    8880022    1    1    2    0    0 -0.20246934917E+04  0.15180947007E+03 -0.83167414744E+03  0.21994325157E+04  0.15294330000E+03 0.  0.
    8880022    1    1    2    0    0  0.20246934917E+04 -0.15180947007E+03  0.19117251984E+04  0.27929401601E+04  0.15294330000E+03 0.  0.
<mgrwt>
<rscale>  0 0.20361290E+04</rscale>
<asrwt>0</asrwt>
<pdfrwt beam="1">  1        2 0.30094782E+00 0.20361290E+04</pdfrwt>
<pdfrwt beam="2">  1       -2 0.46710951E+00 0.20361290E+04</pdfrwt>
<totfact> 0.16619642E-02</totfact>
</mgrwt>
</event>
<event>
 4    1  0.2202466E-008  0.5154209E+03  0.7818608E-02  0.1009830E+00
         -2   -1    0    0    0  501 -0.00000000000E+00  0.00000000000E+00  0.13765784648E+04  0.13765784649E+04  0.25500000000E-02 0.  1.
          2   -1    0    0  501    0  0.00000000000E+00 -0.00000000000E+00 -0.10663896094E+04  0.10663896094E+04  0.25500000000E-02 0. -1.
    8880022    1    1    2    0    0 -0.41081966175E+03  0.27109827977E+03  0.12605406809E+04  0.13618449005E+04  0.15294330000E+03 0.  0.
    8880022    1    1    2    0    0  0.41081966175E+03 -0.27109827977E+03 -0.95035182540E+03  0.10811231738E+04  0.15294330000E+03 0.  0.
<mgrwt>
<rscale>  0 0.51542092E+03</rscale>
<asrwt>0</asrwt>
<pdfrwt beam="1">  1        2 0.16405994E+00 0.51542092E+03</pdfrwt>
<pdfrwt beam="2">  1       -2 0.21178130E+00 0.51542092E+03</pdfrwt>
<totfact> 0.27382787E+00</totfact>
</mgrwt>
</event>
<event>
 4    1  0.2202466E-008  0.2128537E+04  0.7818608E-02  0.8548776E-01
         -2   -1    0    0    0  501 -0.00000000000E+00  0.00000000000E+00  0.17600888580E+04  0.17600888580E+04  0.25500000000E-02 0.  1.
          2   -1    0    0  501    0  0.00000000000E+00 -0.00000000000E+00 -0.35122553105E+04  0.35122553105E+04  0.25500000000E-02 0. -1.
    8880022    1    1    2    0    0  0.11960330140E+04  0.17540765482E+04  0.48634807438E+03  0.21833931414E+04  0.15294330000E+03 0.  0.
    8880022    1    1    2    0    0 -0.11960330140E+04 -0.17540765482E+04 -0.22385145269E+04  0.30889510271E+04  0.15294330000E+03 0.  0.
<mgrwt>
<rscale>  0 0.21285373E+04</rscale>
<asrwt>0</asrwt>
<pdfrwt beam="1">  1        2 0.54034697E+00 0.21285373E+04</pdfrwt>
<pdfrwt beam="2">  1       -2 0.27078290E+00 0.21285373E+04</pdfrwt>
<totfact> 0.33408009E-02</totfact>
</mgrwt>
</event>
<event>
 4    1  0.2202466E-008  0.8646913E+03  0.7818608E-02  0.9470828E-01
         -2   -1    0    0    0  501 -0.00000000000E+00  0.00000000000E+00  0.26339515855E+03  0.26339515856E+03  0.25500000000E-02 0.  1.
          2   -1    0    0  501    0  0.00000000000E+00 -0.00000000000E+00 -0.36448323224E+04  0.36448323224E+04  0.25500000000E-02 0. -1.
    8880022    1    1    2    0    0  0.83957243801E+03 -0.13934686901E+03 -0.77170234924E+03  0.11589717846E+04  0.15294330000E+03 0.  0.
    8880022    1    1    2    0    0 -0.83957243801E+03  0.13934686901E+03 -0.26097348146E+04  0.27492556964E+04  0.15294330000E+03 0.  0.
<mgrwt>
<rscale>  0 0.86469132E+03</rscale>
<asrwt>0</asrwt>
<pdfrwt beam="1">  1        2 0.56074340E+00 0.86469132E+03</pdfrwt>
<pdfrwt beam="2">  1       -2 0.40522335E-01 0.86469132E+03</pdfrwt>
<totfact> 0.39376363E+00</totfact>
</mgrwt>
</event>
<event>
 4    1  0.2202466E-008  0.3451221E+03  0.7818608E-02  0.1064635E+00
          2   -1    0    0  501    0  0.00000000000E+00  0.00000000000E+00  0.81103118052E+03  0.81103118053E+03  0.25500000000E-02 0. -1.
         -2   -1    0    0    0  501 -0.00000000000E+00 -0.00000000000E+00 -0.67057934692E+03  0.67057934692E+03  0.25500000000E-02 0.  1.
    8880022    1    1    2    0    0 -0.21187726987E+03 -0.22544540279E+03 -0.58445194810E+03  0.67874394272E+03  0.15294330000E+03 0.  1.
    8880022    1    1    2    0    0  0.21187726987E+03  0.22544540279E+03  0.72490378170E+03  0.80286658473E+03  0.15294330000E+03 0.  0.
<mgrwt>
<rscale>  0 0.34512209E+03</rscale>
<asrwt>0</asrwt>
<pdfrwt beam="1">  1        2 0.12477403E+00 0.34512209E+03</pdfrwt>
<pdfrwt beam="2">  1       -2 0.10316605E+00 0.34512209E+03</pdfrwt>
<totfact> 0.27755892E+01</totfact>
</mgrwt>
</event>
<event>
 4    1  0.2202466E-008  0.8712589E+03  0.7818608E-02  0.9462240E-01
          2   -1    0    0  501    0  0.00000000000E+00  0.00000000000E+00  0.40661922808E+04  0.40661922808E+04  0.25500000000E-02 0. -1.
         -2   -1    0    0    0  501 -0.00000000000E+00 -0.00000000000E+00 -0.11870648143E+04  0.11870648143E+04  0.25500000000E-02 0.  1.
    8880022    1    1    2    0    0 -0.62040193310E+03  0.59228527283E+03  0.38508244646E+04  0.39481566728E+04  0.15294330000E+03 0.  0.
    8880022    1    1    2    0    0  0.62040193310E+03 -0.59228527283E+03 -0.97169699811E+03  0.13051004222E+04  0.15294330000E+03 0.  0.
<mgrwt>
<rscale>  0 0.87125889E+03</rscale>
<asrwt>0</asrwt>
<pdfrwt beam="1">  1        2 0.62556804E+00 0.87125889E+03</pdfrwt>
<pdfrwt beam="2">  1       -2 0.18262536E+00 0.87125889E+03</pdfrwt>
<totfact> 0.56979571E-02</totfact>
</mgrwt>
</event>
<event>
 4    1  0.2202466E-008  0.6122271E+03  0.7818608E-02  0.9880359E-01
         -2   -1    0    0    0  501 -0.00000000000E+00  0.00000000000E+00  0.77446563257E+03  0.77446563257E+03  0.25500000000E-02 0.  1.
          2   -1    0    0  501    0  0.00000000000E+00 -0.00000000000E+00 -0.48168812397E+04  0.48168812397E+04  0.25500000000E-02 0. -1.
    8880022    1    1    2    0    0 -0.45928215438E+03  0.37482027319E+03 -0.46727168747E+04  0.47126537088E+04  0.15294330000E+03 0.  0.
    8880022    1    1    2    0    0  0.45928215438E+03 -0.37482027319E+03  0.63030126762E+03  0.87869316346E+03  0.15294330000E+03 0.  0.
<mgrwt>
<rscale>  0 0.61222707E+03</rscale>
<asrwt>0</asrwt>
<pdfrwt beam="1">  1        2 0.74105864E+00 0.61222707E+03</pdfrwt>
<pdfrwt beam="2">  1       -2 0.11914856E+00 0.61222707E+03</pdfrwt>
<totfact> 0.37938129E-02</totfact>
</mgrwt>
</event>
<event>
 4    1  0.2202466E-008  0.6124705E+03  0.7818608E-02  0.9879866E-01
          2   -1    0    0  501    0  0.00000000000E+00  0.00000000000E+00  0.16238832838E+04  0.16238832838E+04  0.25500000000E-02 0. -1.
         -2   -1    0    0    0  501 -0.00000000000E+00 -0.00000000000E+00 -0.37547109783E+03  0.37547109783E+03  0.25500000000E-02 0.  1.
    8880022    1    1    2    0    0 -0.57267913675E+03 -0.15416575109E+03  0.12443024160E+04  0.13868700833E+04  0.15294330000E+03 0.  0.
    8880022    1    1    2    0    0  0.57267913675E+03  0.15416575109E+03  0.41097699613E+01  0.61248429833E+03  0.15294330000E+03 0.  0.
<mgrwt>
<rscale>  0 0.61247051E+03</rscale>
<asrwt>0</asrwt>
<pdfrwt beam="1">  1        2 0.24982820E+00 0.61247051E+03</pdfrwt>
<pdfrwt beam="2">  1       -2 0.57764784E-01 0.61247051E+03</pdfrwt>
<totfact> 0.31673918E+01</totfact>
</mgrwt>
</event>
<event>
 4    1  0.2202466E-008  0.2212924E+03  0.7818608E-02  0.1132923E+00
         -2   -1    0    0    0  501 -0.00000000000E+00  0.00000000000E+00  0.47525616111E+03  0.47525616111E+03  0.25500000000E-02 0.  1.
          2   -1    0    0  501    0  0.00000000000E+00 -0.00000000000E+00 -0.36645673163E+03  0.36645673164E+03  0.25500000000E-02 0. -1.
    8880022    1    1    2    0    0 -0.84799609013E+02 -0.13560117544E+03  0.41121583381E+03  0.46697833725E+03  0.15294330000E+03 0.  0.
    8880022    1    1    2    0    0  0.84799609013E+02  0.13560117544E+03 -0.30241640433E+03  0.37473455551E+03  0.15294330000E+03 0. -1.
<mgrwt>
<rscale>  0 0.22129235E+03</rscale>
<asrwt>0</asrwt>
<pdfrwt beam="1">  1        2 0.56377959E-01 0.22129235E+03</pdfrwt>
<pdfrwt beam="2">  1       -2 0.73116332E-01 0.22129235E+03</pdfrwt>
<totfact> 0.15461633E+02</totfact>
</mgrwt>
</event>
<event>
 4    1  0.2202466E-008  0.9656115E+03  0.7818608E-02  0.9347087E-01
          2   -1    0    0  501    0  0.00000000000E+00  0.00000000000E+00  0.22966778114E+04  0.22966778114E+04  0.25500000000E-02 0. -1.
         -2   -1    0    0    0  501 -0.00000000000E+00 -0.00000000000E+00 -0.78850667970E+03  0.78850667971E+03  0.25500000000E-02 0.  1.
    8880022    1    1    2    0    0 -0.68244385933E+03 -0.66579601481E+03 -0.32034717634E+03  0.10173632197E+04  0.15294330000E+03 0.  0.
    8880022    1    1    2    0    0  0.68244385933E+03  0.66579601481E+03  0.18285183080E+04  0.20678212714E+04  0.15294330000E+03 0.  0.
<mgrwt>
<rscale>  0 0.96561152E+03</rscale>
<asrwt>0</asrwt>
<pdfrwt beam="1">  1        2 0.35333505E+00 0.96561152E+03</pdfrwt>
<pdfrwt beam="2">  1       -2 0.12130872E+00 0.96561152E+03</pdfrwt>
<totfact> 0.23729406E+00</totfact>
</mgrwt>
</event>
<event>
 4    1  0.2363099E-008  0.1313804E+04  0.7818608E-02  0.9018690E-01
         -2   -1    0    0    0  501 -0.00000000000E+00  0.00000000000E+00  0.12832164229E+04  0.12832164229E+04  0.25500000000E-02 0.  1.
          2   -1    0    0  501    0  0.00000000000E+00 -0.00000000000E+00 -0.27416808061E+04  0.27416808061E+04  0.25500000000E-02 0. -1.
    8880022    1    1    2    0    0  0.10059191937E+04  0.83115289966E+03  0.70707144927E+03  0.14919886910E+04  0.15294330000E+03 0.  0.
    8880022    1    1    2    0    0 -0.10059191937E+04 -0.83115289966E+03 -0.21655358325E+04  0.25329085379E+04  0.15294330000E+03 0.  0.
<mgrwt>
<rscale>  0 0.13138037E+04</rscale>
<asrwt>0</asrwt>
<pdfrwt beam="1">  1        2 0.42179705E+00 0.13138037E+04</pdfrwt>
<pdfrwt beam="2">  1       -2 0.19741791E+00 0.13138037E+04</pdfrwt>
<totfact> 0.33406509E-01</totfact>
</mgrwt>
</event>
<event>
 4    1  0.2202466E-008  0.1353849E+04  0.7818608E-02  0.8987920E-01
          2   -1    0    0  501    0  0.00000000000E+00  0.00000000000E+00  0.19070493887E+04  0.19070493887E+04  0.25500000000E-02 0. -1.
         -2   -1    0    0    0  501 -0.00000000000E+00 -0.00000000000E+00 -0.24155180362E+04  0.24155180362E+04  0.25500000000E-02 0.  1.
    8880022    1    1    2    0    0  0.13100349102E+04  0.30548932309E+03  0.14228233614E+04  0.19640094611E+04  0.15294330000E+03 0.  0.
    8880022    1    1    2    0    0 -0.13100349102E+04 -0.30548932309E+03 -0.19312920089E+04  0.23585579639E+04  0.15294330000E+03 0.  0.
<mgrwt>
<rscale>  0 0.13538489E+04</rscale>
<asrwt>0</asrwt>
<pdfrwt beam="1">  1        2 0.29339222E+00 0.13538489E+04</pdfrwt>
<pdfrwt beam="2">  1       -2 0.37161816E+00 0.13538489E+04</pdfrwt>
<totfact> 0.81837598E-02</totfact>
</mgrwt>
</event>
<event>
 4    1  0.2202466E-008  0.2006896E+04  0.7818608E-02  0.8603403E-01
         -2   -1    0    0    0  501 -0.00000000000E+00  0.00000000000E+00  0.19524546999E+04  0.19524546999E+04  0.25500000000E-02 0.  1.
          2   -1    0    0  501    0  0.00000000000E+00 -0.00000000000E+00 -0.39259214580E+04  0.39259214580E+04  0.25500000000E-02 0. -1.
    8880022    1    1    2    0    0  0.14680285875E+04  0.13598279055E+04 -0.30114801407E+04  0.36189285924E+04  0.15294330000E+03 0.  0.
    8880022    1    1    2    0    0 -0.14680285875E+04 -0.13598279055E+04  0.10380133826E+04  0.22594475656E+04  0.15294330000E+03 0.  0.
<mgrwt>
<rscale>  0 0.20068960E+04</rscale>
<asrwt>0</asrwt>
<pdfrwt beam="1">  1        2 0.60398792E+00 0.20068960E+04</pdfrwt>
<pdfrwt beam="2">  1       -2 0.30037765E+00 0.20068960E+04</pdfrwt>
<totfact> 0.10982894E-02</totfact>
</mgrwt>
</event>
<event>
 4    1  0.2202466E-008  0.8041232E+03  0.7818608E-02  0.9554068E-01
         -2   -1    0    0    0  501 -0.00000000000E+00  0.00000000000E+00  0.11880254222E+04  0.11880254223E+04  0.25500000000E-02 0.  1.
          2   -1    0    0  501    0  0.00000000000E+00 -0.00000000000E+00 -0.67789289863E+03  0.67789289863E+03  0.25500000000E-02 0. -1.
    8880022    1    1    2    0    0 -0.62100025629E+03 -0.48742297201E+03 -0.15913578162E+03  0.81971844066E+03  0.15294330000E+03 0.  0.
    8880022    1    1    2    0    0  0.62100025629E+03  0.48742297201E+03  0.66926830524E+03  0.10461998802E+04  0.15294330000E+03 0.  0.
<mgrwt>
<rscale>  0 0.80412320E+03</rscale>
<asrwt>0</asrwt>
<pdfrwt beam="1">  1        2 0.10429122E+00 0.80412320E+03</pdfrwt>
<pdfrwt beam="2">  1       -2 0.18277314E+00 0.80412320E+03</pdfrwt>
<totfact> 0.74934263E+00</totfact>
</mgrwt>
</event>
<event>
 4    1  0.2202466E-008  0.7453137E+03  0.7818608E-02  0.9642731E-01
         -2   -1    0    0    0  501 -0.00000000000E+00  0.00000000000E+00  0.63831305275E+03  0.63831305275E+03  0.25500000000E-02 0.  1.
          2   -1    0    0  501    0  0.00000000000E+00 -0.00000000000E+00 -0.93450238883E+03  0.93450238884E+03  0.25500000000E-02 0. -1.
    8880022    1    1    2    0    0 -0.69124096884E+03  0.23299515187E+03 -0.35429974737E+03  0.82523983290E+03  0.15294330000E+03 0.  0.
    8880022    1    1    2    0    0  0.69124096884E+03 -0.23299515187E+03  0.58110411283E+02  0.74757560869E+03  0.15294330000E+03 0.  0.
<mgrwt>
<rscale>  0 0.74531367E+03</rscale>
<asrwt>0</asrwt>
<pdfrwt beam="1">  1        2 0.14376960E+00 0.74531367E+03</pdfrwt>
<pdfrwt beam="2">  1       -2 0.98202008E-01 0.74531367E+03</pdfrwt>
<totfact> 0.24353933E+01</totfact>
</mgrwt>
</event>
<event>
 4    1  0.2202466E-008  0.7985344E+03  0.7818608E-02  0.9562141E-01
         -2   -1    0    0    0  501 -0.00000000000E+00  0.00000000000E+00  0.61685056361E+03  0.61685056361E+03  0.25500000000E-02 0.  1.
          2   -1    0    0  501    0  0.00000000000E+00 -0.00000000000E+00 -0.22840772438E+04  0.22840772438E+04  0.25500000000E-02 0. -1.
    8880022    1    1    2    0    0  0.23314993776E+03 -0.74826909258E+03  0.23955235760E+03  0.83369209750E+03  0.15294330000E+03 0.  0.
    8880022    1    1    2    0    0 -0.23314993776E+03  0.74826909258E+03 -0.19067790378E+04  0.20672357099E+04  0.15294330000E+03 0.  0.
<mgrwt>
<rscale>  0 0.79853440E+03</rscale>
<asrwt>0</asrwt>
<pdfrwt beam="1">  1        2 0.35139649E+00 0.79853440E+03</pdfrwt>
<pdfrwt beam="2">  1       -2 0.94900088E-01 0.79853440E+03</pdfrwt>
<totfact> 0.44766148E+00</totfact>
</mgrwt>
</event>
<event>
 4    1  0.2202466E-008  0.7102803E+03  0.7818608E-02  0.9699811E-01
         -2   -1    0    0    0  501 -0.00000000000E+00  0.00000000000E+00  0.38076805760E+03  0.38076805761E+03  0.25500000000E-02 0.  1.
          2   -1    0    0  501    0  0.00000000000E+00 -0.00000000000E+00 -0.27913694861E+04  0.27913694861E+04  0.25500000000E-02 0. -1.
    8880022    1    1    2    0    0 -0.66593377546E+03  0.19400686763E+03 -0.55711534508E+02  0.71246184886E+03  0.15294330000E+03 0.  0.
    8880022    1    1    2    0    0  0.66593377546E+03 -0.19400686763E+03 -0.23548898940E+04  0.24596756948E+04  0.15294330000E+03 0.  0.
<mgrwt>
<rscale>  0 0.71028030E+03</rscale>
<asrwt>0</asrwt>
<pdfrwt beam="1">  1        2 0.42944145E+00 0.71028030E+03</pdfrwt>
<pdfrwt beam="2">  1       -2 0.58579703E-01 0.71028030E+03</pdfrwt>
<totfact> 0.67980358E+00</totfact>
</mgrwt>
</event>
<event>
 4    1  0.2202466E-008  0.1019559E+04  0.7818608E-02  0.9287350E-01
         -2   -1    0    0    0  501 -0.00000000000E+00  0.00000000000E+00  0.72164694447E+03  0.72164694448E+03  0.25500000000E-02 0.  1.
          2   -1    0    0  501    0  0.00000000000E+00 -0.00000000000E+00 -0.37215937103E+04  0.37215937103E+04  0.25500000000E-02 0. -1.
    8880022    1    1    2    0    0  0.78375684182E+03 -0.63390326634E+03 -0.32393003442E+04  0.33959632671E+04  0.15294330000E+03 0.  0.
    8880022    1    1    2    0    0 -0.78375684182E+03  0.63390326634E+03  0.23935357844E+03  0.10472773877E+04  0.15294330000E+03 0.  0.
<mgrwt>
<rscale>  0 0.10195586E+04</rscale>
<asrwt>0</asrwt>
<pdfrwt beam="1">  1        2 0.57255287E+00 0.10195586E+04</pdfrwt>
<pdfrwt beam="2">  1       -2 0.11102261E+00 0.10195586E+04</pdfrwt>
<totfact> 0.37444272E-01</totfact>
</mgrwt>
</event>
<event>
 4    1  0.2202466E-008  0.5191316E+03  0.7818608E-02  0.1008903E+00
         -2   -1    0    0    0  501 -0.00000000000E+00  0.00000000000E+00  0.14863459678E+03  0.14863459681E+03  0.25500000000E-02 0.  1.
          2   -1    0    0  501    0  0.00000000000E+00 -0.00000000000E+00 -0.24849934537E+04  0.24849934537E+04  0.25500000000E-02 0. -1.
    8880022    1    1    2    0    0  0.24535878778E+03  0.43116700266E+03 -0.48348904684E+03  0.70940766161E+03  0.15294330000E+03 0.  0.
    8880022    1    1    2    0    0 -0.24535878778E+03 -0.43116700266E+03 -0.18528698101E+04  0.19242203889E+04  0.15294330000E+03 0.  0.
<mgrwt>
<rscale>  0 0.51913156E+03</rscale>
<asrwt>0</asrwt>
<pdfrwt beam="1">  1        2 0.38230666E+00 0.51913156E+03</pdfrwt>
<pdfrwt beam="2">  1       -2 0.22866863E-01 0.51913156E+03</pdfrwt>
<totfact> 0.64375890E+01</totfact>
</mgrwt>
</event>
<event>
 4    1  0.2202466E-008  0.1866718E+04  0.7818608E-02  0.8671603E-01
          2   -1    0    0  501    0  0.00000000000E+00  0.00000000000E+00  0.19952434544E+04  0.19952434544E+04  0.25500000000E-02 0. -1.
         -2   -1    0    0    0  501 -0.00000000000E+00 -0.00000000000E+00 -0.22993671041E+04  0.22993671041E+04  0.25500000000E-02 0.  1.
    8880022    1    1    2    0    0 -0.17820927111E+04  0.53421968251E+03  0.90089610934E+03  0.20727398662E+04  0.15294330000E+03 0.  0.
    8880022    1    1    2    0    0  0.17820927111E+04 -0.53421968251E+03 -0.12050197590E+04  0.22218706922E+04  0.15294330000E+03 0.  0.
<mgrwt>
<rscale>  0 0.18667182E+04</rscale>
<asrwt>0</asrwt>
<pdfrwt beam="1">  1        2 0.30696053E+00 0.18667182E+04</pdfrwt>
<pdfrwt beam="2">  1       -2 0.35374878E+00 0.18667182E+04</pdfrwt>
<totfact> 0.89159033E-02</totfact>
</mgrwt>
</event>
<event>
 4    1  0.2202466E-008  0.1111529E+04  0.7818608E-02  0.9194027E-01
         -2   -1    0    0    0  501 -0.00000000000E+00  0.00000000000E+00  0.51095613774E+03  0.51095613775E+03  0.25500000000E-02 0.  1.
          2   -1    0    0  501    0  0.00000000000E+00 -0.00000000000E+00 -0.29845854998E+04  0.29845854998E+04  0.25500000000E-02 0. -1.
    8880022    1    1    2    0    0  0.73632623329E+03  0.81849199731E+03 -0.47531221953E+03  0.12088915710E+04  0.15294330000E+03 0.  0.
    8880022    1    1    2    0    0 -0.73632623329E+03 -0.81849199731E+03 -0.19983171426E+04  0.22866500665E+04  0.15294330000E+03 0.  0.
<mgrwt>
<rscale>  0 0.11115292E+04</rscale>
<asrwt>0</asrwt>
<pdfrwt beam="1">  1        2 0.45916699E+00 0.11115292E+04</pdfrwt>
<pdfrwt beam="2">  1       -2 0.78608638E-01 0.11115292E+04</pdfrwt>
<totfact> 0.25723732E+00</totfact>
</mgrwt>
</event>
<event>
 4    1  0.2202466E-008  0.5077556E+03  0.7818608E-02  0.1011774E+00
         -2   -1    0    0    0  501 -0.00000000000E+00  0.00000000000E+00  0.15720559398E+04  0.15720559398E+04  0.25500000000E-02 0.  1.
          2   -1    0    0  501    0  0.00000000000E+00 -0.00000000000E+00 -0.68726021738E+03  0.68726021738E+03  0.25500000000E-02 0. -1.
    8880022    1    1    2    0    0  0.29382169793E+03  0.38482843058E+03 -0.54330414558E+03  0.74363644261E+03  0.15294330000E+03 0.  0.
    8880022    1    1    2    0    0 -0.29382169793E+03 -0.38482843058E+03  0.14280998680E+04  0.15156797146E+04  0.15294330000E+03 0.  1.
<mgrwt>
<rscale>  0 0.50775561E+03</rscale>
<asrwt>0</asrwt>
<pdfrwt beam="1">  1        2 0.10573234E+00 0.50775561E+03</pdfrwt>
<pdfrwt beam="2">  1       -2 0.24185476E+00 0.50775561E+03</pdfrwt>
<totfact> 0.32488238E+00</totfact>
</mgrwt>
</event>
<event>
 4    1  0.2202466E-008  0.5495446E+03  0.7818608E-02  0.1001599E+00
          2   -1    0    0  501    0  0.00000000000E+00  0.00000000000E+00  0.26891132210E+04  0.26891132210E+04  0.25500000000E-02 0. -1.
         -2   -1    0    0    0  501 -0.00000000000E+00 -0.00000000000E+00 -0.51111866931E+03  0.51111866932E+03  0.25500000000E-02 0.  1.
    8880022    1    1    2    0    0  0.30250073232E+03 -0.43255160175E+03  0.25024325570E+04  0.25620632187E+04  0.15294330000E+03 0.  0.
    8880022    1    1    2    0    0 -0.30250073232E+03  0.43255160175E+03 -0.32443800527E+03  0.63816867167E+03  0.15294330000E+03 0.  0.
<mgrwt>
<rscale>  0 0.54954457E+03</rscale>
<asrwt>0</asrwt>
<pdfrwt beam="1">  1        2 0.41370973E+00 0.54954457E+03</pdfrwt>
<pdfrwt beam="2">  1       -2 0.78633641E-01 0.54954457E+03</pdfrwt>
<totfact> 0.42760184E+00</totfact>
</mgrwt>
</event>
<event>
 4    1  0.2202466E-008  0.1002587E+04  0.7818608E-02  0.9305712E-01
          2   -1    0    0  501    0  0.00000000000E+00  0.00000000000E+00  0.48251066541E+04  0.48251066541E+04  0.25500000000E-02 0. -1.
         -2   -1    0    0    0  501 -0.00000000000E+00 -0.00000000000E+00 -0.24611532327E+03  0.24611532328E+03  0.25500000000E-02 0.  1.
    8880022    1    1    2    0    0 -0.11105550274E+02  0.99079008106E+03  0.32831056663E+04  0.34327777072E+04  0.15294330000E+03 0. -1.
    8880022    1    1    2    0    0  0.11105550274E+02 -0.99079008106E+03  0.12958856646E+04  0.16384442702E+04  0.15294330000E+03 0.  0.
<mgrwt>
<rscale>  0 0.10025866E+04</rscale>
<asrwt>0</asrwt>
<pdfrwt beam="1">  1        2 0.74232408E+00 0.10025866E+04</pdfrwt>
<pdfrwt beam="2">  1       -2 0.37863897E-01 0.10025866E+04</pdfrwt>
<totfact> 0.40106067E-01</totfact>
</mgrwt>
</event>
<event>
 4    1  0.2202466E-008  0.1151588E+04  0.7818608E-02  0.9156319E-01
          2   -1    0    0  501    0  0.00000000000E+00  0.00000000000E+00  0.24285590763E+04  0.24285590763E+04  0.25500000000E-02 0. -1.
         -2   -1    0    0    0  501 -0.00000000000E+00 -0.00000000000E+00 -0.87401156396E+03  0.87401156396E+03  0.25500000000E-02 0.  1.
    8880022    1    1    2    0    0  0.36186011005E+03  0.10825070365E+04  0.17887688349E+04  0.21274044799E+04  0.15294330000E+03 0.  0.
    8880022    1    1    2    0    0 -0.36186011005E+03 -0.10825070365E+04 -0.23422132260E+03  0.11751661603E+04  0.15294330000E+03 0.  0.
<mgrwt>
<rscale>  0 0.11515884E+04</rscale>
<asrwt>0</asrwt>
<pdfrwt beam="1">  1        2 0.37362447E+00 0.11515884E+04</pdfrwt>
<pdfrwt beam="2">  1       -2 0.13446332E+00 0.11515884E+04</pdfrwt>
<totfact> 0.15017502E+00</totfact>
</mgrwt>
</event>
<event>
 4    1  0.2202466E-008  0.1445059E+04  0.7818608E-02  0.8921833E-01
         -2   -1    0    0    0  501 -0.00000000000E+00  0.00000000000E+00  0.17265773192E+04  0.17265773192E+04  0.25500000000E-02 0.  1.
          2   -1    0    0  501    0  0.00000000000E+00 -0.00000000000E+00 -0.18832498752E+04  0.18832498752E+04  0.25500000000E-02 0. -1.
    8880022    1    1    2    0    0 -0.71689199556E+03 -0.12453389552E+04  0.10012827408E+04  0.17580563207E+04  0.15294330000E+03 0.  0.
    8880022    1    1    2    0    0  0.71689199556E+03  0.12453389552E+04 -0.11579552967E+04  0.18517708737E+04  0.15294330000E+03 0.  0.
<mgrwt>
<rscale>  0 0.14450588E+04</rscale>
<asrwt>0</asrwt>
<pdfrwt beam="1">  1        2 0.28973075E+00 0.14450588E+04</pdfrwt>
<pdfrwt beam="2">  1       -2 0.26562728E+00 0.14450588E+04</pdfrwt>
<totfact> 0.37736572E-01</totfact>
</mgrwt>
</event>
<event>
 4    1  0.2202466E-008  0.1243559E+04  0.7818608E-02  0.9075561E-01
         -2   -1    0    0    0  501 -0.00000000000E+00  0.00000000000E+00  0.70955906302E+03  0.70955906302E+03  0.25500000000E-02 0.  1.
          2   -1    0    0  501    0  0.00000000000E+00 -0.00000000000E+00 -0.23293329785E+04  0.23293329785E+04  0.25500000000E-02 0. -1.
    8880022    1    1    2    0    0 -0.64174178362E+03 -0.10541421102E+04 -0.11953329137E+04  0.17248943542E+04  0.15294330000E+03 0.  0.
    8880022    1    1    2    0    0  0.64174178362E+03  0.10541421102E+04 -0.42444100174E+03  0.13139976873E+04  0.15294330000E+03 0.  0.
<mgrwt>
<rscale>  0 0.12435593E+04</rscale>
<asrwt>0</asrwt>
<pdfrwt beam="1">  1        2 0.35835892E+00 0.12435593E+04</pdfrwt>
<pdfrwt beam="2">  1       -2 0.10916293E+00 0.12435593E+04</pdfrwt>
<totfact> 0.28486115E+00</totfact>
</mgrwt>
</event>
<event>
 4    1  0.2202466E-008  0.5961397E+03  0.7818608E-02  0.9913447E-01
          2   -1    0    0  501    0  0.00000000000E+00  0.00000000000E+00  0.18877113565E+04  0.18877113565E+04  0.25500000000E-02 0. -1.
         -2   -1    0    0    0  501 -0.00000000000E+00 -0.00000000000E+00 -0.27163341042E+03  0.27163341043E+03  0.25500000000E-02 0.  1.
    8880022    1    1    2    0    0  0.49119839804E+03 -0.30118935940E+03  0.20988717773E+03  0.63200884238E+03  0.15294330000E+03 0.  0.
    8880022    1    1    2    0    0 -0.49119839804E+03  0.30118935940E+03  0.14061907683E+04  0.15273359246E+04  0.15294330000E+03 0.  0.
<mgrwt>
<rscale>  0 0.59613971E+03</rscale>
<asrwt>0</asrwt>
<pdfrwt beam="1">  1        2 0.29041713E+00 0.59613971E+03</pdfrwt>
<pdfrwt beam="2">  1       -2 0.41789756E-01 0.59613971E+03</pdfrwt>
<totfact> 0.43953590E+01</totfact>
</mgrwt>
</event>
<event>
 4    1  0.2202466E-008  0.5548867E+03  0.7818608E-02  0.1000369E+00
         -2   -1    0    0    0  501 -0.00000000000E+00  0.00000000000E+00  0.97936189399E+03  0.97936189399E+03  0.25500000000E-02 0.  1.
          2   -1    0    0  501    0  0.00000000000E+00 -0.00000000000E+00 -0.10268253393E+04  0.10268253393E+04  0.25500000000E-02 0. -1.
    8880022    1    1    2    0    0  0.16549787505E+03 -0.50706810941E+03  0.81180708598E+03  0.98332599482E+03  0.15294330000E+03 0.  0.
    8880022    1    1    2    0    0 -0.16549787505E+03  0.50706810941E+03 -0.85927053126E+03  0.10228612384E+04  0.15294330000E+03 0.  0.
<mgrwt>
<rscale>  0 0.55488672E+03</rscale>
<asrwt>0</asrwt>
<pdfrwt beam="1">  1        2 0.15797313E+00 0.55488672E+03</pdfrwt>
<pdfrwt beam="2">  1       -2 0.15067106E+00 0.55488672E+03</pdfrwt>
<totfact> 0.75192714E+00</totfact>
</mgrwt>
</event>
<event>
 4    1  0.2202466E-008  0.7053321E+03  0.7818608E-02  0.9708157E-01
         -2   -1    0    0    0  501 -0.00000000000E+00  0.00000000000E+00  0.49865837794E+03  0.49865837794E+03  0.25500000000E-02 0.  1.
          2   -1    0    0  501    0  0.00000000000E+00 -0.00000000000E+00 -0.13235652660E+04  0.13235652660E+04  0.25500000000E-02 0. -1.
    8880022    1    1    2    0    0 -0.59777464307E+03 -0.34171222608E+03 -0.86456139471E+03  0.11157776784E+04  0.15294330000E+03 0.  0.
    8880022    1    1    2    0    0  0.59777464307E+03  0.34171222608E+03  0.39654506644E+02  0.70644596556E+03  0.15294330000E+03 0.  0.
<mgrwt>
<rscale>  0 0.70533214E+03</rscale>
<asrwt>0</asrwt>
<pdfrwt beam="1">  1        2 0.20362542E+00 0.70533214E+03</pdfrwt>
<pdfrwt beam="2">  1       -2 0.76716674E-01 0.70533214E+03</pdfrwt>
<totfact> 0.24952865E+01</totfact>
</mgrwt>
</event>
<event>
 4    1  0.2202466E-008  0.1107811E+04  0.7818608E-02  0.9197612E-01
          2   -1    0    0  501    0  0.00000000000E+00  0.00000000000E+00  0.39613586136E+04  0.39613586136E+04  0.25500000000E-02 0. -1.
         -2   -1    0    0    0  501 -0.00000000000E+00 -0.00000000000E+00 -0.59945782277E+03  0.59945782277E+03  0.25500000000E-02 0.  1.
    8880022    1    1    2    0    0  0.77971328546E+03 -0.77194623586E+03  0.32661092093E+04  0.34488715283E+04  0.15294330000E+03 0.  0.
    8880022    1    1    2    0    0 -0.77971328546E+03  0.77194623586E+03  0.95791581576E+02  0.11119449081E+04  0.15294330000E+03 0.  0.
<mgrwt>
<rscale>  0 0.11078111E+04</rscale>
<asrwt>0</asrwt>
<pdfrwt beam="1">  1        2 0.60943979E+00 0.11078111E+04</pdfrwt>
<pdfrwt beam="2">  1       -2 0.92224280E-01 0.11078111E+04</pdfrwt>
<totfact> 0.37787767E-01</totfact>
</mgrwt>
</event>
<event>
 4    1  0.2202466E-008  0.5768759E+03  0.7818608E-02  0.9954578E-01
          2   -1    0    0  501    0  0.00000000000E+00  0.00000000000E+00  0.43483323888E+03  0.43483323889E+03  0.25500000000E-02 0. -1.
         -2   -1    0    0    0  501 -0.00000000000E+00 -0.00000000000E+00 -0.87626567805E+03  0.87626567805E+03  0.25500000000E-02 0.  1.
    8880022    1    1    2    0    0  0.52095330311E+03  0.19494065192E+03 -0.45397929408E+03  0.73408654413E+03  0.15294330000E+03 0.  1.
    8880022    1    1    2    0    0 -0.52095330311E+03 -0.19494065192E+03  0.12546854918E+02  0.57701237281E+03  0.15294330000E+03 0.  0.
<mgrwt>
<rscale>  0 0.57687594E+03</rscale>
<asrwt>0</asrwt>
<pdfrwt beam="1">  1        2 0.66897421E-01 0.57687594E+03</pdfrwt>
<pdfrwt beam="2">  1       -2 0.13481010E+00 0.57687594E+03</pdfrwt>
<totfact> 0.29422476E+01</totfact>
</mgrwt>
</event>
<event>
 4    1  0.2202466E-008  0.5004410E+03  0.7818608E-02  0.1013664E+00
          2   -1    0    0  501    0  0.00000000000E+00  0.00000000000E+00  0.33163073461E+04  0.33163073461E+04  0.25500000000E-02 0. -1.
         -2   -1    0    0    0  501 -0.00000000000E+00 -0.00000000000E+00 -0.11987655703E+04  0.11987655703E+04  0.25500000000E-02 0.  1.
    8880022    1    1    2    0    0 -0.37562279077E+03 -0.29318441805E+03  0.32440422095E+04  0.32824154359E+04  0.15294330000E+03 0.  0.
    8880022    1    1    2    0    0  0.37562279077E+03  0.29318441805E+03 -0.11265004338E+04  0.12326574805E+04  0.15294330000E+03 0.  0.
<mgrwt>
<rscale>  0 0.50044104E+03</rscale>
<asrwt>0</asrwt>
<pdfrwt beam="1">  1        2 0.51020112E+00 0.50044104E+03</pdfrwt>
<pdfrwt beam="2">  1       -2 0.18442548E+00 0.50044104E+03</pdfrwt>
<totfact> 0.21687543E-01</totfact>
</mgrwt>
</event>
<event>
 4    1  0.2202466E-008  0.1069578E+04  0.7818608E-02  0.9235361E-01
         -2   -1    0    0    0  501 -0.00000000000E+00  0.00000000000E+00  0.53852109931E+03  0.53852109932E+03  0.25500000000E-02 0.  1.
          2   -1    0    0  501    0  0.00000000000E+00 -0.00000000000E+00 -0.23078755946E+04  0.23078755946E+04  0.25500000000E-02 0. -1.
    8880022    1    1    2    0    0 -0.27314669861E+03  0.10227393344E+04 -0.12860346112E+04  0.16726869221E+04  0.15294330000E+03 0.  0.
    8880022    1    1    2    0    0  0.27314669861E+03 -0.10227393344E+04 -0.48331988410E+03  0.11737097718E+04  0.15294330000E+03 0.  0.
<mgrwt>
<rscale>  0 0.10695777E+04</rscale>
<asrwt>0</asrwt>
<pdfrwt beam="1">  1        2 0.35505778E+00 0.10695777E+04</pdfrwt>
<pdfrwt beam="2">  1       -2 0.82849401E-01 0.10695777E+04</pdfrwt>
<totfact> 0.57197442E+00</totfact>
</mgrwt>
</event>
<event>
 4    1  0.2202466E-008  0.8411546E+03  0.7818608E-02  0.9502286E-01
         -2   -1    0    0    0  501 -0.00000000000E+00  0.00000000000E+00  0.80467269255E+03  0.80467269256E+03  0.25500000000E-02 0.  1.
          2   -1    0    0  501    0  0.00000000000E+00 -0.00000000000E+00 -0.23338111748E+04  0.23338111748E+04  0.25500000000E-02 0. -1.
    8880022    1    1    2    0    0 -0.11352345341E+03  0.81930568047E+03 -0.20034143261E+04  0.21728345513E+04  0.15294330000E+03 0.  0.
    8880022    1    1    2    0    0  0.11352345341E+03 -0.81930568047E+03  0.47427584381E+03  0.96564931604E+03  0.15294330000E+03 0.  0.
<mgrwt>
<rscale>  0 0.84115458E+03</rscale>
<asrwt>0</asrwt>
<pdfrwt beam="1">  1        2 0.35904787E+00 0.84115458E+03</pdfrwt>
<pdfrwt beam="2">  1       -2 0.12379580E+00 0.84115458E+03</pdfrwt>
<totfact> 0.21921752E+00</totfact>
</mgrwt>
</event>
<event>
 4    1  0.2202466E-008  0.1249520E+04  0.7818608E-02  0.9070583E-01
          2   -1    0    0  501    0  0.00000000000E+00  0.00000000000E+00  0.30990433663E+04  0.30990433663E+04  0.25500000000E-02 0. -1.
         -2   -1    0    0    0  501 -0.00000000000E+00 -0.00000000000E+00 -0.13769561552E+04  0.13769561552E+04  0.25500000000E-02 0.  1.
    8880022    1    1    2    0    0  0.74976784852E+03  0.98780433796E+03 -0.92111237266E+03  0.15523365914E+04  0.15294330000E+03 0.  0.
    8880022    1    1    2    0    0 -0.74976784852E+03 -0.98780433796E+03  0.26431995837E+04  0.29236629301E+04  0.15294330000E+03 0.  0.
<mgrwt>
<rscale>  0 0.12495203E+04</rscale>
<asrwt>0</asrwt>
<pdfrwt beam="1">  1        2 0.47677590E+00 0.12495203E+04</pdfrwt>
<pdfrwt beam="2">  1       -2 0.21183941E+00 0.12495203E+04</pdfrwt>
<totfact> 0.16403596E-01</totfact>
</mgrwt>
</event>
<event>
 4    1  0.2202466E-008  0.8976946E+03  0.7818608E-02  0.9428468E-01
          2   -1    0    0  501    0  0.00000000000E+00  0.00000000000E+00  0.27266159546E+04  0.27266159546E+04  0.25500000000E-02 0. -1.
         -2   -1    0    0    0  501 -0.00000000000E+00 -0.00000000000E+00 -0.85973374398E+03  0.85973374399E+03  0.25500000000E-02 0.  1.
    8880022    1    1    2    0    0 -0.66611094530E+03  0.58203098890E+03  0.23860555149E+04  0.25493364699E+04  0.15294330000E+03 0.  0.
    8880022    1    1    2    0    0  0.66611094530E+03 -0.58203098890E+03 -0.51917330432E+03  0.10370132287E+04  0.15294330000E+03 0.  0.
<mgrwt>
<rscale>  0 0.89769456E+03</rscale>
<asrwt>0</asrwt>
<pdfrwt beam="1">  1        2 0.41947938E+00 0.89769456E+03</pdfrwt>
<pdfrwt beam="2">  1       -2 0.13226673E+00 0.89769456E+03</pdfrwt>
<totfact> 0.10945081E+00</totfact>
</mgrwt>
</event>
<event>
 4    1  0.3628323E-008  0.1336130E+04  0.7818608E-02  0.9001394E-01
          2   -1    0    0  501    0  0.00000000000E+00  0.00000000000E+00  0.20310514413E+04  0.20310514413E+04  0.25500000000E-02 0. -1.
         -2   -1    0    0    0  501 -0.00000000000E+00 -0.00000000000E+00 -0.18162295633E+04  0.18162295633E+04  0.25500000000E-02 0.  1.
    8880022    1    1    2    0    0 -0.12088358552E+04 -0.54824073673E+03 -0.12744594044E+04  0.18464805595E+04  0.15294330000E+03 0.  0.
    8880022    1    1    2    0    0  0.12088358552E+04  0.54824073673E+03  0.14892812824E+04  0.20008004452E+04  0.15294330000E+03 0.  0.
<mgrwt>
<rscale>  0 0.13361301E+04</rscale>
<asrwt>0</asrwt>
<pdfrwt beam="1">  1        2 0.31246945E+00 0.13361301E+04</pdfrwt>
<pdfrwt beam="2">  1       -2 0.27941993E+00 0.13361301E+04</pdfrwt>
<totfact> 0.26084258E-01</totfact>
</mgrwt>
</event>
<event>
 4    1  0.2202466E-008  0.6894965E+03  0.7818608E-02  0.9735365E-01
          2   -1    0    0  501    0  0.00000000000E+00  0.00000000000E+00  0.13553493963E+04  0.13553493964E+04  0.25500000000E-02 0. -1.
         -2   -1    0    0    0  501 -0.00000000000E+00 -0.00000000000E+00 -0.47571237101E+03  0.47571237102E+03  0.25500000000E-02 0.  1.
    8880022    1    1    2    0    0  0.63956186808E+03 -0.20730253251E+03 -0.29393532400E+02  0.69012271071E+03  0.15294330000E+03 0.  0.
    8880022    1    1    2    0    0 -0.63956186808E+03  0.20730253251E+03  0.90903055774E+03  0.11409390567E+04  0.15294330000E+03 0.  0.
<mgrwt>
<rscale>  0 0.68949647E+03</rscale>
<asrwt>0</asrwt>
<pdfrwt beam="1">  1        2 0.20851529E+00 0.68949647E+03</pdfrwt>
<pdfrwt beam="2">  1       -2 0.73186520E-01 0.68949647E+03</pdfrwt>
<totfact> 0.26614344E+01</totfact>
</mgrwt>
</event>
<event>
 4    1  0.2202466E-008  0.4541748E+03  0.7818608E-02  0.1026484E+00
         -2   -1    0    0    0  501 -0.00000000000E+00  0.00000000000E+00  0.74624550714E+03  0.74624550715E+03  0.25500000000E-02 0.  1.
          2   -1    0    0  501    0  0.00000000000E+00 -0.00000000000E+00 -0.48169222327E+03  0.48169222328E+03  0.25500000000E-02 0. -1.
    8880022    1    1    2    0    0  0.23889089112E+03  0.35470298474E+03 -0.26852557770E+03  0.52761795282E+03  0.15294330000E+03 0.  0.
    8880022    1    1    2    0    0 -0.23889089112E+03 -0.35470298474E+03  0.53307886157E+03  0.70031977761E+03  0.15294330000E+03 0.  0.
<mgrwt>
<rscale>  0 0.45417477E+03</rscale>
<asrwt>0</asrwt>
<pdfrwt beam="1">  1        2 0.74106496E-01 0.45417477E+03</pdfrwt>
<pdfrwt beam="2">  1       -2 0.11480700E+00 0.45417477E+03</pdfrwt>
<totfact> 0.39565790E+01</totfact>
</mgrwt>
</event>
<event>
 4    1  0.2202466E-008  0.3127684E+03  0.7818608E-02  0.1079026E+00
         -2   -1    0    0    0  501 -0.00000000000E+00  0.00000000000E+00  0.17953830577E+03  0.17953830579E+03  0.25500000000E-02 0.  1.
          2   -1    0    0  501    0  0.00000000000E+00 -0.00000000000E+00 -0.16049653814E+04  0.16049653814E+04  0.25500000000E-02 0. -1.
    8880022    1    1    2    0    0  0.25200110629E+03 -0.10453631361E+03 -0.14378641444E+04  0.14714881410E+04  0.15294330000E+03 0.  0.
    8880022    1    1    2    0    0 -0.25200110629E+03  0.10453631361E+03  0.12437068784E+02  0.31301554614E+03  0.15294330000E+03 0.  0.
<mgrwt>
<rscale>  0 0.31276837E+03</rscale>
<asrwt>0</asrwt>
<pdfrwt beam="1">  1        2 0.24691774E+00 0.31276837E+03</pdfrwt>
<pdfrwt beam="2">  1       -2 0.27621279E-01 0.31276837E+03</pdfrwt>
<totfact> 0.14266728E+02</totfact>
</mgrwt>
</event>
<event>
 4    1  0.2202466E-008  0.8588225E+03  0.7818608E-02  0.9478572E-01
         -2   -1    0    0    0  501 -0.00000000000E+00  0.00000000000E+00  0.65336453254E+03  0.65336453255E+03  0.25500000000E-02 0.  1.
          2   -1    0    0  501    0  0.00000000000E+00 -0.00000000000E+00 -0.16266207958E+04  0.16266207958E+04  0.25500000000E-02 0. -1.
    8880022    1    1    2    0    0  0.79930905347E+03  0.27438925047E+03 -0.11172318980E+04  0.14091781970E+04  0.15294330000E+03 0.  0.
    8880022    1    1    2    0    0 -0.79930905347E+03 -0.27438925047E+03  0.14397563475E+03  0.87080713143E+03  0.15294330000E+03 0.  0.
<mgrwt>
<rscale>  0 0.85882249E+03</rscale>
<asrwt>0</asrwt>
<pdfrwt beam="1">  1        2 0.25024935E+00 0.85882249E+03</pdfrwt>
<pdfrwt beam="2">  1       -2 0.10051762E+00 0.85882249E+03</pdfrwt>
<totfact> 0.89024407E+00</totfact>
</mgrwt>
</event>
<event>
 4    1  0.2202466E-008  0.1664305E+04  0.7818608E-02  0.8781989E-01
         -2   -1    0    0    0  501 -0.00000000000E+00  0.00000000000E+00  0.16285822624E+04  0.16285822624E+04  0.25500000000E-02 0.  1.
          2   -1    0    0  501    0  0.00000000000E+00 -0.00000000000E+00 -0.20627796466E+04  0.20627796466E+04  0.25500000000E-02 0. -1.
    8880022    1    1    2    0    0  0.13985996268E+04 -0.88906568215E+03 -0.99025230285E+03  0.19366233448E+04  0.15294330000E+03 0.  0.
    8880022    1    1    2    0    0 -0.13985996268E+04  0.88906568215E+03  0.55605491872E+03  0.17547385642E+04  0.15294330000E+03 0.  0.
<mgrwt>
<rscale>  0 0.16643048E+04</rscale>
<asrwt>0</asrwt>
<pdfrwt beam="1">  1        2 0.31735071E+00 0.16643048E+04</pdfrwt>
<pdfrwt beam="2">  1       -2 0.25055112E+00 0.16643048E+04</pdfrwt>
<totfact> 0.36212814E-01</totfact>
</mgrwt>
</event>
<event>
 4    1  0.2202466E-008  0.4462231E+03  0.7818608E-02  0.1028854E+00
          2   -1    0    0  501    0  0.00000000000E+00  0.00000000000E+00  0.23297139692E+04  0.23297139692E+04  0.25500000000E-02 0. -1.
         -2   -1    0    0    0  501 -0.00000000000E+00 -0.00000000000E+00 -0.13779124607E+03  0.13779124609E+03  0.25500000000E-02 0.  1.
    8880022    1    1    2    0    0  0.16096042453E+03  0.38705966557E+03  0.18562284812E+04  0.19091095491E+04  0.15294330000E+03 0.  0.
    8880022    1    1    2    0    0 -0.16096042453E+03 -0.38705966557E+03  0.33569424197E+03  0.55839566625E+03  0.15294330000E+03 0.  0.
<mgrwt>
<rscale>  0 0.44622315E+03</rscale>
<asrwt>0</asrwt>
<pdfrwt beam="1">  1        2 0.35841752E+00 0.44622315E+03</pdfrwt>
<pdfrwt beam="2">  1       -2 0.21198654E-01 0.44622315E+03</pdfrwt>
<totfact> 0.90909412E+01</totfact>
</mgrwt>
</event>
<event>
 4    1  0.2202466E-008  0.8128849E+03  0.7818608E-02  0.9541552E-01
          2   -1    0    0  501    0  0.00000000000E+00  0.00000000000E+00  0.28973663565E+04  0.28973663565E+04  0.25500000000E-02 0. -1.
         -2   -1    0    0    0  501 -0.00000000000E+00 -0.00000000000E+00 -0.23969910996E+03  0.23969910997E+03  0.25500000000E-02 0.  1.
    8880022    1    1    2    0    0 -0.66593207545E+03 -0.44036873743E+03  0.98323982924E+03  0.12757516878E+04  0.15294330000E+03 0.  1.
    8880022    1    1    2    0    0  0.66593207545E+03  0.44036873743E+03  0.16744274173E+04  0.18613137787E+04  0.15294330000E+03 0. -1.
<mgrwt>
<rscale>  0 0.81288487E+03</rscale>
<asrwt>0</asrwt>
<pdfrwt beam="1">  1        2 0.44574866E+00 0.81288487E+03</pdfrwt>
<pdfrwt beam="2">  1       -2 0.36876787E-01 0.81288487E+03</pdfrwt>
<totfact> 0.14632057E+01</totfact>
</mgrwt>
</event>
<event>
 4    1  0.2202466E-008  0.8564052E+03  0.7818608E-02  0.9481780E-01
          2   -1    0    0  501    0  0.00000000000E+00  0.00000000000E+00  0.32458048908E+04  0.32458048908E+04  0.25500000000E-02 0. -1.
         -2   -1    0    0    0  501 -0.00000000000E+00 -0.00000000000E+00 -0.49138680894E+03  0.49138680894E+03  0.25500000000E-02 0.  1.
    8880022    1    1    2    0    0  0.81155617844E+03  0.22674809632E+03  0.38816482731E+01  0.85641394790E+03  0.15294330000E+03 0.  0.
    8880022    1    1    2    0    0 -0.81155617844E+03 -0.22674809632E+03  0.27505364336E+04  0.28807777518E+04  0.15294330000E+03 0.  0.
<mgrwt>
<rscale>  0 0.85640515E+03</rscale>
<asrwt>0</asrwt>
<pdfrwt beam="1">  1        2 0.49935462E+00 0.85640515E+03</pdfrwt>
<pdfrwt beam="2">  1       -2 0.75597967E-01 0.85640515E+03</pdfrwt>
<totfact> 0.20007904E+00</totfact>
</mgrwt>
</event>
<event>
 4    1  0.2202466E-008  0.4450111E+03  0.7818608E-02  0.1029220E+00
         -2   -1    0    0    0  501 -0.00000000000E+00  0.00000000000E+00  0.36497466235E+03  0.36497466236E+03  0.25500000000E-02 0.  1.
          2   -1    0    0  501    0  0.00000000000E+00 -0.00000000000E+00 -0.12744956169E+04  0.12744956169E+04  0.25500000000E-02 0. -1.
    8880022    1    1    2    0    0 -0.32159451918E+03 -0.26687113338E+03  0.16643637566E+03  0.47511678223E+03  0.15294330000E+03 0.  0.
    8880022    1    1    2    0    0  0.32159451918E+03  0.26687113338E+03 -0.10759573302E+04  0.11643534971E+04  0.15294330000E+03 0.  0.
<mgrwt>
<rscale>  0 0.44501111E+03</rscale>
<asrwt>0</asrwt>
<pdfrwt beam="1">  1        2 0.19607625E+00 0.44501111E+03</pdfrwt>
<pdfrwt beam="2">  1       -2 0.56149949E-01 0.44501111E+03</pdfrwt>
<totfact> 0.53885178E+01</totfact>
</mgrwt>
</event>
<event>
 4    1  0.2202466E-008  0.2414894E+03  0.7818608E-02  0.1118805E+00
         -2   -1    0    0    0  501 -0.00000000000E+00  0.00000000000E+00  0.18228169242E+03  0.18228169244E+03  0.25500000000E-02 0.  1.
          2   -1    0    0  501    0  0.00000000000E+00 -0.00000000000E+00 -0.14018147604E+04  0.14018147604E+04  0.25500000000E-02 0. -1.
    8880022    1    1    2    0    0 -0.13441128561E+02  0.18639957958E+03 -0.13055868444E+04  0.13277327022E+04  0.15294330000E+03 0.  0.
    8880022    1    1    2    0    0  0.13441128561E+02 -0.18639957958E+03  0.86053776402E+02  0.25636375066E+03  0.15294330000E+03 0.  0.
<mgrwt>
<rscale>  0 0.24148938E+03</rscale>
<asrwt>0</asrwt>
<pdfrwt beam="1">  1        2 0.21566380E+00 0.24148938E+03</pdfrwt>
<pdfrwt beam="2">  1       -2 0.28043338E-01 0.24148938E+03</pdfrwt>
<totfact> 0.18121812E+02</totfact>
</mgrwt>
</event>
<event>
 4    1  0.2378902E-008  0.1426848E+04  0.7818608E-02  0.8934611E-01
          2   -1    0    0  501    0  0.00000000000E+00  0.00000000000E+00  0.24845780144E+04  0.24845780144E+04  0.25500000000E-02 0. -1.
         -2   -1    0    0    0  501 -0.00000000000E+00 -0.00000000000E+00 -0.15999429629E+04  0.15999429629E+04  0.25500000000E-02 0.  1.
    8880022    1    1    2    0    0  0.13599583249E+04  0.40375249851E+03 -0.98412344046E+03  0.17333185871E+04  0.15294330000E+03 0.  0.
    8880022    1    1    2    0    0 -0.13599583249E+04 -0.40375249851E+03  0.18687584919E+04  0.23512023902E+04  0.15294330000E+03 0.  0.
<mgrwt>
<rscale>  0 0.14268477E+04</rscale>
<asrwt>0</asrwt>
<pdfrwt beam="1">  1        2 0.38224277E+00 0.14268477E+04</pdfrwt>
<pdfrwt beam="2">  1       -2 0.24614507E+00 0.14268477E+04</pdfrwt>
<totfact> 0.22827880E-01</totfact>
</mgrwt>
</event>
<event>
 4    1  0.2202466E-008  0.1136476E+04  0.7818608E-02  0.9170352E-01
          2   -1    0    0  501    0  0.00000000000E+00  0.00000000000E+00  0.20981932872E+04  0.20981932872E+04  0.25500000000E-02 0. -1.
         -2   -1    0    0    0  501 -0.00000000000E+00 -0.00000000000E+00 -0.13465294605E+04  0.13465294605E+04  0.25500000000E-02 0.  1.
    8880022    1    1    2    0    0 -0.95732819771E+03  0.59304978584E+03  0.16448391722E+04  0.19992680866E+04  0.15294330000E+03 0.  0.
    8880022    1    1    2    0    0  0.95732819771E+03 -0.59304978584E+03 -0.89317534554E+03  0.14454546612E+04  0.15294330000E+03 0.  0.
<mgrwt>
<rscale>  0 0.11364757E+04</rscale>
<asrwt>0</asrwt>
<pdfrwt beam="1">  1        2 0.32279897E+00 0.11364757E+04</pdfrwt>
<pdfrwt beam="2">  1       -2 0.20715838E+00 0.11364757E+04</pdfrwt>
<totfact> 0.68971438E-01</totfact>
</mgrwt>
</event>
<event>
 4    1  0.2202466E-008  0.4368159E+03  0.7818608E-02  0.1031728E+00
          2   -1    0    0  501    0  0.00000000000E+00  0.00000000000E+00  0.53048651902E+03  0.53048651903E+03  0.25500000000E-02 0. -1.
         -2   -1    0    0    0  501 -0.00000000000E+00 -0.00000000000E+00 -0.72770507315E+03  0.72770507316E+03  0.25500000000E-02 0.  1.
    8880022    1    1    2    0    0 -0.37997676063E+03 -0.15177007820E+03 -0.54598737524E+03  0.69922125411E+03  0.15294330000E+03 0.  0.
    8880022    1    1    2    0    0  0.37997676063E+03  0.15177007820E+03  0.34876882111E+03  0.55897033808E+03  0.15294330000E+03 0.  0.
<mgrwt>
<rscale>  0 0.43681592E+03</rscale>
<asrwt>0</asrwt>
<pdfrwt beam="1">  1        2 0.81613310E-01 0.43681592E+03</pdfrwt>
<pdfrwt beam="2">  1       -2 0.11195463E+00 0.43681592E+03</pdfrwt>
<totfact> 0.37721755E+01</totfact>
</mgrwt>
</event>
<event>
 4    1  0.3179549E-008  0.1041092E+04  0.7818608E-02  0.9264589E-01
         -2   -1    0    0    0  501 -0.00000000000E+00  0.00000000000E+00  0.20881647907E+04  0.20881647907E+04  0.25500000000E-02 0.  1.
          2   -1    0    0  501    0  0.00000000000E+00 -0.00000000000E+00 -0.22649253152E+04  0.22649253152E+04  0.25500000000E-02 0. -1.
    8880022    1    1    2    0    0  0.59572456007E+03 -0.83999631207E+03 -0.19993185363E+04  0.22541401505E+04  0.15294330000E+03 0.  0.
    8880022    1    1    2    0    0 -0.59572456007E+03  0.83999631207E+03  0.18225580118E+04  0.20989499554E+04  0.15294330000E+03 0.  0.
<mgrwt>
<rscale>  0 0.10410923E+04</rscale>
<asrwt>0</asrwt>
<pdfrwt beam="1">  1        2 0.34845005E+00 0.10410923E+04</pdfrwt>
<pdfrwt beam="2">  1       -2 0.32125612E+00 0.10410923E+04</pdfrwt>
<totfact> 0.11265871E-01</totfact>
</mgrwt>
</event>
<event>
 4    1  0.2202466E-008  0.3274481E+03  0.7818608E-02  0.1072272E+00
         -2   -1    0    0    0  501 -0.00000000000E+00  0.00000000000E+00  0.30221960219E+03  0.30221960220E+03  0.25500000000E-02 0.  1.
          2   -1    0    0  501    0  0.00000000000E+00 -0.00000000000E+00 -0.16839416470E+04  0.16839416470E+04  0.25500000000E-02 0. -1.
    8880022    1    1    2    0    0 -0.22137265266E+03  0.18661393554E+03 -0.15731471701E+04  0.16068647374E+04  0.15294330000E+03 0.  0.
    8880022    1    1    2    0    0  0.22137265266E+03 -0.18661393554E+03  0.19142512531E+03  0.37929651185E+03  0.15294330000E+03 0.  0.
<mgrwt>
<rscale>  0 0.32744811E+03</rscale>
<asrwt>0</asrwt>
<pdfrwt beam="1">  1        2 0.25906794E+00 0.32744811E+03</pdfrwt>
<pdfrwt beam="2">  1       -2 0.46495325E-01 0.32744811E+03</pdfrwt>
<totfact> 0.48291549E+01</totfact>
</mgrwt>
</event>
<event>
 4    1  0.2202466E-008  0.6658855E+03  0.7818608E-02  0.9777419E-01
          2   -1    0    0  501    0  0.00000000000E+00  0.00000000000E+00  0.12471566785E+04  0.12471566785E+04  0.25500000000E-02 0. -1.
         -2   -1    0    0    0  501 -0.00000000000E+00 -0.00000000000E+00 -0.54444784548E+03  0.54444784549E+03  0.25500000000E-02 0.  1.
    8880022    1    1    2    0    0 -0.52079881091E+03  0.38572073565E+03  0.87903210251E+03  0.11027696848E+04  0.15294330000E+03 0.  0.
    8880022    1    1    2    0    0  0.52079881091E+03 -0.38572073565E+03 -0.17632326949E+03  0.68883483923E+03  0.15294330000E+03 0.  0.
<mgrwt>
<rscale>  0 0.66588553E+03</rscale>
<asrwt>0</asrwt>
<pdfrwt beam="1">  1        2 0.19187026E+00 0.66588553E+03</pdfrwt>
<pdfrwt beam="2">  1       -2 0.83761207E-01 0.66588553E+03</pdfrwt>
<totfact> 0.22782227E+01</totfact>
</mgrwt>
</event>
<event>
 4    1  0.2202466E-008  0.6099691E+03  0.7818608E-02  0.9884936E-01
          2   -1    0    0  501    0  0.00000000000E+00  0.00000000000E+00  0.27072290139E+04  0.27072290139E+04  0.25500000000E-02 0. -1.
         -2   -1    0    0    0  501 -0.00000000000E+00 -0.00000000000E+00 -0.59648837532E+03  0.59648837533E+03  0.25500000000E-02 0.  1.
    8880022    1    1    2    0    0  0.53045703402E+03 -0.25939546665E+03  0.25044907809E+04  0.25776998270E+04  0.15294330000E+03 0.  0.
    8880022    1    1    2    0    0 -0.53045703402E+03  0.25939546665E+03 -0.39375014238E+03  0.72601756225E+03  0.15294330000E+03 0.  0.
<mgrwt>
<rscale>  0 0.60996912E+03</rscale>
<asrwt>0</asrwt>
<pdfrwt beam="1">  1        2 0.41649677E+00 0.60996912E+03</pdfrwt>
<pdfrwt beam="2">  1       -2 0.91767442E-01 0.60996912E+03</pdfrwt>
<totfact> 0.28951416E+00</totfact>
</mgrwt>
</event>
<event>
 4    1  0.2202466E-008  0.1619173E+04  0.7818608E-02  0.8808855E-01
         -2   -1    0    0    0  501 -0.00000000000E+00  0.00000000000E+00  0.15772865413E+04  0.15772865413E+04  0.25500000000E-02 0.  1.
          2   -1    0    0  501    0  0.00000000000E+00 -0.00000000000E+00 -0.19934062389E+04  0.19934062389E+04  0.25500000000E-02 0. -1.
    8880022    1    1    2    0    0 -0.65647101553E+03  0.14722004116E+04 -0.93582770525E+03  0.18701586545E+04  0.15294330000E+03 0.  0.
    8880022    1    1    2    0    0  0.65647101553E+03 -0.14722004116E+04  0.51970800762E+03  0.17005341256E+04  0.15294330000E+03 0.  0.
<mgrwt>
<rscale>  0 0.16191726E+04</rscale>
<asrwt>0</asrwt>
<pdfrwt beam="1">  1        2 0.30667788E+00 0.16191726E+04</pdfrwt>
<pdfrwt beam="2">  1       -2 0.24265947E+00 0.16191726E+04</pdfrwt>
<totfact> 0.44508479E-01</totfact>
</mgrwt>
</event>
<event>
 4    1  0.2202466E-008  0.9457075E+03  0.7818608E-02  0.9370182E-01
         -2   -1    0    0    0  501 -0.00000000000E+00  0.00000000000E+00  0.90200933724E+03  0.90200933724E+03  0.25500000000E-02 0.  1.
          2   -1    0    0  501    0  0.00000000000E+00 -0.00000000000E+00 -0.15906319360E+04  0.15906319360E+04  0.25500000000E-02 0. -1.
    8880022    1    1    2    0    0 -0.54683304037E+03  0.75627022302E+03 -0.11091995103E+04  0.14576303478E+04  0.15294330000E+03 0.  0.
    8880022    1    1    2    0    0  0.54683304037E+03 -0.75627022302E+03  0.42057691151E+03  0.10350109254E+04  0.15294330000E+03 0.  0.
<mgrwt>
<rscale>  0 0.94570750E+03</rscale>
<asrwt>0</asrwt>
<pdfrwt beam="1">  1        2 0.24471261E+00 0.94570750E+03</pdfrwt>
<pdfrwt beam="2">  1       -2 0.13877067E+00 0.94570750E+03</pdfrwt>
<totfact> 0.41487909E+00</totfact>
</mgrwt>
</event>
<event>
 4    1  0.2202466E-008  0.6019346E+03  0.7818608E-02  0.9901400E-01
         -2   -1    0    0    0  501 -0.00000000000E+00  0.00000000000E+00  0.12465661387E+03  0.12465661390E+03  0.25500000000E-02 0.  1.
          2   -1    0    0  501    0  0.00000000000E+00 -0.00000000000E+00 -0.34943296641E+04  0.34943296641E+04  0.25500000000E-02 0. -1.
    8880022    1    1    2    0    0  0.97533911171E+02 -0.57395188525E+03 -0.94272591409E+03  0.11185067870E+04  0.15294330000E+03 0.  0.
    8880022    1    1    2    0    0 -0.97533911171E+02  0.57395188525E+03 -0.24269471361E+04  0.25004794910E+04  0.15294330000E+03 0.  0.
<mgrwt>
<rscale>  0 0.60193462E+03</rscale>
<asrwt>0</asrwt>
<pdfrwt beam="1">  1        2 0.53758910E+00 0.60193462E+03</pdfrwt>
<pdfrwt beam="2">  1       -2 0.19177943E-01 0.60193462E+03</pdfrwt>
<totfact> 0.20884244E+01</totfact>
</mgrwt>
</event>
<event>
 4    1  0.2202466E-008  0.2822456E+03  0.7818608E-02  0.1094469E+00
          2   -1    0    0  501    0  0.00000000000E+00  0.00000000000E+00  0.28565018328E+04  0.28565018328E+04  0.25500000000E-02 0. -1.
         -2   -1    0    0    0  501 -0.00000000000E+00 -0.00000000000E+00 -0.83151249112E+03  0.83151249112E+03  0.25500000000E-02 0.  1.
    8880022    1    1    2    0    0 -0.11392762670E+03 -0.20806592575E+03 -0.80032561626E+03  0.84863636420E+03  0.15294330000E+03 0.  0.
    8880022    1    1    2    0    0  0.11392762670E+03  0.20806592575E+03  0.28253149579E+04  0.28393779597E+04  0.15294330000E+03 0.  0.
<mgrwt>
<rscale>  0 0.28224561E+03</rscale>
<asrwt>0</asrwt>
<pdfrwt beam="1">  1        2 0.43946183E+00 0.28224561E+03</pdfrwt>
<pdfrwt beam="2">  1       -2 0.12792500E+00 0.28224561E+03</pdfrwt>
<totfact> 0.12149052E+00</totfact>
</mgrwt>
</event>
<event>
 4    1  0.2202466E-008  0.1941629E+03  0.7818608E-02  0.1154759E+00
         -2   -1    0    0    0  501 -0.00000000000E+00  0.00000000000E+00  0.10241565396E+03  0.10241565399E+03  0.25500000000E-02 0.  1.
          2   -1    0    0  501    0  0.00000000000E+00 -0.00000000000E+00 -0.13407271824E+04  0.13407271824E+04  0.25500000000E-02 0. -1.
    8880022    1    1    2    0    0 -0.87846589208E+02  0.81182118366E+02 -0.45702866717E+01  0.19421663192E+03  0.15294330000E+03 0.  0.
    8880022    1    1    2    0    0  0.87846589208E+02 -0.81182118366E+02 -0.12337412417E+04  0.12489262044E+04  0.15294330000E+03 0. -1.
<mgrwt>
<rscale>  0 0.19416285E+03</rscale>
<asrwt>0</asrwt>
<pdfrwt beam="1">  1        2 0.20626571E+00 0.19416285E+03</pdfrwt>
<pdfrwt beam="2">  1       -2 0.15756255E-01 0.19416285E+03</pdfrwt>
<totfact> 0.53297871E+02</totfact>
</mgrwt>
</event>
<event>
 4    1  0.2202466E-008  0.1030166E+04  0.7818608E-02  0.9276064E-01
         -2   -1    0    0    0  501 -0.00000000000E+00  0.00000000000E+00  0.11891231809E+04  0.11891231809E+04  0.25500000000E-02 0.  1.
          2   -1    0    0  501    0  0.00000000000E+00 -0.00000000000E+00 -0.29878824855E+04  0.29878824855E+04  0.25500000000E-02 0. -1.
    8880022    1    1    2    0    0  0.64266884335E+03  0.79046058050E+03 -0.26483775645E+04  0.28416802333E+04  0.15294330000E+03 0.  0.
    8880022    1    1    2    0    0 -0.64266884335E+03 -0.79046058050E+03  0.84961825985E+03  0.13353254330E+04  0.15294330000E+03 0.  0.
<mgrwt>
<rscale>  0 0.10301664E+04</rscale>
<asrwt>0</asrwt>
<pdfrwt beam="1">  1        2 0.45967423E+00 0.10301664E+04</pdfrwt>
<pdfrwt beam="2">  1       -2 0.18294203E+00 0.10301664E+04</pdfrwt>
<totfact> 0.30999741E-01</totfact>
</mgrwt>
</event>
<event>
 4    1  0.2202466E-008  0.7269486E+03  0.7818608E-02  0.9672225E-01
          2   -1    0    0  501    0  0.00000000000E+00  0.00000000000E+00  0.32501076682E+04  0.32501076682E+04  0.25500000000E-02 0. -1.
         -2   -1    0    0    0  501 -0.00000000000E+00 -0.00000000000E+00 -0.41957636901E+03  0.41957636902E+03  0.25500000000E-02 0.  1.
    8880022    1    1    2    0    0 -0.70252052687E+03  0.10736599348E+03  0.28512285538E+04  0.29424409027E+04  0.15294330000E+03 0.  0.
    8880022    1    1    2    0    0  0.70252052687E+03 -0.10736599348E+03 -0.20697254627E+02  0.72724313444E+03  0.15294330000E+03 0.  0.
<mgrwt>
<rscale>  0 0.72694855E+03</rscale>
<asrwt>0</asrwt>
<pdfrwt beam="1">  1        2 0.50001656E+00 0.72694855E+03</pdfrwt>
<pdfrwt beam="2">  1       -2 0.64550212E-01 0.72694855E+03</pdfrwt>
<totfact> 0.28817355E+00</totfact>
</mgrwt>
</event>
<event>
 4    1  0.2202466E-008  0.1717389E+04  0.7818608E-02  0.8751508E-01
          2   -1    0    0  501    0  0.00000000000E+00  0.00000000000E+00  0.25367118336E+04  0.25367118336E+04  0.25500000000E-02 0. -1.
         -2   -1    0    0    0  501 -0.00000000000E+00 -0.00000000000E+00 -0.14041350308E+04  0.14041350308E+04  0.25500000000E-02 0.  1.
    8880022    1    1    2    0    0  0.14158653357E+04 -0.95987452507E+03 -0.25078037816E+03  0.17356025478E+04  0.15294330000E+03 0.  0.
    8880022    1    1    2    0    0 -0.14158653357E+04  0.95987452507E+03  0.13833571810E+04  0.22052443166E+04  0.15294330000E+03 0.  0.
<mgrwt>
<rscale>  0 0.17173891E+04</rscale>
<asrwt>0</asrwt>
<pdfrwt beam="1">  1        2 0.39026335E+00 0.17173891E+04</pdfrwt>
<pdfrwt beam="2">  1       -2 0.21602078E+00 0.17173891E+04</pdfrwt>
<totfact> 0.31845409E-01</totfact>
</mgrwt>
</event>
<event>
 4    1  0.2202466E-008  0.2386325E+03  0.7818608E-02  0.1120707E+00
          2   -1    0    0  501    0  0.00000000000E+00  0.00000000000E+00  0.71443611109E+03  0.71443611110E+03  0.25500000000E-02 0. -1.
         -2   -1    0    0    0  501 -0.00000000000E+00 -0.00000000000E+00 -0.33973358971E+03  0.33973358971E+03  0.25500000000E-02 0.  1.
    8880022    1    1    2    0    0  0.21176155144E+02 -0.18194884232E+03 -0.27377545204E+03  0.36317827843E+03  0.15294330000E+03 0.  0.
    8880022    1    1    2    0    0 -0.21176155144E+02  0.18194884232E+03  0.64847797343E+03  0.69099142238E+03  0.15294330000E+03 0.  0.
<mgrwt>
<rscale>  0 0.23863249E+03</rscale>
<asrwt>0</asrwt>
<pdfrwt beam="1">  1        2 0.10991325E+00 0.23863249E+03</pdfrwt>
<pdfrwt beam="2">  1       -2 0.52266706E-01 0.23863249E+03</pdfrwt>
<totfact> 0.14596885E+02</totfact>
</mgrwt>
</event>
<event>
 4    1  0.2202466E-008  0.1371857E+04  0.7818608E-02  0.8974445E-01
         -2   -1    0    0    0  501 -0.00000000000E+00  0.00000000000E+00  0.14374747975E+04  0.14374747975E+04  0.25500000000E-02 0.  1.
          2   -1    0    0  501    0  0.00000000000E+00 -0.00000000000E+00 -0.19578808659E+04  0.19578808659E+04  0.25500000000E-02 0. -1.
    8880022    1    1    2    0    0 -0.60445584861E+02 -0.13619645679E+04 -0.12373634371E+04  0.18474471796E+04  0.15294330000E+03 0.  0.
    8880022    1    1    2    0    0  0.60445584861E+02  0.13619645679E+04  0.71695736861E+03  0.15479084838E+04  0.15294330000E+03 0.  0.
<mgrwt>
<rscale>  0 0.13718574E+04</rscale>
<asrwt>0</asrwt>
<pdfrwt beam="1">  1        2 0.30121244E+00 0.13718574E+04</pdfrwt>
<pdfrwt beam="2">  1       -2 0.22114997E+00 0.13718574E+04</pdfrwt>
<totfact> 0.65207909E-01</totfact>
</mgrwt>
</event>
<event>
 4    1  0.3029565E-008  0.1401910E+04  0.7818608E-02  0.8952437E-01
          2   -1    0    0  501    0  0.00000000000E+00  0.00000000000E+00  0.24908648108E+04  0.24908648108E+04  0.25500000000E-02 0. -1.
         -2   -1    0    0    0  501 -0.00000000000E+00 -0.00000000000E+00 -0.15360888325E+04  0.15360888325E+04  0.25500000000E-02 0.  1.
    8880022    1    1    2    0    0  0.74710752207E+03 -0.11763460693E+04 -0.92677558053E+03  0.16805547757E+04  0.15294330000E+03 0.  0.
    8880022    1    1    2    0    0 -0.74710752207E+03  0.11763460693E+04  0.18815515588E+04  0.23463988676E+04  0.15294330000E+03 0.  0.
<mgrwt>
<rscale>  0 0.14019099E+04</rscale>
<asrwt>0</asrwt>
<pdfrwt beam="1">  1        2 0.38320997E+00 0.14019099E+04</pdfrwt>
<pdfrwt beam="2">  1       -2 0.23632136E+00 0.14019099E+04</pdfrwt>
<totfact> 0.26123637E-01</totfact>
</mgrwt>
</event>
<event>
 4    1  0.2202466E-008  0.1291765E+04  0.7818608E-02  0.9036121E-01
         -2   -1    0    0    0  501 -0.00000000000E+00  0.00000000000E+00  0.12849454411E+04  0.12849454411E+04  0.25500000000E-02 0.  1.
          2   -1    0    0  501    0  0.00000000000E+00 -0.00000000000E+00 -0.21421142413E+04  0.21421142413E+04  0.25500000000E-02 0. -1.
    8880022    1    1    2    0    0  0.12690797342E+04  0.18628239767E+03 -0.15038391189E+04  0.19824702399E+04  0.15294330000E+03 0.  0.
    8880022    1    1    2    0    0 -0.12690797342E+04 -0.18628239767E+03  0.64667031868E+03  0.14445894425E+04  0.15294330000E+03 0.  0.
<mgrwt>
<rscale>  0 0.12917647E+04</rscale>
<asrwt>0</asrwt>
<pdfrwt beam="1">  1        2 0.32955604E+00 0.12917647E+04</pdfrwt>
<pdfrwt beam="2">  1       -2 0.19768391E+00 0.12917647E+04</pdfrwt>
<totfact> 0.73695276E-01</totfact>
</mgrwt>
</event>
<event>
 4    1  0.2202466E-008  0.7233978E+03  0.7818608E-02  0.9678035E-01
          2   -1    0    0  501    0  0.00000000000E+00  0.00000000000E+00  0.13105432853E+04  0.13105432853E+04  0.25500000000E-02 0. -1.
         -2   -1    0    0    0  501 -0.00000000000E+00 -0.00000000000E+00 -0.60312389015E+03  0.60312389015E+03  0.25500000000E-02 0.  1.
    8880022    1    1    2    0    0  0.13717832166E+03  0.69360995018E+03  0.90994318743E+03  0.11624546926E+04  0.15294330000E+03 0. -1.
    8880022    1    1    2    0    0 -0.13717832166E+03 -0.69360995018E+03 -0.20252379231E+03  0.75121248285E+03  0.15294330000E+03 0.  0.
<mgrwt>
<rscale>  0 0.72339775E+03</rscale>
<asrwt>0</asrwt>
<pdfrwt beam="1">  1        2 0.20162204E+00 0.72339775E+03</pdfrwt>
<pdfrwt beam="2">  1       -2 0.92788291E-01 0.72339775E+03</pdfrwt>
<totfact> 0.16438278E+01</totfact>
</mgrwt>
</event>
<event>
 4    1  0.2202466E-008  0.5598904E+03  0.7818608E-02  0.9992303E-01
         -2   -1    0    0    0  501 -0.00000000000E+00  0.00000000000E+00  0.14538080211E+04  0.14538080211E+04  0.25500000000E-02 0.  1.
          2   -1    0    0  501    0  0.00000000000E+00 -0.00000000000E+00 -0.18852833062E+04  0.18852833062E+04  0.25500000000E-02 0. -1.
    8880022    1    1    2    0    0  0.45372843830E+03 -0.29020013639E+03  0.13554346069E+04  0.14665197719E+04  0.15294330000E+03 0.  0.
    8880022    1    1    2    0    0 -0.45372843830E+03  0.29020013639E+03 -0.17869098920E+04  0.18725715554E+04  0.15294330000E+03 0.  0.
<mgrwt>
<rscale>  0 0.55989041E+03</rscale>
<asrwt>0</asrwt>
<pdfrwt beam="1">  1        2 0.29004359E+00 0.55989041E+03</pdfrwt>
<pdfrwt beam="2">  1       -2 0.22366277E+00 0.55989041E+03</pdfrwt>
<totfact> 0.79416428E-01</totfact>
</mgrwt>
</event>
<event>
 4    1  0.2202466E-008  0.9302911E+03  0.7818608E-02  0.9388489E-01
          2   -1    0    0  501    0  0.00000000000E+00  0.00000000000E+00  0.21096609660E+04  0.21096609660E+04  0.25500000000E-02 0. -1.
         -2   -1    0    0    0  501 -0.00000000000E+00 -0.00000000000E+00 -0.11793037945E+04  0.11793037945E+04  0.25500000000E-02 0.  1.
    8880022    1    1    2    0    0  0.91517333740E+03  0.67138497394E+02  0.17931875881E+04  0.20201393997E+04  0.15294330000E+03 0.  0.
    8880022    1    1    2    0    0 -0.91517333740E+03 -0.67138497394E+02 -0.86283041657E+03  0.12688253608E+04  0.15294330000E+03 0.  0.
<mgrwt>
<rscale>  0 0.93029107E+03</rscale>
<asrwt>0</asrwt>
<pdfrwt beam="1">  1        2 0.32456322E+00 0.93029107E+03</pdfrwt>
<pdfrwt beam="2">  1       -2 0.18143135E+00 0.93029107E+03</pdfrwt>
<totfact> 0.10392507E+00</totfact>
</mgrwt>
</event>
<event>
 4    1  0.2202466E-008  0.1160286E+04  0.7818608E-02  0.9148346E-01
         -2   -1    0    0    0  501 -0.00000000000E+00  0.00000000000E+00  0.15147965739E+04  0.15147965739E+04  0.25500000000E-02 0.  1.
          2   -1    0    0  501    0  0.00000000000E+00 -0.00000000000E+00 -0.16956931967E+04  0.16956931967E+04  0.25500000000E-02 0. -1.
    8880022    1    1    2    0    0  0.83930894547E+02  0.11470953704E+04  0.10169177321E+04  0.15428498018E+04  0.15294330000E+03 0.  0.
    8880022    1    1    2    0    0 -0.83930894547E+02 -0.11470953704E+04 -0.11978143549E+04  0.16676399689E+04  0.15294330000E+03 0.  0.
<mgrwt>
<rscale>  0 0.11602861E+04</rscale>
<asrwt>0</asrwt>
<pdfrwt beam="1">  1        2 0.26087588E+00 0.11602861E+04</pdfrwt>
<pdfrwt beam="2">  1       -2 0.23304563E+00 0.11602861E+04</pdfrwt>
<totfact> 0.78744860E-01</totfact>
</mgrwt>
</event>
<event>
 4    1  0.2279462E-008  0.1395188E+04  0.7818608E-02  0.8957309E-01
         -2   -1    0    0    0  501 -0.00000000000E+00  0.00000000000E+00  0.13828008939E+04  0.13828008939E+04  0.25500000000E-02 0.  1.
          2   -1    0    0  501    0  0.00000000000E+00 -0.00000000000E+00 -0.29716505802E+04  0.29716505802E+04  0.25500000000E-02 0. -1.
    8880022    1    1    2    0    0 -0.43873886581E+03 -0.13155474227E+04  0.78506975433E+03  0.16009006796E+04  0.15294330000E+03 0.  0.
    8880022    1    1    2    0    0  0.43873886581E+03  0.13155474227E+04 -0.23739194407E+04  0.27535507945E+04  0.15294330000E+03 0.  0.
<mgrwt>
<rscale>  0 0.13951876E+04</rscale>
<asrwt>0</asrwt>
<pdfrwt beam="1">  1        2 0.45717701E+00 0.13951876E+04</pdfrwt>
<pdfrwt beam="2">  1       -2 0.21273860E+00 0.13951876E+04</pdfrwt>
<totfact> 0.19039400E-01</totfact>
</mgrwt>
</event>
<event>
 4    1  0.2202466E-008  0.8011703E+03  0.7818608E-02  0.9558325E-01
         -2   -1    0    0    0  501 -0.00000000000E+00  0.00000000000E+00  0.62736015396E+03  0.62736015397E+03  0.25500000000E-02 0.  1.
          2   -1    0    0  501    0  0.00000000000E+00 -0.00000000000E+00 -0.28108728032E+04  0.28108728032E+04  0.25500000000E-02 0. -1.
    8880022    1    1    2    0    0  0.35160411004E+03 -0.70346060538E+03 -0.24627538093E+04  0.25897934767E+04  0.15294330000E+03 0.  0.
    8880022    1    1    2    0    0 -0.35160411004E+03  0.70346060538E+03  0.27924116010E+03  0.84843948047E+03  0.15294330000E+03 0.  0.
<mgrwt>
<rscale>  0 0.80117035E+03</rscale>
<asrwt>0</asrwt>
<pdfrwt beam="1">  1        2 0.43244196E+00 0.80117035E+03</pdfrwt>
<pdfrwt beam="2">  1       -2 0.96516948E-01 0.80117035E+03</pdfrwt>
<totfact> 0.21478629E+00</totfact>
</mgrwt>
</event>
<event>
 4    1  0.2202466E-008  0.1018570E+04  0.7818608E-02  0.9288408E-01
          2   -1    0    0  501    0  0.00000000000E+00  0.00000000000E+00  0.13499320581E+04  0.13499320581E+04  0.25500000000E-02 0. -1.
         -2   -1    0    0    0  501 -0.00000000000E+00 -0.00000000000E+00 -0.80773648413E+03  0.80773648413E+03  0.25500000000E-02 0.  1.
    8880022    1    1    2    0    0 -0.99231323052E+03  0.17148902185E+03  0.50873087322E+03  0.11385485437E+04  0.15294330000E+03 0.  0.
    8880022    1    1    2    0    0  0.99231323052E+03 -0.17148902185E+03  0.33464700723E+02  0.10191199985E+04  0.15294330000E+03 0.  0.
<mgrwt>
<rscale>  0 0.10185704E+04</rscale>
<asrwt>0</asrwt>
<pdfrwt beam="1">  1        2 0.20768186E+00 0.10185704E+04</pdfrwt>
<pdfrwt beam="2">  1       -2 0.12426715E+00 0.10185704E+04</pdfrwt>
<totfact> 0.74574345E+00</totfact>
</mgrwt>
</event>
<event>
 4    1  0.2202466E-008  0.3469102E+03  0.7818608E-02  0.1063890E+00
          2   -1    0    0  501    0  0.00000000000E+00  0.00000000000E+00  0.90001917169E+03  0.90001917169E+03  0.25500000000E-02 0. -1.
         -2   -1    0    0    0  501 -0.00000000000E+00 -0.00000000000E+00 -0.31491878085E+03  0.31491878086E+03  0.25500000000E-02 0.  1.
    8880022    1    1    2    0    0  0.30197422557E+03 -0.75938273056E+02 -0.16824462947E+03  0.38555539496E+03  0.15294330000E+03 0.  0.
    8880022    1    1    2    0    0 -0.30197422557E+03  0.75938273056E+02  0.75334502030E+03  0.82938255760E+03  0.15294330000E+03 0.  0.
<mgrwt>
<rscale>  0 0.34691023E+03</rscale>
<asrwt>0</asrwt>
<pdfrwt beam="1">  1        2 0.13846449E+00 0.34691023E+03</pdfrwt>
<pdfrwt beam="2">  1       -2 0.48449043E-01 0.34691023E+03</pdfrwt>
<totfact> 0.12433630E+02</totfact>
</mgrwt>
</event>
<event>
 4    1  0.2202466E-008  0.7397065E+03  0.7818608E-02  0.9651639E-01
         -2   -1    0    0    0  501 -0.00000000000E+00  0.00000000000E+00  0.59087422200E+03  0.59087422201E+03  0.25500000000E-02 0.  1.
          2   -1    0    0  501    0  0.00000000000E+00 -0.00000000000E+00 -0.17887218874E+04  0.17887218874E+04  0.25500000000E-02 0. -1.
    8880022    1    1    2    0    0  0.70344773316E+03 -0.17010407122E+03 -0.14252097245E+04  0.16057361303E+04  0.15294330000E+03 0.  0.
    8880022    1    1    2    0    0 -0.70344773316E+03  0.17010407122E+03  0.22736205910E+03  0.77385997911E+03  0.15294330000E+03 0.  0.
<mgrwt>
<rscale>  0 0.73970654E+03</rscale>
<asrwt>0</asrwt>
<pdfrwt beam="1">  1        2 0.27518798E+00 0.73970654E+03</pdfrwt>
<pdfrwt beam="2">  1       -2 0.90903727E-01 0.73970654E+03</pdfrwt>
<totfact> 0.93306973E+00</totfact>
</mgrwt>
</event>
<event>
 4    1  0.2202466E-008  0.6998619E+03  0.7818608E-02  0.9717468E-01
          2   -1    0    0  501    0  0.00000000000E+00  0.00000000000E+00  0.19237710481E+04  0.19237710481E+04  0.25500000000E-02 0. -1.
         -2   -1    0    0    0  501 -0.00000000000E+00 -0.00000000000E+00 -0.59909097199E+03  0.59909097200E+03  0.25500000000E-02 0.  1.
    8880022    1    1    2    0    0 -0.29594376527E+03 -0.61549353635E+03 -0.29419585405E+03  0.75918236218E+03  0.15294330000E+03 0.  0.
    8880022    1    1    2    0    0  0.29594376527E+03  0.61549353635E+03  0.16188759301E+04  0.17636796579E+04  0.15294330000E+03 0.  0.
<mgrwt>
<rscale>  0 0.69986189E+03</rscale>
<asrwt>0</asrwt>
<pdfrwt beam="1">  1        2 0.29596478E+00 0.69986189E+03</pdfrwt>
<pdfrwt beam="2">  1       -2 0.92167842E-01 0.69986189E+03</pdfrwt>
<totfact> 0.76778636E+00</totfact>
</mgrwt>
</event>
<event>
 4    1  0.2202466E-008  0.3827568E+03  0.7818608E-02  0.1049920E+00
          2   -1    0    0  501    0  0.00000000000E+00  0.00000000000E+00  0.64115207691E+03  0.64115207691E+03  0.25500000000E-02 0. -1.
         -2   -1    0    0    0  501 -0.00000000000E+00 -0.00000000000E+00 -0.74226325393E+03  0.74226325394E+03  0.25500000000E-02 0.  1.
    8880022    1    1    2    0    0  0.12669256391E+03  0.32720041021E+03 -0.62602924190E+03  0.73376793261E+03  0.15294330000E+03 0.  0.
    8880022    1    1    2    0    0 -0.12669256391E+03 -0.32720041021E+03  0.52491806488E+03  0.64964739824E+03  0.15294330000E+03 0.  0.
<mgrwt>
<rscale>  0 0.38275680E+03</rscale>
<asrwt>0</asrwt>
<pdfrwt beam="1">  1        2 0.98638780E-01 0.38275680E+03</pdfrwt>
<pdfrwt beam="2">  1       -2 0.11419435E+00 0.38275680E+03</pdfrwt>
<totfact> 0.28996749E+01</totfact>
</mgrwt>
</event>
<event>
 4    1  0.2202466E-008  0.1068397E+04  0.7818608E-02  0.9236554E-01
         -2   -1    0    0    0  501 -0.00000000000E+00  0.00000000000E+00  0.86771444272E+03  0.86771444273E+03  0.25500000000E-02 0.  1.
          2   -1    0    0  501    0  0.00000000000E+00 -0.00000000000E+00 -0.22084928960E+04  0.22084928960E+04  0.25500000000E-02 0. -1.
    8880022    1    1    2    0    0  0.95858633576E+03 -0.44631015329E+03 -0.16484443646E+04  0.19643932886E+04  0.15294330000E+03 0.  0.
    8880022    1    1    2    0    0 -0.95858633576E+03  0.44631015329E+03  0.30766591133E+03  0.11118140501E+04  0.15294330000E+03 0.  0.
<mgrwt>
<rscale>  0 0.10683970E+04</rscale>
<asrwt>0</asrwt>
<pdfrwt beam="1">  1        2 0.33976813E+00 0.10683970E+04</pdfrwt>
<pdfrwt beam="2">  1       -2 0.13349453E+00 0.10683970E+04</pdfrwt>
<totfact> 0.20570470E+00</totfact>
</mgrwt>
</event>
<event>
 4    1  0.2202466E-008  0.1183372E+04  0.7818608E-02  0.9127537E-01
          2   -1    0    0  501    0  0.00000000000E+00  0.00000000000E+00  0.22735209481E+04  0.22735209481E+04  0.25500000000E-02 0. -1.
         -2   -1    0    0    0  501 -0.00000000000E+00 -0.00000000000E+00 -0.11773254318E+04  0.11773254318E+04  0.25500000000E-02 0.  1.
    8880022    1    1    2    0    0  0.74940250807E+03 -0.90297983329E+03 -0.64335064355E+03  0.13469478097E+04  0.15294330000E+03 0.  0.
    8880022    1    1    2    0    0 -0.74940250807E+03  0.90297983329E+03  0.17395461599E+04  0.21038985702E+04  0.15294330000E+03 0.  0.
<mgrwt>
<rscale>  0 0.11833716E+04</rscale>
<asrwt>0</asrwt>
<pdfrwt beam="1">  1        2 0.34977245E+00 0.11833716E+04</pdfrwt>
<pdfrwt beam="2">  1       -2 0.18112699E+00 0.11833716E+04</pdfrwt>
<totfact> 0.81569761E-01</totfact>
</mgrwt>
</event>
<event>
 4    1  0.2202466E-008  0.1111276E+04  0.7818608E-02  0.9194271E-01
         -2   -1    0    0    0  501 -0.00000000000E+00  0.00000000000E+00  0.32213746470E+03  0.32213746471E+03  0.25500000000E-02 0.  1.
          2   -1    0    0  501    0  0.00000000000E+00 -0.00000000000E+00 -0.48911458057E+04  0.48911458057E+04  0.25500000000E-02 0. -1.
    8880022    1    1    2    0    0 -0.10785169125E+04  0.21987151947E+03 -0.34965902593E+04  0.36689340836E+04  0.15294330000E+03 0.  0.
    8880022    1    1    2    0    0  0.10785169125E+04 -0.21987151947E+03 -0.10724180817E+04  0.15443491868E+04  0.15294330000E+03 0.  0.
<mgrwt>
<rscale>  0 0.11112758E+04</rscale>
<asrwt>0</asrwt>
<pdfrwt beam="1">  1        2 0.75248391E+00 0.11112758E+04</pdfrwt>
<pdfrwt beam="2">  1       -2 0.49559614E-01 0.11112758E+04</pdfrwt>
<totfact> 0.19286040E-01</totfact>
</mgrwt>
</event>
<event>
 4    1  0.2202466E-008  0.1036250E+04  0.7818608E-02  0.9269656E-01
         -2   -1    0    0    0  501 -0.00000000000E+00  0.00000000000E+00  0.11174200766E+04  0.11174200766E+04  0.25500000000E-02 0.  1.
          2   -1    0    0  501    0  0.00000000000E+00 -0.00000000000E+00 -0.15561227422E+04  0.15561227422E+04  0.25500000000E-02 0. -1.
    8880022    1    1    2    0    0 -0.97443237158E+03  0.31765488611E+03  0.60734683652E+03  0.12011181900E+04  0.15294330000E+03 0.  0.
    8880022    1    1    2    0    0  0.97443237158E+03 -0.31765488611E+03 -0.10460495022E+04  0.14724246288E+04  0.15294330000E+03 0.  0.
<mgrwt>
<rscale>  0 0.10362503E+04</rscale>
<asrwt>0</asrwt>
<pdfrwt beam="1">  1        2 0.23940350E+00 0.10362503E+04</pdfrwt>
<pdfrwt beam="2">  1       -2 0.17191078E+00 0.10362503E+04</pdfrwt>
<totfact> 0.24102173E+00</totfact>
</mgrwt>
</event>
<event>
 4    1  0.2202466E-008  0.6224848E+03  0.7818608E-02  0.9859825E-01
          2   -1    0    0  501    0  0.00000000000E+00  0.00000000000E+00  0.21014410839E+04  0.21014410839E+04  0.25500000000E-02 0. -1.
         -2   -1    0    0    0  501 -0.00000000000E+00 -0.00000000000E+00 -0.30321778422E+03  0.30321778423E+03  0.25500000000E-02 0.  1.
    8880022    1    1    2    0    0 -0.60153119320E+03 -0.47496928297E+02  0.16517785632E+04  0.17651798235E+04  0.15294330000E+03 0.  0.
    8880022    1    1    2    0    0  0.60153119320E+03  0.47496928297E+02  0.14644473646E+03  0.63947904457E+03  0.15294330000E+03 0.  0.
<mgrwt>
<rscale>  0 0.62248485E+03</rscale>
<asrwt>0</asrwt>
<pdfrwt beam="1">  1        2 0.32329863E+00 0.62248485E+03</pdfrwt>
<pdfrwt beam="2">  1       -2 0.46648890E-01 0.62248485E+03</pdfrwt>
<totfact> 0.26958444E+01</totfact>
</mgrwt>
</event>
<event>
 4    1  0.2202466E-008  0.6064509E+03  0.7818608E-02  0.9892112E-01
          2   -1    0    0  501    0  0.00000000000E+00  0.00000000000E+00  0.14942725635E+04  0.14942725635E+04  0.25500000000E-02 0. -1.
         -2   -1    0    0    0  501 -0.00000000000E+00 -0.00000000000E+00 -0.30230334169E+03  0.30230334170E+03  0.25500000000E-02 0.  1.
    8880022    1    1    2    0    0  0.55549714995E+03  0.18924570231E+03  0.98321197899E+03  0.11552006181E+04  0.15294330000E+03 0.  0.
    8880022    1    1    2    0    0 -0.55549714995E+03 -0.18924570231E+03  0.20875724282E+03  0.64137528709E+03  0.15294330000E+03 0.  1.
<mgrwt>
<rscale>  0 0.60645088E+03</rscale>
<asrwt>0</asrwt>
<pdfrwt beam="1">  1        2 0.22988809E+00 0.60645088E+03</pdfrwt>
<pdfrwt beam="2">  1       -2 0.46508206E-01 0.60645088E+03</pdfrwt>
<totfact> 0.58170572E+01</totfact>
</mgrwt>
</event>
<event>
 4    1  0.2202466E-008  0.8221995E+03  0.7818608E-02  0.9528429E-01
         -2   -1    0    0    0  501 -0.00000000000E+00  0.00000000000E+00  0.10494092973E+04  0.10494092973E+04  0.25500000000E-02 0.  1.
          2   -1    0    0  501    0  0.00000000000E+00 -0.00000000000E+00 -0.98298881431E+03  0.98298881432E+03  0.25500000000E-02 0. -1.
    8880022    1    1    2    0    0  0.79530234207E+03 -0.14182575687E+03  0.62980535483E+03  0.10356962869E+04  0.15294330000E+03 0.  0.
    8880022    1    1    2    0    0 -0.79530234207E+03  0.14182575687E+03 -0.56338487186E+03  0.99670182475E+03  0.15294330000E+03 0. -1.
<mgrwt>
<rscale>  0 0.82219950E+03</rscale>
<asrwt>0</asrwt>
<pdfrwt beam="1">  1        2 0.15122905E+00 0.82219950E+03</pdfrwt>
<pdfrwt beam="2">  1       -2 0.16144758E+00 0.82219950E+03</pdfrwt>
<totfact> 0.64135710E+00</totfact>
</mgrwt>
</event>
<event>
 4    1  0.2202466E-008  0.8206054E+03  0.7818608E-02  0.9530661E-01
         -2   -1    0    0    0  501 -0.00000000000E+00  0.00000000000E+00  0.79593502070E+03  0.79593502070E+03  0.25500000000E-02 0.  1.
          2   -1    0    0  501    0  0.00000000000E+00 -0.00000000000E+00 -0.12117670427E+04  0.12117670427E+04  0.25500000000E-02 0. -1.
    8880022    1    1    2    0    0  0.55055690736E+03  0.58897260046E+03 -0.75940637039E+03  0.11180748279E+04  0.15294330000E+03 0.  0.
    8880022    1    1    2    0    0 -0.55055690736E+03 -0.58897260046E+03  0.34357434838E+03  0.88962723554E+03  0.15294330000E+03 0.  0.
<mgrwt>
<rscale>  0 0.82060544E+03</rscale>
<asrwt>0</asrwt>
<pdfrwt beam="1">  1        2 0.18642570E+00 0.82060544E+03</pdfrwt>
<pdfrwt beam="2">  1       -2 0.12245154E+00 0.82060544E+03</pdfrwt>
<totfact> 0.95161947E+00</totfact>
</mgrwt>
</event>
<event>
 4    1  0.2202466E-008  0.7495024E+03  0.7818608E-02  0.9636131E-01
         -2   -1    0    0    0  501 -0.00000000000E+00  0.00000000000E+00  0.91739824157E+03  0.91739824157E+03  0.25500000000E-02 0.  1.
          2   -1    0    0  501    0  0.00000000000E+00 -0.00000000000E+00 -0.19162909405E+04  0.19162909405E+04  0.25500000000E-02 0. -1.
    8880022    1    1    2    0    0  0.61687842807E+03 -0.39726970306E+03 -0.16682005034E+04  0.18288375501E+04  0.15294330000E+03 0.  0.
    8880022    1    1    2    0    0 -0.61687842807E+03  0.39726970306E+03  0.66930780453E+03  0.10048516319E+04  0.15294330000E+03 0.  0.
<mgrwt>
<rscale>  0 0.74950241E+03</rscale>
<asrwt>0</asrwt>
<pdfrwt beam="1">  1        2 0.29481399E+00 0.74950241E+03</pdfrwt>
<pdfrwt beam="2">  1       -2 0.14113819E+00 0.74950241E+03</pdfrwt>
<totfact> 0.27078030E+00</totfact>
</mgrwt>
</event>
<event>
 4    1  0.2202466E-008  0.4597580E+03  0.7818608E-02  0.1024851E+00
          2   -1    0    0  501    0  0.00000000000E+00  0.00000000000E+00  0.40588483517E+03  0.40588483518E+03  0.25500000000E-02 0. -1.
         -2   -1    0    0    0  501 -0.00000000000E+00 -0.00000000000E+00 -0.10299226897E+04  0.10299226897E+04  0.25500000000E-02 0.  1.
    8880022    1    1    2    0    0  0.13912383764E+03 -0.41064618967E+03 -0.81677662886E+03  0.93728408168E+03  0.15294330000E+03 0.  0.
    8880022    1    1    2    0    0 -0.13912383764E+03  0.41064618967E+03  0.19273877432E+03  0.49852344321E+03  0.15294330000E+03 0.  0.
<mgrwt>
<rscale>  0 0.45975797E+03</rscale>
<asrwt>0</asrwt>
<pdfrwt beam="1">  1        2 0.62443821E-01 0.45975797E+03</pdfrwt>
<pdfrwt beam="2">  1       -2 0.15844964E+00 0.45975797E+03</pdfrwt>
<totfact> 0.21139671E+01</totfact>
</mgrwt>
</event>
<event>
 4    1  0.2202466E-008  0.3536989E+03  0.7818608E-02  0.1061107E+00
          2   -1    0    0  501    0  0.00000000000E+00  0.00000000000E+00  0.16283110811E+04  0.16283110811E+04  0.25500000000E-02 0. -1.
         -2   -1    0    0    0  501 -0.00000000000E+00 -0.00000000000E+00 -0.35403212897E+03  0.35403212898E+03  0.25500000000E-02 0.  1.
    8880022    1    1    2    0    0 -0.11100392168E+03  0.29898055014E+03 -0.23991367512E+03  0.42738912541E+03  0.15294330000E+03 0.  0.
    8880022    1    1    2    0    0  0.11100392168E+03 -0.29898055014E+03  0.15141926273E+04  0.15549540847E+04  0.15294330000E+03 0.  0.
<mgrwt>
<rscale>  0 0.35369887E+03</rscale>
<asrwt>0</asrwt>
<pdfrwt beam="1">  1        2 0.25050940E+00 0.35369887E+03</pdfrwt>
<pdfrwt beam="2">  1       -2 0.54466481E-01 0.35369887E+03</pdfrwt>
<totfact> 0.37349409E+01</totfact>
</mgrwt>
</event>
<event>
 4    1  0.2843909E-008  0.9167661E+03  0.7818608E-02  0.9404862E-01
         -2   -1    0    0    0  501 -0.00000000000E+00  0.00000000000E+00  0.16948894828E+04  0.16948894828E+04  0.25500000000E-02 0.  1.
          2   -1    0    0  501    0  0.00000000000E+00 -0.00000000000E+00 -0.22525666300E+04  0.22525666300E+04  0.25500000000E-02 0. -1.
    8880022    1    1    2    0    0 -0.64790692168E+03 -0.63030550393E+03 -0.20218320681E+04  0.22199695881E+04  0.15294330000E+03 0.  0.
    8880022    1    1    2    0    0  0.64790692168E+03  0.63030550393E+03  0.14641549209E+04  0.17274865247E+04  0.15294330000E+03 0.  1.
<mgrwt>
<rscale>  0 0.91676609E+03</rscale>
<asrwt>0</asrwt>
<pdfrwt beam="1">  1        2 0.34654871E+00 0.91676609E+03</pdfrwt>
<pdfrwt beam="2">  1       -2 0.26075223E+00 0.91676609E+03</pdfrwt>
<totfact> 0.27280932E-01</totfact>
</mgrwt>
</event>
<event>
 4    1  0.2202466E-008  0.7133024E+03  0.7818608E-02  0.9694750E-01
          2   -1    0    0  501    0  0.00000000000E+00  0.00000000000E+00  0.12905528417E+04  0.12905528417E+04  0.25500000000E-02 0. -1.
         -2   -1    0    0    0  501 -0.00000000000E+00 -0.00000000000E+00 -0.62222025235E+03  0.62222025235E+03  0.25500000000E-02 0.  1.
    8880022    1    1    2    0    0 -0.53441305458E+03 -0.44700262259E+03 -0.24472975486E+03  0.75411734063E+03  0.15294330000E+03 0.  0.
    8880022    1    1    2    0    0  0.53441305458E+03  0.44700262259E+03  0.91306234417E+03  0.11586557534E+04  0.15294330000E+03 0.  0.
<mgrwt>
<rscale>  0 0.71330240E+03</rscale>
<asrwt>0</asrwt>
<pdfrwt beam="1">  1        2 0.19854659E+00 0.71330240E+03</pdfrwt>
<pdfrwt beam="2">  1       -2 0.95726192E-01 0.71330240E+03</pdfrwt>
<totfact> 0.15716548E+01</totfact>
</mgrwt>
</event>
<event>
 4    1  0.2202466E-008  0.5904492E+03  0.7818608E-02  0.9925421E-01
         -2   -1    0    0    0  501 -0.00000000000E+00  0.00000000000E+00  0.62147875121E+03  0.62147875122E+03  0.25500000000E-02 0.  1.
          2   -1    0    0  501    0  0.00000000000E+00 -0.00000000000E+00 -0.15077850655E+04  0.15077850655E+04  0.25500000000E-02 0. -1.
    8880022    1    1    2    0    0 -0.13863718182E+03  0.55318923050E+03  0.40049739265E+03  0.71346226772E+03  0.15294330000E+03 0.  0.
    8880022    1    1    2    0    0  0.13863718182E+03 -0.55318923050E+03 -0.12868037069E+04  0.14158015490E+04  0.15294330000E+03 0. -1.
<mgrwt>
<rscale>  0 0.59044919E+03</rscale>
<asrwt>0</asrwt>
<pdfrwt beam="1">  1        2 0.23196693E+00 0.59044919E+03</pdfrwt>
<pdfrwt beam="2">  1       -2 0.95612116E-01 0.59044919E+03</pdfrwt>
<totfact> 0.12107163E+01</totfact>
</mgrwt>
</event>
<event>
 4    1  0.2202466E-008  0.6613288E+03  0.7818608E-02  0.9785751E-01
         -2   -1    0    0    0  501 -0.00000000000E+00  0.00000000000E+00  0.18571503606E+03  0.18571503607E+03  0.25500000000E-02 0.  1.
          2   -1    0    0  501    0  0.00000000000E+00 -0.00000000000E+00 -0.42401294479E+04  0.42401294479E+04  0.25500000000E-02 0. -1.
    8880022    1    1    2    0    0  0.41201872502E+03 -0.49417071398E+03 -0.55167352264E+03  0.86121974718E+03  0.15294330000E+03 0.  0.
    8880022    1    1    2    0    0 -0.41201872502E+03  0.49417071398E+03 -0.35027408892E+04  0.35646247368E+04  0.15294330000E+03 0.  0.
<mgrwt>
<rscale>  0 0.66132880E+03</rscale>
<asrwt>0</asrwt>
<pdfrwt beam="1">  1        2 0.65232753E+00 0.66132880E+03</pdfrwt>
<pdfrwt beam="2">  1       -2 0.28571547E-01 0.66132880E+03</pdfrwt>
<totfact> 0.27555668E+00</totfact>
</mgrwt>
</event>
<event>
 4    1  0.2202466E-008  0.7622180E+03  0.7818608E-02  0.9616375E-01
         -2   -1    0    0    0  501 -0.00000000000E+00  0.00000000000E+00  0.69779013666E+03  0.69779013667E+03  0.25500000000E-02 0.  1.
          2   -1    0    0  501    0  0.00000000000E+00 -0.00000000000E+00 -0.18441955877E+04  0.18441955877E+04  0.25500000000E-02 0. -1.
    8880022    1    1    2    0    0 -0.74636608446E+03  0.22852241875E+02  0.36813241675E+03  0.84646186345E+03  0.15294330000E+03 0.  0.
    8880022    1    1    2    0    0  0.74636608446E+03 -0.22852241875E+02 -0.15145378678E+04  0.16955238609E+04  0.15294330000E+03 0.  0.
<mgrwt>
<rscale>  0 0.76221795E+03</rscale>
<asrwt>0</asrwt>
<pdfrwt beam="1">  1        2 0.28372240E+00 0.76221795E+03</pdfrwt>
<pdfrwt beam="2">  1       -2 0.10735233E+00 0.76221795E+03</pdfrwt>
<totfact> 0.58553949E+00</totfact>
</mgrwt>
</event>
<event>
 4    1  0.2202466E-008  0.5740085E+03  0.7818608E-02  0.9960847E-01
         -2   -1    0    0    0  501 -0.00000000000E+00  0.00000000000E+00  0.20006441028E+03  0.20006441030E+03  0.25500000000E-02 0.  1.
          2   -1    0    0  501    0  0.00000000000E+00 -0.00000000000E+00 -0.41717699886E+04  0.41717699886E+04  0.25500000000E-02 0. -1.
    8880022    1    1    2    0    0  0.54706718458E+03 -0.82532216169E+02 -0.28528796552E+03  0.64099527879E+03  0.15294330000E+03 0.  0.
    8880022    1    1    2    0    0 -0.54706718458E+03  0.82532216169E+02 -0.36864176128E+04  0.37308391201E+04  0.15294330000E+03 0. -1.
<mgrwt>
<rscale>  0 0.57400847E+03</rscale>
<asrwt>0</asrwt>
<pdfrwt beam="1">  1        2 0.64181070E+00 0.57400847E+03</pdfrwt>
<pdfrwt beam="2">  1       -2 0.30779143E-01 0.57400847E+03</pdfrwt>
<totfact> 0.28128385E+00</totfact>
</mgrwt>
</event>
<event>
 4    1  0.2202466E-008  0.1643633E+03  0.7818608E-02  0.1183857E+00
         -2   -1    0    0    0  501 -0.00000000000E+00  0.00000000000E+00  0.30781755481E+02  0.30781755586E+02  0.25500000000E-02 0.  1.
          2   -1    0    0  501    0  0.00000000000E+00 -0.00000000000E+00 -0.11433028020E+04  0.11433028020E+04  0.25500000000E-02 0. -1.
    8880022    1    1    2    0    0 -0.45289528444E+02  0.39654946293E+02 -0.83923930689E+03  0.85518297656E+03  0.15294330000E+03 0.  0.
    8880022    1    1    2    0    0  0.45289528444E+02 -0.39654946293E+02 -0.27328173961E+03  0.31890158101E+03  0.15294330000E+03 0.  0.
<mgrwt>
<rscale>  0 0.16436334E+03</rscale>
<asrwt>0</asrwt>
<pdfrwt beam="1">  1        2 0.17589271E+00 0.16436334E+03</pdfrwt>
<pdfrwt beam="2">  1       -2 0.47356556E-02 0.16436334E+03</pdfrwt>
<totfact> 0.45222276E+03</totfact>
</mgrwt>
</event>
<event>
 4    1  0.2202466E-008  0.3724635E+03  0.7818608E-02  0.1053755E+00
          2   -1    0    0  501    0  0.00000000000E+00  0.00000000000E+00  0.14110768973E+04  0.14110768973E+04  0.25500000000E-02 0. -1.
         -2   -1    0    0    0  501 -0.00000000000E+00 -0.00000000000E+00 -0.26162029562E+03  0.26162029564E+03  0.25500000000E-02 0.  1.
    8880022    1    1    2    0    0  0.32013656883E+03 -0.11335788755E+03  0.12355018277E+04  0.12904239042E+04  0.15294330000E+03 0.  0.
    8880022    1    1    2    0    0 -0.32013656883E+03  0.11335788755E+03 -0.86045225963E+02  0.38227328876E+03  0.15294330000E+03 0.  0.
<mgrwt>
<rscale>  0 0.37246354E+03</rscale>
<asrwt>0</asrwt>
<pdfrwt beam="1">  1        2 0.21708875E+00 0.37246354E+03</pdfrwt>
<pdfrwt beam="2">  1       -2 0.40249278E-01 0.37246354E+03</pdfrwt>
<totfact> 0.88975133E+01</totfact>
</mgrwt>
</event>
<event>
 4    1  0.2202466E-008  0.7182631E+03  0.7818608E-02  0.9686500E-01
         -2   -1    0    0    0  501 -0.00000000000E+00  0.00000000000E+00  0.12659301171E+04  0.12659301171E+04  0.25500000000E-02 0.  1.
          2   -1    0    0  501    0  0.00000000000E+00 -0.00000000000E+00 -0.21007657015E+04  0.21007657015E+04  0.25500000000E-02 0. -1.
    8880022    1    1    2    0    0 -0.58714754231E+03 -0.38440598471E+03  0.10938591342E+04  0.13085983555E+04  0.15294330000E+03 0.  0.
    8880022    1    1    2    0    0  0.58714754231E+03  0.38440598471E+03 -0.19286947186E+04  0.20580974632E+04  0.15294330000E+03 0. -1.
<mgrwt>
<rscale>  0 0.71826308E+03</rscale>
<asrwt>0</asrwt>
<pdfrwt beam="1">  1        2 0.32319472E+00 0.71826308E+03</pdfrwt>
<pdfrwt beam="2">  1       -2 0.19475848E+00 0.71826308E+03</pdfrwt>
<totfact> 0.89020673E-01</totfact>
</mgrwt>
</event>
<event>
 4    1  0.2202466E-008  0.8301093E+03  0.7818608E-02  0.9517429E-01
          2   -1    0    0  501    0  0.00000000000E+00  0.00000000000E+00  0.12036173489E+04  0.12036173489E+04  0.25500000000E-02 0. -1.
         -2   -1    0    0    0  501 -0.00000000000E+00 -0.00000000000E+00 -0.12506754669E+04  0.12506754669E+04  0.25500000000E-02 0.  1.
    8880022    1    1    2    0    0 -0.81539313908E+03 -0.28701040738E+02  0.88010444477E+03  0.12098203204E+04  0.15294330000E+03 0.  0.
    8880022    1    1    2    0    0  0.81539313908E+03  0.28701040738E+02 -0.92716256281E+03  0.12444724954E+04  0.15294330000E+03 0.  0.
<mgrwt>
<rscale>  0 0.83010925E+03</rscale>
<asrwt>0</asrwt>
<pdfrwt beam="1">  1        2 0.18517190E+00 0.83010925E+03</pdfrwt>
<pdfrwt beam="2">  1       -2 0.19241161E+00 0.83010925E+03</pdfrwt>
<totfact> 0.28532876E+00</totfact>
</mgrwt>
</event>
<event>
 4    1  0.2202466E-008  0.5157577E+03  0.7818608E-02  0.1009746E+00
         -2   -1    0    0    0  501 -0.00000000000E+00  0.00000000000E+00  0.49911995592E+03  0.49911995592E+03  0.25500000000E-02 0.  1.
          2   -1    0    0  501    0  0.00000000000E+00 -0.00000000000E+00 -0.15479042083E+04  0.15479042083E+04  0.25500000000E-02 0. -1.
    8880022    1    1    2    0    0  0.47659490510E+03 -0.12438487969E+03 -0.13531814891E+04  0.14481388391E+04  0.15294330000E+03 0.  0.
    8880022    1    1    2    0    0 -0.47659490510E+03  0.12438487969E+03  0.30439723675E+03  0.59888532509E+03  0.15294330000E+03 0.  0.
<mgrwt>
<rscale>  0 0.51575765E+03</rscale>
<asrwt>0</asrwt>
<pdfrwt beam="1">  1        2 0.23813911E+00 0.51575765E+03</pdfrwt>
<pdfrwt beam="2">  1       -2 0.76787686E-01 0.51575765E+03</pdfrwt>
<totfact> 0.19193602E+01</totfact>
</mgrwt>
</event>
<event>
 4    1  0.2202466E-008  0.1894658E+04  0.7818608E-02  0.8657520E-01
         -2   -1    0    0    0  501 -0.00000000000E+00  0.00000000000E+00  0.35800614339E+04  0.35800614339E+04  0.25500000000E-02 0.  1.
          2   -1    0    0  501    0  0.00000000000E+00 -0.00000000000E+00 -0.29122597946E+04  0.29122597946E+04  0.25500000000E-02 0. -1.
    8880022    1    1    2    0    0  0.18851110090E+04  0.11266735627E+03  0.29624828230E+04  0.35165371574E+04  0.15294330000E+03 0.  0.
    8880022    1    1    2    0    0 -0.18851110090E+04 -0.11266735627E+03 -0.22946811838E+04  0.29757840711E+04  0.15294330000E+03 0.  0.
<mgrwt>
<rscale>  0 0.18946580E+04</rscale>
<asrwt>0</asrwt>
<pdfrwt beam="1">  1        2 0.44803997E+00 0.18946580E+04</pdfrwt>
<pdfrwt beam="2">  1       -2 0.55077868E+00 0.18946580E+04</pdfrwt>
<totfact> 0.14542949E-03</totfact>
</mgrwt>
</event>
<event>
 4    1  0.2202466E-008  0.8586108E+03  0.7818608E-02  0.9478852E-01
          2   -1    0    0  501    0  0.00000000000E+00  0.00000000000E+00  0.69720411107E+03  0.69720411107E+03  0.25500000000E-02 0. -1.
         -2   -1    0    0    0  501 -0.00000000000E+00 -0.00000000000E+00 -0.11360901419E+04  0.11360901419E+04  0.25500000000E-02 0.  1.
    8880022    1    1    2    0    0 -0.42961255338E+03 -0.72749836017E+03  0.21825211239E+02  0.85888812014E+03  0.15294330000E+03 0.  0.
    8880022    1    1    2    0    0  0.42961255338E+03  0.72749836017E+03 -0.46071124202E+03  0.97440613278E+03  0.15294330000E+03 0.  0.
<mgrwt>
<rscale>  0 0.85861078E+03</rscale>
<asrwt>0</asrwt>
<pdfrwt beam="1">  1        2 0.10726217E+00 0.85861078E+03</pdfrwt>
<pdfrwt beam="2">  1       -2 0.17478310E+00 0.85861078E+03</pdfrwt>
<totfact> 0.81658646E+00</totfact>
</mgrwt>
</event>
<event>
 4    1  0.2202466E-008  0.3719713E+03  0.7818608E-02  0.1053942E+00
         -2   -1    0    0    0  501 -0.00000000000E+00  0.00000000000E+00  0.35372659405E+03  0.35372659406E+03  0.25500000000E-02 0.  1.
          2   -1    0    0  501    0  0.00000000000E+00 -0.00000000000E+00 -0.93675124722E+03  0.93675124722E+03  0.25500000000E-02 0. -1.
    8880022    1    1    2    0    0  0.22154504666E+03  0.25668807008E+03  0.20091632660E+03  0.42276470563E+03  0.15294330000E+03 0.  0.
    8880022    1    1    2    0    0 -0.22154504666E+03 -0.25668807008E+03 -0.78394097976E+03  0.86771313565E+03  0.15294330000E+03 0.  0.
<mgrwt>
<rscale>  0 0.37197127E+03</rscale>
<asrwt>0</asrwt>
<pdfrwt beam="1">  1        2 0.14411558E+00 0.37197127E+03</pdfrwt>
<pdfrwt beam="2">  1       -2 0.54419476E-01 0.37197127E+03</pdfrwt>
<totfact> 0.92709999E+01</totfact>
</mgrwt>
</event>
<event>
 4    1  0.2202466E-008  0.1078577E+04  0.7818608E-02  0.9226328E-01
         -2   -1    0    0    0  501 -0.00000000000E+00  0.00000000000E+00  0.13777111569E+04  0.13777111569E+04  0.25500000000E-02 0.  1.
          2   -1    0    0  501    0  0.00000000000E+00 -0.00000000000E+00 -0.14482453446E+04  0.14482453446E+04  0.25500000000E-02 0. -1.
    8880022    1    1    2    0    0  0.76400913998E+03 -0.74580573878E+03 -0.94765656438E+03  0.14357509474E+04  0.15294330000E+03 0.  0.
    8880022    1    1    2    0    0 -0.76400913998E+03  0.74580573878E+03  0.87712237670E+03  0.13902055541E+04  0.15294330000E+03 0.  0.
<mgrwt>
<rscale>  0 0.10785768E+04</rscale>
<asrwt>0</asrwt>
<pdfrwt beam="1">  1        2 0.22280698E+00 0.10785768E+04</pdfrwt>
<pdfrwt beam="2">  1       -2 0.21195556E+00 0.10785768E+04</pdfrwt>
<totfact> 0.14866966E+00</totfact>
</mgrwt>
</event>
<event>
 4    1  0.2202466E-008  0.2564311E+04  0.7818608E-02  0.8380426E-01
         -2   -1    0    0    0  501 -0.00000000000E+00  0.00000000000E+00  0.25910293619E+04  0.25910293619E+04  0.25500000000E-02 0.  1.
          2   -1    0    0  501    0  0.00000000000E+00 -0.00000000000E+00 -0.33537646707E+04  0.33537646707E+04  0.25500000000E-02 0. -1.
    8880022    1    1    2    0    0 -0.10641697054E+04  0.23280554261E+04 -0.18474489927E+04  0.31604997489E+04  0.15294330000E+03 0.  0.
    8880022    1    1    2    0    0  0.10641697054E+04 -0.23280554261E+04  0.10847136840E+04  0.27842942837E+04  0.15294330000E+03 0.  0.
<mgrwt>
<rscale>  0 0.25643110E+04</rscale>
<asrwt>0</asrwt>
<pdfrwt beam="1">  1        2 0.51596380E+00 0.25643110E+04</pdfrwt>
<pdfrwt beam="2">  1       -2 0.39861990E+00 0.25643110E+04</pdfrwt>
<totfact> 0.64239073E-03</totfact>
</mgrwt>
</event>
<event>
 4    1  0.2202466E-008  0.1171465E+04  0.7818608E-02  0.9138206E-01
         -2   -1    0    0    0  501 -0.00000000000E+00  0.00000000000E+00  0.72981983528E+03  0.72981983528E+03  0.25500000000E-02 0.  1.
          2   -1    0    0  501    0  0.00000000000E+00 -0.00000000000E+00 -0.20253150335E+04  0.20253150335E+04  0.25500000000E-02 0. -1.
    8880022    1    1    2    0    0  0.11613729702E+04 -0.12311236175E+02 -0.27921988872E+03  0.12042815874E+04  0.15294330000E+03 0.  0.
    8880022    1    1    2    0    0 -0.11613729702E+04  0.12311236175E+02 -0.10162753095E+04  0.15508532813E+04  0.15294330000E+03 0.  0.
<mgrwt>
<rscale>  0 0.11714651E+04</rscale>
<asrwt>0</asrwt>
<pdfrwt beam="1">  1        2 0.31158693E+00 0.11714651E+04</pdfrwt>
<pdfrwt beam="2">  1       -2 0.11227998E+00 0.11714651E+04</pdfrwt>
<totfact> 0.39636363E+00</totfact>
</mgrwt>
</event>
<event>
 4    1  0.2202466E-008  0.2642792E+03  0.7818608E-02  0.1104599E+00
         -2   -1    0    0    0  501 -0.00000000000E+00  0.00000000000E+00  0.32119886153E+03  0.32119886154E+03  0.25500000000E-02 0.  1.
          2   -1    0    0  501    0  0.00000000000E+00 -0.00000000000E+00 -0.92663237836E+03  0.92663237837E+03  0.25500000000E-02 0. -1.
    8880022    1    1    2    0    0 -0.34099321009E+02 -0.21281228172E+03 -0.84854027456E+03  0.88874297832E+03  0.15294330000E+03 0. -1.
    8880022    1    1    2    0    0  0.34099321009E+02  0.21281228172E+03  0.24310675772E+03  0.35908826159E+03  0.15294330000E+03 0.  0.
<mgrwt>
<rscale>  0 0.26427918E+03</rscale>
<asrwt>0</asrwt>
<pdfrwt beam="1">  1        2 0.14255883E+00 0.26427918E+03</pdfrwt>
<pdfrwt beam="2">  1       -2 0.49415210E-01 0.26427918E+03</pdfrwt>
<totfact> 0.11640061E+02</totfact>
</mgrwt>
</event>
<event>
 4    1  0.2202466E-008  0.2812040E+03  0.7818608E-02  0.1095033E+00
          2   -1    0    0  501    0  0.00000000000E+00  0.00000000000E+00  0.24579521574E+04  0.24579521574E+04  0.25500000000E-02 0. -1.
         -2   -1    0    0    0  501 -0.00000000000E+00 -0.00000000000E+00 -0.46242786911E+03  0.46242786912E+03  0.25500000000E-02 0.  1.
    8880022    1    1    2    0    0 -0.47464187939E+02 -0.23115189093E+03  0.24062434636E+04  0.24226191003E+04  0.15294330000E+03 0.  0.
    8880022    1    1    2    0    0  0.47464187939E+02  0.23115189093E+03 -0.41071917526E+03  0.49776092631E+03  0.15294330000E+03 0.  0.
<mgrwt>
<rscale>  0 0.28120402E+03</rscale>
<asrwt>0</asrwt>
<pdfrwt beam="1">  1        2 0.37814649E+00 0.28120402E+03</pdfrwt>
<pdfrwt beam="2">  1       -2 0.71142749E-01 0.28120402E+03</pdfrwt>
<totfact> 0.78864260E+00</totfact>
</mgrwt>
</event>
<event>
 4    1  0.2202466E-008  0.7102782E+03  0.7818608E-02  0.9699815E-01
         -2   -1    0    0    0  501 -0.00000000000E+00  0.00000000000E+00  0.99417294633E+03  0.99417294633E+03  0.25500000000E-02 0.  1.
          2   -1    0    0  501    0  0.00000000000E+00 -0.00000000000E+00 -0.94609911889E+03  0.94609911890E+03  0.25500000000E-02 0. -1.
    8880022    1    1    2    0    0 -0.55950614900E+03 -0.40994677506E+03  0.68461157545E+03  0.98650299108E+03  0.15294330000E+03 0.  1.
    8880022    1    1    2    0    0  0.55950614900E+03  0.40994677506E+03 -0.63653774801E+03  0.95376907415E+03  0.15294330000E+03 0.  0.
<mgrwt>
<rscale>  0 0.71027821E+03</rscale>
<asrwt>0</asrwt>
<pdfrwt beam="1">  1        2 0.14555371E+00 0.71027821E+03</pdfrwt>
<pdfrwt beam="2">  1       -2 0.15294968E+00 0.71027821E+03</pdfrwt>
<totfact> 0.79493165E+00</totfact>
</mgrwt>
</event>
<event>
 4    1  0.2202466E-008  0.3886166E+03  0.7818608E-02  0.1047794E+00
         -2   -1    0    0    0  501 -0.00000000000E+00  0.00000000000E+00  0.26559987897E+03  0.26559987898E+03  0.25500000000E-02 0.  1.
          2   -1    0    0  501    0  0.00000000000E+00 -0.00000000000E+00 -0.16709418075E+04  0.16709418075E+04  0.25500000000E-02 0. -1.
    8880022    1    1    2    0    0  0.35703532345E+03 -0.12528344669E+02 -0.14891231006E+04  0.15389965703E+04  0.15294330000E+03 0.  0.
    8880022    1    1    2    0    0 -0.35703532345E+03  0.12528344669E+02  0.83781172054E+02  0.39754511621E+03  0.15294330000E+03 0.  0.
<mgrwt>
<rscale>  0 0.38861657E+03</rscale>
<asrwt>0</asrwt>
<pdfrwt beam="1">  1        2 0.25706796E+00 0.38861657E+03</pdfrwt>
<pdfrwt beam="2">  1       -2 0.40861521E-01 0.38861657E+03</pdfrwt>
<totfact> 0.62298146E+01</totfact>
</mgrwt>
</event>
<event>
 4    1  0.2202466E-008  0.1797979E+04  0.7818608E-02  0.8707375E-01
          2   -1    0    0  501    0  0.00000000000E+00  0.00000000000E+00  0.18515488773E+04  0.18515488774E+04  0.25500000000E-02 0. -1.
         -2   -1    0    0    0  501 -0.00000000000E+00 -0.00000000000E+00 -0.21488587972E+04  0.21488587972E+04  0.25500000000E-02 0.  1.
    8880022    1    1    2    0    0 -0.11657697267E+04  0.13602633319E+04 -0.10147573646E+04  0.20645724860E+04  0.15294330000E+03 0.  0.
    8880022    1    1    2    0    0  0.11657697267E+04 -0.13602633319E+04  0.71744744479E+03  0.19358351885E+04  0.15294330000E+03 0.  0.
<mgrwt>
<rscale>  0 0.17979786E+04</rscale>
<asrwt>0</asrwt>
<pdfrwt beam="1">  1        2 0.28485367E+00 0.17979786E+04</pdfrwt>
<pdfrwt beam="2">  1       -2 0.33059366E+00 0.17979786E+04</pdfrwt>
<totfact> 0.15109844E-01</totfact>
</mgrwt>
</event>
<event>
 4    1  0.2202466E-008  0.1204830E+04  0.7818608E-02  0.9108639E-01
         -2   -1    0    0    0  501 -0.00000000000E+00  0.00000000000E+00  0.11437260212E+04  0.11437260212E+04  0.25500000000E-02 0.  1.
          2   -1    0    0  501    0  0.00000000000E+00 -0.00000000000E+00 -0.14880948978E+04  0.14880948978E+04  0.25500000000E-02 0. -1.
    8880022    1    1    2    0    0  0.11361762048E+04 -0.37057792597E+03 -0.67688030879E+03  0.13819489763E+04  0.15294330000E+03 0.  0.
    8880022    1    1    2    0    0 -0.11361762048E+04  0.37057792597E+03  0.33251143214E+03  0.12498719427E+04  0.15294330000E+03 0.  0.
<mgrwt>
<rscale>  0 0.12048303E+04</rscale>
<asrwt>0</asrwt>
<pdfrwt beam="1">  1        2 0.22893768E+00 0.12048303E+04</pdfrwt>
<pdfrwt beam="2">  1       -2 0.17595785E+00 0.12048303E+04</pdfrwt>
<totfact> 0.24195236E+00</totfact>
</mgrwt>
</event>
<event>
 4    1  0.2202466E-008  0.7356031E+03  0.7818608E-02  0.9658211E-01
          2   -1    0    0  501    0  0.00000000000E+00  0.00000000000E+00  0.12948371768E+04  0.12948371768E+04  0.25500000000E-02 0. -1.
         -2   -1    0    0    0  501 -0.00000000000E+00 -0.00000000000E+00 -0.14248619433E+04  0.14248619433E+04  0.25500000000E-02 0.  1.
    8880022    1    1    2    0    0  0.37849768070E+03  0.61193120009E+03  0.10781583201E+04  0.13051962704E+04  0.15294330000E+03 0.  0.
    8880022    1    1    2    0    0 -0.37849768070E+03 -0.61193120009E+03 -0.12081830866E+04  0.14145028497E+04  0.15294330000E+03 0.  0.
<mgrwt>
<rscale>  0 0.73560311E+03</rscale>
<asrwt>0</asrwt>
<pdfrwt beam="1">  1        2 0.19920572E+00 0.73560311E+03</pdfrwt>
<pdfrwt beam="2">  1       -2 0.21920953E+00 0.73560311E+03</pdfrwt>
<totfact> 0.17219648E+00</totfact>
</mgrwt>
</event>
<event>
 4    1  0.2202466E-008  0.6500613E+03  0.7818608E-02  0.9806664E-01
         -2   -1    0    0    0  501 -0.00000000000E+00  0.00000000000E+00  0.17511636736E+03  0.17511636738E+03  0.25500000000E-02 0.  1.
          2   -1    0    0  501    0  0.00000000000E+00 -0.00000000000E+00 -0.26581089440E+04  0.26581089440E+04  0.25500000000E-02 0. -1.
    8880022    1    1    2    0    0 -0.42061452541E+03  0.47145670292E+03 -0.16715508561E+04  0.17935054835E+04  0.15294330000E+03 0.  0.
    8880022    1    1    2    0    0  0.42061452541E+03 -0.47145670292E+03 -0.81144172059E+03  0.10397198280E+04  0.15294330000E+03 0.  1.
<mgrwt>
<rscale>  0 0.65006127E+03</rscale>
<asrwt>0</asrwt>
<pdfrwt beam="1">  1        2 0.40893981E+00 0.65006127E+03</pdfrwt>
<pdfrwt beam="2">  1       -2 0.26940982E-01 0.65006127E+03</pdfrwt>
<totfact> 0.37379773E+01</totfact>
</mgrwt>
</event>
<event>
 4    1  0.2202466E-008  0.1558522E+03  0.7818608E-02  0.1193461E+00
          2   -1    0    0  501    0  0.00000000000E+00  0.00000000000E+00  0.30921756759E+04  0.30921756759E+04  0.25500000000E-02 0. -1.
         -2   -1    0    0    0  501 -0.00000000000E+00 -0.00000000000E+00 -0.19837960356E+03  0.19837960358E+03  0.25500000000E-02 0.  1.
    8880022    1    1    2    0    0  0.21784308336E+02  0.20584170970E+02  0.30592724444E+04  0.30632397566E+04  0.15294330000E+03 0. -1.
    8880022    1    1    2    0    0 -0.21784308336E+02 -0.20584170970E+02 -0.16547637212E+03  0.22731552285E+03  0.15294330000E+03 0.  0.
<mgrwt>
<rscale>  0 0.15585223E+03</rscale>
<asrwt>0</asrwt>
<pdfrwt beam="1">  1        2 0.47571932E+00 0.15585223E+03</pdfrwt>
<pdfrwt beam="2">  1       -2 0.30519940E-01 0.15585223E+03</pdfrwt>
<totfact> 0.19853301E+01</totfact>
</mgrwt>
</event>
<event>
 4    1  0.2202466E-008  0.1283906E+04  0.7818608E-02  0.9042426E-01
         -2   -1    0    0    0  501 -0.00000000000E+00  0.00000000000E+00  0.23098028234E+04  0.23098028234E+04  0.25500000000E-02 0.  1.
          2   -1    0    0  501    0  0.00000000000E+00 -0.00000000000E+00 -0.12301187493E+04  0.12301187493E+04  0.25500000000E-02 0. -1.
    8880022    1    1    2    0    0  0.81696336848E+03  0.97856766119E+03  0.16866947785E+04  0.21197534625E+04  0.15294330000E+03 0.  0.
    8880022    1    1    2    0    0 -0.81696336848E+03 -0.97856766119E+03 -0.60701070440E+03  0.14201681102E+04  0.15294330000E+03 0.  0.
<mgrwt>
<rscale>  0 0.12839063E+04</rscale>
<asrwt>0</asrwt>
<pdfrwt beam="1">  1        2 0.18924904E+00 0.12839063E+04</pdfrwt>
<pdfrwt beam="2">  1       -2 0.35535428E+00 0.12839063E+04</pdfrwt>
<totfact> 0.25380033E-01</totfact>
</mgrwt>
</event>
<event>
 4    1  0.2202466E-008  0.1768043E+04  0.7818608E-02  0.8723481E-01
         -2   -1    0    0    0  501 -0.00000000000E+00  0.00000000000E+00  0.44225694601E+04  0.44225694601E+04  0.25500000000E-02 0.  1.
          2   -1    0    0  501    0  0.00000000000E+00 -0.00000000000E+00 -0.13783677214E+04  0.13783677214E+04  0.25500000000E-02 0. -1.
    8880022    1    1    2    0    0 -0.15474864962E+04 -0.84134917129E+03  0.35466253687E+04  0.39628936452E+04  0.15294330000E+03 0.  0.
    8880022    1    1    2    0    0  0.15474864962E+04  0.84134917129E+03 -0.50242363006E+03  0.18380435363E+04  0.15294330000E+03 0.  0.
<mgrwt>
<rscale>  0 0.17680426E+04</rscale>
<asrwt>0</asrwt>
<pdfrwt beam="1">  1        2 0.21205658E+00 0.17680426E+04</pdfrwt>
<pdfrwt beam="2">  1       -2 0.68039529E+00 0.17680426E+04</pdfrwt>
<totfact> 0.35375155E-03</totfact>
</mgrwt>
</event>
<event>
 4    1  0.2202466E-008  0.6953317E+03  0.7818608E-02  0.9725249E-01
          2   -1    0    0  501    0  0.00000000000E+00  0.00000000000E+00  0.13613839093E+04  0.13613839093E+04  0.25500000000E-02 0. -1.
         -2   -1    0    0    0  501 -0.00000000000E+00 -0.00000000000E+00 -0.50698785588E+03  0.50698785589E+03  0.25500000000E-02 0.  1.
    8880022    1    1    2    0    0 -0.50307562836E+03 -0.45498291141E+03 -0.84053157923E+02  0.70039354930E+03  0.15294330000E+03 0.  0.
    8880022    1    1    2    0    0  0.50307562836E+03  0.45498291141E+03  0.93844921138E+03  0.11679782159E+04  0.15294330000E+03 0.  0.
<mgrwt>
<rscale>  0 0.69533171E+03</rscale>
<asrwt>0</asrwt>
<pdfrwt beam="1">  1        2 0.20944368E+00 0.69533171E+03</pdfrwt>
<pdfrwt beam="2">  1       -2 0.77998131E-01 0.69533171E+03</pdfrwt>
<totfact> 0.22911252E+01</totfact>
</mgrwt>
</event>
<event>
 4    1  0.2202466E-008  0.5656045E+03  0.7818608E-02  0.9979453E-01
          2   -1    0    0  501    0  0.00000000000E+00  0.00000000000E+00  0.14607212263E+04  0.14607212263E+04  0.25500000000E-02 0. -1.
         -2   -1    0    0    0  501 -0.00000000000E+00 -0.00000000000E+00 -0.69311980103E+03  0.69311980103E+03  0.25500000000E-02 0.  1.
    8880022    1    1    2    0    0 -0.52338814692E+03 -0.15027197853E+03  0.12744777248E+04  0.13943464218E+04  0.15294330000E+03 0.  0.
    8880022    1    1    2    0    0  0.52338814692E+03  0.15027197853E+03 -0.50687629952E+03  0.75949460558E+03  0.15294330000E+03 0.  0.
<mgrwt>
<rscale>  0 0.56560452E+03</rscale>
<asrwt>0</asrwt>
<pdfrwt beam="1">  1        2 0.22472634E+00 0.56560452E+03</pdfrwt>
<pdfrwt beam="2">  1       -2 0.10663382E+00 0.56560452E+03</pdfrwt>
<totfact> 0.99735265E+00</totfact>
</mgrwt>
</event>
<event>
 4    1  0.2202466E-008  0.8653004E+03  0.7818608E-02  0.9470028E-01
          2   -1    0    0  501    0  0.00000000000E+00  0.00000000000E+00  0.14022549536E+04  0.14022549536E+04  0.25500000000E-02 0. -1.
         -2   -1    0    0    0  501 -0.00000000000E+00 -0.00000000000E+00 -0.93734790496E+03  0.93734790497E+03  0.25500000000E-02 0.  1.
    8880022    1    1    2    0    0 -0.85125018763E+03  0.26948477665E+02  0.99985820529E+03  0.13222939106E+04  0.15294330000E+03 0.  0.
    8880022    1    1    2    0    0  0.85125018763E+03 -0.26948477665E+02 -0.53495115670E+03  0.10173089479E+04  0.15294330000E+03 0.  0.
<mgrwt>
<rscale>  0 0.86530038E+03</rscale>
<asrwt>0</asrwt>
<pdfrwt beam="1">  1        2 0.21573153E+00 0.86530038E+03</pdfrwt>
<pdfrwt beam="2">  1       -2 0.14420737E+00 0.86530038E+03</pdfrwt>
<totfact> 0.48354906E+00</totfact>
</mgrwt>
</event>
<event>
 4    1  0.2202466E-008  0.5212182E+03  0.7818608E-02  0.1008384E+00
          2   -1    0    0  501    0  0.00000000000E+00  0.00000000000E+00  0.29280808825E+04  0.29280808825E+04  0.25500000000E-02 0. -1.
         -2   -1    0    0    0  501 -0.00000000000E+00 -0.00000000000E+00 -0.25651412255E+03  0.25651412257E+03  0.25500000000E-02 0.  1.
    8880022    1    1    2    0    0  0.15378782175E+03  0.47394733222E+03  0.26079315117E+04  0.26595065690E+04  0.15294330000E+03 0.  0.
    8880022    1    1    2    0    0 -0.15378782175E+03 -0.47394733222E+03  0.63635248224E+02  0.52508843604E+03  0.15294330000E+03 0.  0.
<mgrwt>
<rscale>  0 0.52121821E+03</rscale>
<asrwt>0</asrwt>
<pdfrwt beam="1">  1        2 0.45047400E+00 0.52121821E+03</pdfrwt>
<pdfrwt beam="2">  1       -2 0.39463709E-01 0.52121821E+03</pdfrwt>
<totfact> 0.13033448E+01</totfact>
</mgrwt>
</event>
<event>
 4    1  0.2202466E-008  0.2196071E+03  0.7818608E-02  0.1134176E+00
          2   -1    0    0  501    0  0.00000000000E+00  0.00000000000E+00  0.64113972889E+03  0.64113972890E+03  0.25500000000E-02 0. -1.
         -2   -1    0    0    0  501 -0.00000000000E+00 -0.00000000000E+00 -0.43637200834E+03  0.43637200835E+03  0.25500000000E-02 0.  1.
    8880022    1    1    2    0    0  0.15468213785E+03 -0.30150545710E+02  0.59251003161E+03  0.63189825902E+03  0.15294330000E+03 0.  0.
    8880022    1    1    2    0    0 -0.15468213785E+03  0.30150545710E+02 -0.38774231106E+03  0.44561347823E+03  0.15294330000E+03 0.  0.
<mgrwt>
<rscale>  0 0.21960709E+03</rscale>
<asrwt>0</asrwt>
<pdfrwt beam="1">  1        2 0.98636881E-01 0.21960709E+03</pdfrwt>
<pdfrwt beam="2">  1       -2 0.67134155E-01 0.21960709E+03</pdfrwt>
<totfact> 0.99366787E+01</totfact>
</mgrwt>
</event>
<event>
 4    1  0.2202466E-008  0.1038822E+04  0.7818608E-02  0.9266961E-01
         -2   -1    0    0    0  501 -0.00000000000E+00  0.00000000000E+00  0.12339642162E+04  0.12339642162E+04  0.25500000000E-02 0.  1.
          2   -1    0    0  501    0  0.00000000000E+00 -0.00000000000E+00 -0.18471075076E+04  0.18471075076E+04  0.25500000000E-02 0. -1.
    8880022    1    1    2    0    0 -0.90220197094E+03  0.49172296032E+03  0.81128347844E+03  0.13180790574E+04  0.15294330000E+03 0.  0.
    8880022    1    1    2    0    0  0.90220197094E+03 -0.49172296032E+03 -0.14244267699E+04  0.17629926664E+04  0.15294330000E+03 0.  0.
<mgrwt>
<rscale>  0 0.10388222E+04</rscale>
<asrwt>0</asrwt>
<pdfrwt beam="1">  1        2 0.28417038E+00 0.10388222E+04</pdfrwt>
<pdfrwt beam="2">  1       -2 0.18984065E+00 0.10388222E+04</pdfrwt>
<totfact> 0.12507894E+00</totfact>
</mgrwt>
</event>
<event>
 4    1  0.2202466E-008  0.6897336E+03  0.7818608E-02  0.9734952E-01
         -2   -1    0    0    0  501 -0.00000000000E+00  0.00000000000E+00  0.79375636069E+03  0.79375636069E+03  0.25500000000E-02 0.  1.
          2   -1    0    0  501    0  0.00000000000E+00 -0.00000000000E+00 -0.31633009465E+04  0.31633009465E+04  0.25500000000E-02 0. -1.
    8880022    1    1    2    0    0  0.43796662741E+03  0.51041752086E+03 -0.29660331389E+04  0.30451740585E+04  0.15294330000E+03 0.  0.
    8880022    1    1    2    0    0 -0.43796662741E+03 -0.51041752086E+03  0.59648855309E+03  0.91188324872E+03  0.15294330000E+03 0.  0.
<mgrwt>
<rscale>  0 0.68973362E+03</rscale>
<asrwt>0</asrwt>
<pdfrwt beam="1">  1        2 0.48666168E+00 0.68973362E+03</pdfrwt>
<pdfrwt beam="2">  1       -2 0.12211636E+00 0.68973362E+03</pdfrwt>
<totfact> 0.75974975E-01</totfact>
</mgrwt>
</event>
<event>
 4    1  0.2202466E-008  0.9469035E+03  0.7818608E-02  0.9368777E-01
         -2   -1    0    0    0  501 -0.00000000000E+00  0.00000000000E+00  0.77680644273E+03  0.77680644273E+03  0.25500000000E-02 0.  1.
          2   -1    0    0  501    0  0.00000000000E+00 -0.00000000000E+00 -0.27665716707E+04  0.27665716707E+04  0.25500000000E-02 0. -1.
    8880022    1    1    2    0    0 -0.93445962565E+03  0.44467540524E+01  0.35763471883E+03  0.10121901060E+04  0.15294330000E+03 0.  0.
    8880022    1    1    2    0    0  0.93445962565E+03 -0.44467540524E+01 -0.23473999468E+04  0.25311880074E+04  0.15294330000E+03 0.  0.
<mgrwt>
<rscale>  0 0.94690349E+03</rscale>
<asrwt>0</asrwt>
<pdfrwt beam="1">  1        2 0.42562641E+00 0.94690349E+03</pdfrwt>
<pdfrwt beam="2">  1       -2 0.11950868E+00 0.94690349E+03</pdfrwt>
<totfact> 0.13272816E+00</totfact>
</mgrwt>
</event>
<event>
 4    1  0.2202466E-008  0.6073915E+03  0.7818608E-02  0.9890189E-01
          2   -1    0    0  501    0  0.00000000000E+00  0.00000000000E+00  0.19144410589E+04  0.19144410589E+04  0.25500000000E-02 0. -1.
         -2   -1    0    0    0  501 -0.00000000000E+00 -0.00000000000E+00 -0.10841805968E+04  0.10841805968E+04  0.25500000000E-02 0.  1.
    8880022    1    1    2    0    0 -0.23162451078E+03  0.54026190550E+03 -0.94442019682E+03  0.11228775542E+04  0.15294330000E+03 0.  0.
    8880022    1    1    2    0    0  0.23162451078E+03 -0.54026190550E+03  0.17746806588E+04  0.18757441015E+04  0.15294330000E+03 0.  0.
<mgrwt>
<rscale>  0 0.60739155E+03</rscale>
<asrwt>0</asrwt>
<pdfrwt beam="1">  1        2 0.29452939E+00 0.60739155E+03</pdfrwt>
<pdfrwt beam="2">  1       -2 0.16679702E+00 0.60739155E+03</pdfrwt>
<totfact> 0.17900235E+00</totfact>
</mgrwt>
</event>
<event>
 4    1  0.2202466E-008  0.1217710E+04  0.7818608E-02  0.9097495E-01
         -2   -1    0    0    0  501 -0.00000000000E+00  0.00000000000E+00  0.82916894113E+03  0.82916894113E+03  0.25500000000E-02 0.  1.
          2   -1    0    0  501    0  0.00000000000E+00 -0.00000000000E+00 -0.24077150218E+04  0.24077150218E+04  0.25500000000E-02 0. -1.
    8880022    1    1    2    0    0  0.89493612705E+03 -0.81148944893E+03  0.31606202584E+02  0.12181200279E+04  0.15294330000E+03 0.  0.
    8880022    1    1    2    0    0 -0.89493612705E+03  0.81148944893E+03 -0.16101522832E+04  0.20187639351E+04  0.15294330000E+03 0.  0.
<mgrwt>
<rscale>  0 0.12177099E+04</rscale>
<asrwt>0</asrwt>
<pdfrwt beam="1">  1        2 0.37041769E+00 0.12177099E+04</pdfrwt>
<pdfrwt beam="2">  1       -2 0.12756445E+00 0.12177099E+04</pdfrwt>
<totfact> 0.17511648E+00</totfact>
</mgrwt>
</event>
<event>
 4    1  0.2202466E-008  0.4766174E+03  0.7818608E-02  0.1020069E+00
         -2   -1    0    0    0  501 -0.00000000000E+00  0.00000000000E+00  0.59909307256E+03  0.59909307256E+03  0.25500000000E-02 0.  1.
          2   -1    0    0  501    0  0.00000000000E+00 -0.00000000000E+00 -0.21903684037E+04  0.21903684037E+04  0.25500000000E-02 0. -1.
    8880022    1    1    2    0    0 -0.39522599323E+03  0.21810295267E+03  0.47263782162E+03  0.67123069591E+03  0.15294330000E+03 0.  1.
    8880022    1    1    2    0    0  0.39522599323E+03 -0.21810295267E+03 -0.20639131528E+04  0.21182307804E+04  0.15294330000E+03 0.  0.
<mgrwt>
<rscale>  0 0.47661739E+03</rscale>
<asrwt>0</asrwt>
<pdfrwt beam="1">  1        2 0.33697975E+00 0.47661739E+03</pdfrwt>
<pdfrwt beam="2">  1       -2 0.92168166E-01 0.47661739E+03</pdfrwt>
<totfact> 0.57694993E+00</totfact>
</mgrwt>
</event>
<event>
 4    1  0.2202466E-008  0.6665422E+03  0.7818608E-02  0.9776225E-01
          2   -1    0    0  501    0  0.00000000000E+00  0.00000000000E+00  0.15868892848E+04  0.15868892848E+04  0.25500000000E-02 0. -1.
         -2   -1    0    0    0  501 -0.00000000000E+00 -0.00000000000E+00 -0.50118626960E+03  0.50118626961E+03  0.25500000000E-02 0.  1.
    8880022    1    1    2    0    0  0.64566813990E+03  0.63241793282E+02  0.12364800213E+04  0.14046926238E+04  0.15294330000E+03 0. -1.
    8880022    1    1    2    0    0 -0.64566813990E+03 -0.63241793282E+02 -0.15077700607E+03  0.68338293063E+03  0.15294330000E+03 0.  0.
<mgrwt>
<rscale>  0 0.66654221E+03</rscale>
<asrwt>0</asrwt>
<pdfrwt beam="1">  1        2 0.24413681E+00 0.66654221E+03</pdfrwt>
<pdfrwt beam="2">  1       -2 0.77105582E-01 0.66654221E+03</pdfrwt>
<totfact> 0.17666291E+01</totfact>
</mgrwt>
</event>
<event>
 4    1  0.2202466E-008  0.6452356E+03  0.7818608E-02  0.9815761E-01
         -2   -1    0    0    0  501 -0.00000000000E+00  0.00000000000E+00  0.44183566460E+03  0.44183566461E+03  0.25500000000E-02 0.  1.
          2   -1    0    0  501    0  0.00000000000E+00 -0.00000000000E+00 -0.12781195093E+04  0.12781195093E+04  0.25500000000E-02 0. -1.
    8880022    1    1    2    0    0  0.62509749453E+03 -0.46802045660E+02  0.22690035836E+02  0.64563441659E+03  0.15294330000E+03 0.  0.
    8880022    1    1    2    0    0 -0.62509749453E+03  0.46802045660E+02 -0.85897388054E+03  0.10743207573E+04  0.15294330000E+03 0.  0.
<mgrwt>
<rscale>  0 0.64523559E+03</rscale>
<asrwt>0</asrwt>
<pdfrwt beam="1">  1        2 0.19663377E+00 0.64523559E+03</pdfrwt>
<pdfrwt beam="2">  1       -2 0.67974718E-01 0.64523559E+03</pdfrwt>
<totfact> 0.34809687E+01</totfact>
</mgrwt>
</event>
<event>
 4    1  0.2202466E-008  0.2220673E+04  0.7818608E-02  0.8509872E-01
          2   -1    0    0  501    0  0.00000000000E+00  0.00000000000E+00  0.40101609718E+04  0.40101609718E+04  0.25500000000E-02 0. -1.
         -2   -1    0    0    0  501 -0.00000000000E+00 -0.00000000000E+00 -0.14394254519E+04  0.14394254519E+04  0.25500000000E-02 0.  1.
    8880022    1    1    2    0    0  0.14568677686E+04  0.16689921064E+04  0.24535184252E+03  0.22341860992E+04  0.15294330000E+03 0.  0.
    8880022    1    1    2    0    0 -0.14568677686E+04 -0.16689921064E+04  0.23253836774E+04  0.32154003245E+04  0.15294330000E+03 0.  0.
<mgrwt>
<rscale>  0 0.22206733E+04</rscale>
<asrwt>0</asrwt>
<pdfrwt beam="1">  1        2 0.61694783E+00 0.22206733E+04</pdfrwt>
<pdfrwt beam="2">  1       -2 0.22145007E+00 0.22206733E+04</pdfrwt>
<totfact> 0.28337995E-02</totfact>
</mgrwt>
</event>
<event>
 4    1  0.2202466E-008  0.9446111E+03  0.7818608E-02  0.9371472E-01
          2   -1    0    0  501    0  0.00000000000E+00  0.00000000000E+00  0.26052744270E+04  0.26052744270E+04  0.25500000000E-02 0. -1.
         -2   -1    0    0    0  501 -0.00000000000E+00 -0.00000000000E+00 -0.10869141492E+04  0.10869141492E+04  0.25500000000E-02 0.  1.
    8880022    1    1    2    0    0  0.26727930117E+03 -0.89300632656E+03  0.22869762268E+04  0.24743787987E+04  0.15294330000E+03 0.  0.
    8880022    1    1    2    0    0 -0.26727930117E+03  0.89300632656E+03 -0.76861594903E+03  0.12178097775E+04  0.15294330000E+03 0.  0.
<mgrwt>
<rscale>  0 0.94461112E+03</rscale>
<asrwt>0</asrwt>
<pdfrwt beam="1">  1        2 0.40081145E+00 0.94461112E+03</pdfrwt>
<pdfrwt beam="2">  1       -2 0.16721756E+00 0.94461112E+03</pdfrwt>
<totfact> 0.68589995E-01</totfact>
</mgrwt>
</event>
<event>
 4    1  0.2202466E-008  0.5686537E+03  0.7818608E-02  0.9972662E-01
          2   -1    0    0  501    0  0.00000000000E+00  0.00000000000E+00  0.13380296174E+04  0.13380296174E+04  0.25500000000E-02 0. -1.
         -2   -1    0    0    0  501 -0.00000000000E+00 -0.00000000000E+00 -0.40697132885E+03  0.40697132886E+03  0.25500000000E-02 0.  1.
    8880022    1    1    2    0    0 -0.39906456397E+03 -0.37513048239E+03  0.10215826653E+04  0.11691869825E+04  0.15294330000E+03 0.  0.
    8880022    1    1    2    0    0  0.39906456397E+03  0.37513048239E+03 -0.90524376752E+02  0.57581396374E+03  0.15294330000E+03 0.  0.
<mgrwt>
<rscale>  0 0.56865372E+03</rscale>
<asrwt>0</asrwt>
<pdfrwt beam="1">  1        2 0.20585071E+00 0.56865372E+03</pdfrwt>
<pdfrwt beam="2">  1       -2 0.62610974E-01 0.56865372E+03</pdfrwt>
<totfact> 0.38750469E+01</totfact>
</mgrwt>
</event>
<event>
 4    1  0.2202466E-008  0.9938247E+03  0.7818608E-02  0.9315344E-01
          2   -1    0    0  501    0  0.00000000000E+00  0.00000000000E+00  0.30038285297E+04  0.30038285297E+04  0.25500000000E-02 0. -1.
         -2   -1    0    0    0  501 -0.00000000000E+00 -0.00000000000E+00 -0.81639506467E+03  0.81639506467E+03  0.25500000000E-02 0.  1.
    8880022    1    1    2    0    0  0.90895203239E+03 -0.37162095995E+03 -0.38244515096E+03  0.10648717677E+04  0.15294330000E+03 0.  0.
    8880022    1    1    2    0    0 -0.90895203239E+03  0.37162095995E+03  0.25698786160E+04  0.27553518267E+04  0.15294330000E+03 0.  0.
<mgrwt>
<rscale>  0 0.99382473E+03</rscale>
<asrwt>0</asrwt>
<pdfrwt beam="1">  1        2 0.46212746E+00 0.99382473E+03</pdfrwt>
<pdfrwt beam="2">  1       -2 0.12559924E+00 0.99382473E+03</pdfrwt>
<totfact> 0.83581411E-01</totfact>
</mgrwt>
</event>
<event>
 4    1  0.2202466E-008  0.1621493E+04  0.7818608E-02  0.8807452E-01
         -2   -1    0    0    0  501 -0.00000000000E+00  0.00000000000E+00  0.34428599244E+04  0.34428599244E+04  0.25500000000E-02 0.  1.
          2   -1    0    0  501    0  0.00000000000E+00 -0.00000000000E+00 -0.21300551796E+04  0.21300551796E+04  0.25500000000E-02 0. -1.
    8880022    1    1    2    0    0 -0.13009030685E+04 -0.95577177153E+03  0.28881348402E+04  0.33121840198E+04  0.15294330000E+03 0.  0.
    8880022    1    1    2    0    0  0.13009030685E+04  0.95577177153E+03 -0.15753300953E+04  0.22607310842E+04  0.15294330000E+03 0.  0.
<mgrwt>
<rscale>  0 0.16214932E+04</rscale>
<asrwt>0</asrwt>
<pdfrwt beam="1">  1        2 0.32770080E+00 0.16214932E+04</pdfrwt>
<pdfrwt beam="2">  1       -2 0.52967075E+00 0.16214932E+04</pdfrwt>
<totfact> 0.56434614E-03</totfact>
</mgrwt>
</event>
<event>
 4    1  0.2202466E-008  0.2768053E+03  0.7818608E-02  0.1097447E+00
          2   -1    0    0  501    0  0.00000000000E+00  0.00000000000E+00  0.49296641242E+03  0.49296641243E+03  0.25500000000E-02 0. -1.
         -2   -1    0    0    0  501 -0.00000000000E+00 -0.00000000000E+00 -0.12288060356E+04  0.12288060356E+04  0.25500000000E-02 0.  1.
    8880022    1    1    2    0    0  0.14406852398E+03  0.18020481341E+03  0.43668066387E+03  0.51702144017E+03  0.15294330000E+03 0.  0.
    8880022    1    1    2    0    0 -0.14406852398E+03 -0.18020481341E+03 -0.11725202871E+04  0.12047510079E+04  0.15294330000E+03 0.  0.
<mgrwt>
<rscale>  0 0.27680529E+03</rscale>
<asrwt>0</asrwt>
<pdfrwt beam="1">  1        2 0.75840987E-01 0.27680529E+03</pdfrwt>
<pdfrwt beam="2">  1       -2 0.18904708E+00 0.27680529E+03</pdfrwt>
<totfact> 0.10842601E+01</totfact>
</mgrwt>
</event>
<event>
 4    1  0.2202466E-008  0.5619813E+03  0.7818608E-02  0.9987581E-01
          2   -1    0    0  501    0  0.00000000000E+00  0.00000000000E+00  0.27486350845E+04  0.27486350845E+04  0.25500000000E-02 0. -1.
         -2   -1    0    0    0  501 -0.00000000000E+00 -0.00000000000E+00 -0.17058194030E+03  0.17058194032E+03  0.25500000000E-02 0.  1.
    8880022    1    1    2    0    0 -0.53739796223E+03 -0.60289260684E+02  0.21229384624E+04  0.21960625521E+04  0.15294330000E+03 0.  0.
    8880022    1    1    2    0    0  0.53739796223E+03  0.60289260684E+02  0.45511468180E+03  0.72315447269E+03  0.15294330000E+03 0.  0.
<mgrwt>
<rscale>  0 0.56198133E+03</rscale>
<asrwt>0</asrwt>
<pdfrwt beam="1">  1        2 0.42286693E+00 0.56198133E+03</pdfrwt>
<pdfrwt beam="2">  1       -2 0.26243376E-01 0.56198133E+03</pdfrwt>
<totfact> 0.35309126E+01</totfact>
</mgrwt>
</event>
<event>
 4    1  0.2202466E-008  0.7256637E+03  0.7818608E-02  0.9674323E-01
          2   -1    0    0  501    0  0.00000000000E+00  0.00000000000E+00  0.15935367974E+04  0.15935367974E+04  0.25500000000E-02 0. -1.
         -2   -1    0    0    0  501 -0.00000000000E+00 -0.00000000000E+00 -0.81314635030E+03  0.81314635030E+03  0.25500000000E-02 0.  1.
    8880022    1    1    2    0    0 -0.15820219542E+03 -0.69149707993E+03  0.13173250737E+04  0.15039724562E+04  0.15294330000E+03 0.  0.
    8880022    1    1    2    0    0  0.15820219542E+03  0.69149707993E+03 -0.53693462664E+03  0.90271069147E+03  0.15294330000E+03 0.  0.
<mgrwt>
<rscale>  0 0.72566370E+03</rscale>
<asrwt>0</asrwt>
<pdfrwt beam="1">  1        2 0.24515951E+00 0.72566370E+03</pdfrwt>
<pdfrwt beam="2">  1       -2 0.12509944E+00 0.72566370E+03</pdfrwt>
<totfact> 0.55478465E+00</totfact>
</mgrwt>
</event>
<event>
 4    1  0.2202466E-008  0.1664276E+03  0.7818608E-02  0.1181625E+00
          2   -1    0    0  501    0  0.00000000000E+00  0.00000000000E+00  0.59295319111E+03  0.59295319112E+03  0.25500000000E-02 0. -1.
         -2   -1    0    0    0  501 -0.00000000000E+00 -0.00000000000E+00 -0.84038392300E+03  0.84038392300E+03  0.25500000000E-02 0.  1.
    8880022    1    1    2    0    0 -0.12031266981E+02 -0.64511570792E+02 -0.82018139355E+03  0.83689644849E+03  0.15294330000E+03 0.  1.
    8880022    1    1    2    0    0  0.12031266981E+02  0.64511570792E+02  0.57275066167E+03  0.59644066563E+03  0.15294330000E+03 0.  0.
<mgrwt>
<rscale>  0 0.16642760E+03</rscale>
<asrwt>0</asrwt>
<pdfrwt beam="1">  1        2 0.91223568E-01 0.16642760E+03</pdfrwt>
<pdfrwt beam="2">  1       -2 0.12928983E+00 0.16642760E+03</pdfrwt>
<totfact> 0.24736488E+01</totfact>
</mgrwt>
</event>
<event>
 4    1  0.2202466E-008  0.6387384E+03  0.7818608E-02  0.9828143E-01
          2   -1    0    0  501    0  0.00000000000E+00  0.00000000000E+00  0.14447582148E+04  0.14447582148E+04  0.25500000000E-02 0. -1.
         -2   -1    0    0    0  501 -0.00000000000E+00 -0.00000000000E+00 -0.42995085726E+03  0.42995085727E+03  0.25500000000E-02 0.  1.
    8880022    1    1    2    0    0 -0.22704379525E+03 -0.57710160587E+03 -0.41730534668E+02  0.64010017888E+03  0.15294330000E+03 0.  0.
    8880022    1    1    2    0    0  0.22704379525E+03  0.57710160587E+03  0.10565378922E+04  0.12346088931E+04  0.15294330000E+03 0.  0.
<mgrwt>
<rscale>  0 0.63873845E+03</rscale>
<asrwt>0</asrwt>
<pdfrwt beam="1">  1        2 0.22227050E+00 0.63873845E+03</pdfrwt>
<pdfrwt beam="2">  1       -2 0.66146284E-01 0.63873845E+03</pdfrwt>
<totfact> 0.29729636E+01</totfact>
</mgrwt>
</event>
<event>
 4    1  0.2202466E-008  0.1434745E+04  0.7818608E-02  0.8929045E-01
          2   -1    0    0  501    0  0.00000000000E+00  0.00000000000E+00  0.17231393868E+04  0.17231393868E+04  0.25500000000E-02 0. -1.
         -2   -1    0    0    0  501 -0.00000000000E+00 -0.00000000000E+00 -0.12451091798E+04  0.12451091798E+04  0.25500000000E-02 0.  1.
    8880022    1    1    2    0    0  0.62701087105E+03 -0.12813898565E+04 -0.59847800449E+02  0.14359930394E+04  0.15294330000E+03 0.  0.
    8880022    1    1    2    0    0 -0.62701087105E+03  0.12813898565E+04  0.53787800739E+03  0.15322555272E+04  0.15294330000E+03 0.  0.
<mgrwt>
<rscale>  0 0.14347454E+04</rscale>
<asrwt>0</asrwt>
<pdfrwt beam="1">  1        2 0.26509837E+00 0.14347454E+04</pdfrwt>
<pdfrwt beam="2">  1       -2 0.19155526E+00 0.14347454E+04</pdfrwt>
<totfact> 0.13642230E+00</totfact>
</mgrwt>
</event>
<event>
 4    1  0.2202466E-008  0.6776368E+03  0.7818608E-02  0.9756260E-01
          2   -1    0    0  501    0  0.00000000000E+00  0.00000000000E+00  0.30466629193E+04  0.30466629193E+04  0.25500000000E-02 0. -1.
         -2   -1    0    0    0  501 -0.00000000000E+00 -0.00000000000E+00 -0.39218818392E+03  0.39218818393E+03  0.25500000000E-02 0.  1.
    8880022    1    1    2    0    0 -0.63578754479E+03 -0.17769106932E+03  0.26764068650E+04  0.27608595181E+04  0.15294330000E+03 0.  0.
    8880022    1    1    2    0    0  0.63578754479E+03  0.17769106932E+03 -0.21932129663E+02  0.67799158516E+03  0.15294330000E+03 0.  0.
<mgrwt>
<rscale>  0 0.67763675E+03</rscale>
<asrwt>0</asrwt>
<pdfrwt beam="1">  1        2 0.46871737E+00 0.67763675E+03</pdfrwt>
<pdfrwt beam="2">  1       -2 0.60336644E-01 0.67763675E+03</pdfrwt>
<totfact> 0.45150807E+00</totfact>
</mgrwt>
</event>
<event>
 4    1  0.2202466E-008  0.1560722E+04  0.7818608E-02  0.8845048E-01
          2   -1    0    0  501    0  0.00000000000E+00  0.00000000000E+00  0.32730483414E+04  0.32730483414E+04  0.25500000000E-02 0. -1.
         -2   -1    0    0    0  501 -0.00000000000E+00 -0.00000000000E+00 -0.76293291700E+03  0.76293291700E+03  0.25500000000E-02 0.  1.
    8880022    1    1    2    0    0  0.98057282487E+03 -0.12045495362E+04  0.93897888911E+03  0.18214103484E+04  0.15294330000E+03 0.  0.
    8880022    1    1    2    0    0 -0.98057282487E+03  0.12045495362E+04  0.15711365353E+04  0.22145709100E+04  0.15294330000E+03 0.  0.
<mgrwt>
<rscale>  0 0.15607224E+04</rscale>
<asrwt>0</asrwt>
<pdfrwt beam="1">  1        2 0.50354588E+00 0.15607224E+04</pdfrwt>
<pdfrwt beam="2">  1       -2 0.11737430E+00 0.15607224E+04</pdfrwt>
<totfact> 0.61806677E-01</totfact>
</mgrwt>
</event>
<event>
 4    1  0.2202466E-008  0.1435889E+04  0.7818608E-02  0.8928242E-01
          2   -1    0    0  501    0  0.00000000000E+00  0.00000000000E+00  0.23301032171E+04  0.23301032171E+04  0.25500000000E-02 0. -1.
         -2   -1    0    0    0  501 -0.00000000000E+00 -0.00000000000E+00 -0.10920813088E+04  0.10920813088E+04  0.25500000000E-02 0.  1.
    8880022    1    1    2    0    0 -0.13667054778E+04 -0.41291845019E+03  0.13643952218E+04  0.19807451839E+04  0.15294330000E+03 0.  0.
    8880022    1    1    2    0    0  0.13667054778E+04  0.41291845019E+03 -0.12637331345E+03  0.14414393421E+04  0.15294330000E+03 0.  0.
<mgrwt>
<rscale>  0 0.14358890E+04</rscale>
<asrwt>0</asrwt>
<pdfrwt beam="1">  1        2 0.35847742E+00 0.14358890E+04</pdfrwt>
<pdfrwt beam="2">  1       -2 0.16801251E+00 0.14358890E+04</pdfrwt>
<totfact> 0.91034714E-01</totfact>
</mgrwt>
</event>
<event>
 4    1  0.2202466E-008  0.2128160E+04  0.7818608E-02  0.8548939E-01
         -2   -1    0    0    0  501 -0.00000000000E+00  0.00000000000E+00  0.19773053378E+04  0.19773053378E+04  0.25500000000E-02 0.  1.
          2   -1    0    0  501    0  0.00000000000E+00 -0.00000000000E+00 -0.23437132570E+04  0.23437132571E+04  0.25500000000E-02 0. -1.
    8880022    1    1    2    0    0 -0.15895304863E+04  0.14067925256E+04 -0.50867964496E+03  0.21881085465E+04  0.15294330000E+03 0.  0.
    8880022    1    1    2    0    0  0.15895304863E+04 -0.14067925256E+04  0.14227172568E+03  0.21329100483E+04  0.15294330000E+03 0.  0.
<mgrwt>
<rscale>  0 0.21281598E+04</rscale>
<asrwt>0</asrwt>
<pdfrwt beam="1">  1        2 0.36057127E+00 0.21281598E+04</pdfrwt>
<pdfrwt beam="2">  1       -2 0.30420082E+00 0.21281598E+04</pdfrwt>
<totfact> 0.11246636E-01</totfact>
</mgrwt>
</event>
<event>
 4    1  0.2202466E-008  0.6100242E+03  0.7818608E-02  0.9884825E-01
         -2   -1    0    0    0  501 -0.00000000000E+00  0.00000000000E+00  0.33311106614E+03  0.33311106615E+03  0.25500000000E-02 0.  1.
          2   -1    0    0  501    0  0.00000000000E+00 -0.00000000000E+00 -0.16440958337E+04  0.16440958337E+04  0.25500000000E-02 0. -1.
    8880022    1    1    2    0    0 -0.25233361109E+03 -0.53391534345E+03 -0.12151834631E+04  0.13597059783E+04  0.15294330000E+03 0.  0.
    8880022    1    1    2    0    0  0.25233361109E+03  0.53391534345E+03 -0.95801304474E+02  0.61750092162E+03  0.15294330000E+03 0.  0.
<mgrwt>
<rscale>  0 0.61002418E+03</rscale>
<asrwt>0</asrwt>
<pdfrwt beam="1">  1        2 0.25293782E+00 0.61002418E+03</pdfrwt>
<pdfrwt beam="2">  1       -2 0.51247857E-01 0.61002418E+03</pdfrwt>
<totfact> 0.39549573E+01</totfact>
</mgrwt>
</event>
<event>
 4    1  0.2202466E-008  0.8940427E+03  0.7818608E-02  0.9433059E-01
         -2   -1    0    0    0  501 -0.00000000000E+00  0.00000000000E+00  0.15621767699E+04  0.15621767699E+04  0.25500000000E-02 0.  1.
          2   -1    0    0  501    0  0.00000000000E+00 -0.00000000000E+00 -0.64399991467E+03  0.64399991467E+03  0.25500000000E-02 0. -1.
    8880022    1    1    2    0    0  0.24140012728E+03  0.84714030044E+03 -0.40949981649E+02  0.89498003559E+03  0.15294330000E+03 0.  0.
    8880022    1    1    2    0    0 -0.24140012728E+03 -0.84714030044E+03  0.95912683690E+03  0.13111966490E+04  0.15294330000E+03 0.  0.
<mgrwt>
<rscale>  0 0.89404271E+03</rscale>
<asrwt>0</asrwt>
<pdfrwt beam="1">  1        2 0.99076911E-01 0.89404271E+03</pdfrwt>
<pdfrwt beam="2">  1       -2 0.24033489E+00 0.89404271E+03</pdfrwt>
<totfact> 0.33840344E+00</totfact>
</mgrwt>
</event>
<event>
 4    1  0.2202466E-008  0.1739412E+03  0.7818608E-02  0.1173799E+00
         -2   -1    0    0    0  501 -0.00000000000E+00  0.00000000000E+00  0.12097133852E+03  0.12097133855E+03  0.25500000000E-02 0.  1.
          2   -1    0    0  501    0  0.00000000000E+00 -0.00000000000E+00 -0.16504883671E+04  0.16504883671E+04  0.25500000000E-02 0. -1.
    8880022    1    1    2    0    0  0.26403881090E+02  0.78528494946E+02 -0.15806239096E+04  0.15901658675E+04  0.15294330000E+03 0.  0.
    8880022    1    1    2    0    0 -0.26403881090E+02 -0.78528494946E+02  0.51106881028E+02  0.18129383817E+03  0.15294330000E+03 0.  1.
<mgrwt>
<rscale>  0 0.17394120E+03</rscale>
<asrwt>0</asrwt>
<pdfrwt beam="1">  1        2 0.25392127E+00 0.17394120E+03</pdfrwt>
<pdfrwt beam="2">  1       -2 0.18610976E-01 0.17394120E+03</pdfrwt>
<totfact> 0.27793041E+02</totfact>
</mgrwt>
</event>
<event>
 4    1  0.2202466E-008  0.6344162E+03  0.7818608E-02  0.9836469E-01
         -2   -1    0    0    0  501 -0.00000000000E+00  0.00000000000E+00  0.51406777127E+03  0.51406777128E+03  0.25500000000E-02 0.  1.
          2   -1    0    0  501    0  0.00000000000E+00 -0.00000000000E+00 -0.19604744134E+04  0.19604744134E+04  0.25500000000E-02 0. -1.
    8880022    1    1    2    0    0 -0.75293301589E+02 -0.61108359821E+03  0.23569199383E+03  0.67678254575E+03  0.15294330000E+03 0.  0.
    8880022    1    1    2    0    0  0.75293301589E+02  0.61108359821E+03 -0.16820986359E+04  0.17977596389E+04  0.15294330000E+03 0.  0.
<mgrwt>
<rscale>  0 0.63441619E+03</rscale>
<asrwt>0</asrwt>
<pdfrwt beam="1">  1        2 0.30161145E+00 0.63441619E+03</pdfrwt>
<pdfrwt beam="2">  1       -2 0.79087350E-01 0.63441619E+03</pdfrwt>
<totfact> 0.10508665E+01</totfact>
</mgrwt>
</event>
<event>
 4    1  0.2202466E-008  0.1175675E+04  0.7818608E-02  0.9134419E-01
          2   -1    0    0  501    0  0.00000000000E+00  0.00000000000E+00  0.19429280077E+04  0.19429280077E+04  0.25500000000E-02 0. -1.
         -2   -1    0    0    0  501 -0.00000000000E+00 -0.00000000000E+00 -0.89084983477E+03  0.89084983477E+03  0.25500000000E-02 0.  1.
    8880022    1    1    2    0    0 -0.11149436638E+04 -0.34017708701E+03 -0.10987332818E+03  0.11807978765E+04  0.15294330000E+03 0.  0.
    8880022    1    1    2    0    0  0.11149436638E+04  0.34017708701E+03  0.11619515011E+04  0.16529799659E+04  0.15294330000E+03 0.  0.
<mgrwt>
<rscale>  0 0.11756749E+04</rscale>
<asrwt>0</asrwt>
<pdfrwt beam="1">  1        2 0.29891200E+00 0.11756749E+04</pdfrwt>
<pdfrwt beam="2">  1       -2 0.13705382E+00 0.11756749E+04</pdfrwt>
<totfact> 0.26644712E+00</totfact>
</mgrwt>
</event>
<event>
 4    1  0.2202466E-008  0.9584886E+03  0.7818608E-02  0.9355283E-01
         -2   -1    0    0    0  501 -0.00000000000E+00  0.00000000000E+00  0.11808408216E+04  0.11808408216E+04  0.25500000000E-02 0.  1.
          2   -1    0    0  501    0  0.00000000000E+00 -0.00000000000E+00 -0.15966350643E+04  0.15966350643E+04  0.25500000000E-02 0. -1.
    8880022    1    1    2    0    0 -0.12414808687E+03  0.93802775281E+03 -0.12022973713E+04  0.15376018453E+04  0.15294330000E+03 0.  0.
    8880022    1    1    2    0    0  0.12414808687E+03 -0.93802775281E+03  0.78650312857E+03  0.12398740407E+04  0.15294330000E+03 0.  0.
<mgrwt>
<rscale>  0 0.95848864E+03</rscale>
<asrwt>0</asrwt>
<pdfrwt beam="1">  1        2 0.24563616E+00 0.95848864E+03</pdfrwt>
<pdfrwt beam="2">  1       -2 0.18166782E+00 0.95848864E+03</pdfrwt>
<totfact> 0.19759704E+00</totfact>
</mgrwt>
</event>
<event>
 4    1  0.2202466E-008  0.7780218E+03  0.7818608E-02  0.9592386E-01
          2   -1    0    0  501    0  0.00000000000E+00  0.00000000000E+00  0.54471992225E+04  0.54471992225E+04  0.25500000000E-02 0. -1.
         -2   -1    0    0    0  501 -0.00000000000E+00 -0.00000000000E+00 -0.14417416863E+03  0.14417416865E+03  0.25500000000E-02 0.  1.
    8880022    1    1    2    0    0 -0.14415459002E+03  0.74909658440E+03  0.13129840938E+04  0.15261864637E+04  0.15294330000E+03 0.  0.
    8880022    1    1    2    0    0  0.14415459002E+03 -0.74909658440E+03  0.39900409601E+04  0.40651869274E+04  0.15294330000E+03 0. -1.
<mgrwt>
<rscale>  0 0.77802178E+03</rscale>
<asrwt>0</asrwt>
<pdfrwt beam="1">  1        2 0.83803066E+00 0.77802178E+03</pdfrwt>
<pdfrwt beam="2">  1       -2 0.22180641E-01 0.77802178E+03</pdfrwt>
<totfact> 0.16068391E-01</totfact>
</mgrwt>
</event>
<event>
 4    1  0.2202466E-008  0.1153792E+04  0.7818608E-02  0.9154292E-01
         -2   -1    0    0    0  501 -0.00000000000E+00  0.00000000000E+00  0.10958455004E+04  0.10958455004E+04  0.25500000000E-02 0.  1.
          2   -1    0    0  501    0  0.00000000000E+00 -0.00000000000E+00 -0.12324734033E+04  0.12324734033E+04  0.25500000000E-02 0. -1.
    8880022    1    1    2    0    0  0.69059690152E+03 -0.91154836811E+03  0.71081826499E+02  0.11559795789E+04  0.15294330000E+03 0.  0.
    8880022    1    1    2    0    0 -0.69059690152E+03  0.91154836811E+03 -0.20770972932E+03  0.11723393248E+04  0.15294330000E+03 0.  0.
<mgrwt>
<rscale>  0 0.11537921E+04</rscale>
<asrwt>0</asrwt>
<pdfrwt beam="1">  1        2 0.18961129E+00 0.11537921E+04</pdfrwt>
<pdfrwt beam="2">  1       -2 0.16859162E+00 0.11537921E+04</pdfrwt>
<totfact> 0.38561048E+00</totfact>
</mgrwt>
</event>
<event>
 4    1  0.2202466E-008  0.3067483E+03  0.7818608E-02  0.1081915E+00
          2   -1    0    0  501    0  0.00000000000E+00  0.00000000000E+00  0.12454942562E+04  0.12454942562E+04  0.25500000000E-02 0. -1.
         -2   -1    0    0    0  501 -0.00000000000E+00 -0.00000000000E+00 -0.14310913827E+04  0.14310913827E+04  0.25500000000E-02 0.  1.
    8880022    1    1    2    0    0  0.26559934298E+03  0.12644107538E+02  0.12096907935E+04  0.12479769041E+04  0.15294330000E+03 0.  0.
    8880022    1    1    2    0    0 -0.26559934298E+03 -0.12644107538E+02 -0.13952879200E+04  0.14286087348E+04  0.15294330000E+03 0.  0.
<mgrwt>
<rscale>  0 0.30674833E+03</rscale>
<asrwt>0</asrwt>
<pdfrwt beam="1">  1        2 0.19161450E+00 0.30674833E+03</pdfrwt>
<pdfrwt beam="2">  1       -2 0.22016791E+00 0.30674833E+03</pdfrwt>
<totfact> 0.20373134E+00</totfact>
</mgrwt>
</event>
<event>
 4    1  0.2202466E-008  0.1403665E+04  0.7818608E-02  0.8951170E-01
         -2   -1    0    0    0  501 -0.00000000000E+00  0.00000000000E+00  0.11326894028E+04  0.11326894028E+04  0.25500000000E-02 0.  1.
          2   -1    0    0  501    0  0.00000000000E+00 -0.00000000000E+00 -0.24341217053E+04  0.24341217053E+04  0.25500000000E-02 0. -1.
    8880022    1    1    2    0    0  0.13937500454E+04  0.65911899271E+02 -0.16034325299E+04  0.21310258324E+04  0.15294330000E+03 0.  0.
    8880022    1    1    2    0    0 -0.13937500454E+04 -0.65911899271E+02  0.30200022744E+03  0.14357852757E+04  0.15294330000E+03 0.  0.
<mgrwt>
<rscale>  0 0.14036649E+04</rscale>
<asrwt>0</asrwt>
<pdfrwt beam="1">  1        2 0.37448026E+00 0.14036649E+04</pdfrwt>
<pdfrwt beam="2">  1       -2 0.17425991E+00 0.14036649E+04</pdfrwt>
<totfact> 0.71909377E-01</totfact>
</mgrwt>
</event>
<event>
 4    1  0.2202466E-008  0.3672333E+03  0.7818608E-02  0.1055756E+00
         -2   -1    0    0    0  501 -0.00000000000E+00  0.00000000000E+00  0.39084141519E+03  0.39084141520E+03  0.25500000000E-02 0.  1.
          2   -1    0    0  501    0  0.00000000000E+00 -0.00000000000E+00 -0.12165856832E+04  0.12165856832E+04  0.25500000000E-02 0. -1.
    8880022    1    1    2    0    0 -0.31126306180E+03 -0.12076402321E+03 -0.10931278957E+04  0.11531647290E+04  0.15294330000E+03 0.  0.
    8880022    1    1    2    0    0  0.31126306180E+03  0.12076402321E+03  0.26738362761E+03  0.45426236942E+03  0.15294330000E+03 0.  0.
<mgrwt>
<rscale>  0 0.36723330E+03</rscale>
<asrwt>0</asrwt>
<pdfrwt beam="1">  1        2 0.18716703E+00 0.36723330E+03</pdfrwt>
<pdfrwt beam="2">  1       -2 0.60129449E-01 0.36723330E+03</pdfrwt>
<totfact> 0.51141716E+01</totfact>
</mgrwt>
</event>
<event>
 4    1  0.2202466E-008  0.7136355E+03  0.7818608E-02  0.9694194E-01
         -2   -1    0    0    0  501 -0.00000000000E+00  0.00000000000E+00  0.51426012101E+03  0.51426012102E+03  0.25500000000E-02 0.  1.
          2   -1    0    0  501    0  0.00000000000E+00 -0.00000000000E+00 -0.12432998573E+04  0.12432998573E+04  0.25500000000E-02 0. -1.
    8880022    1    1    2    0    0 -0.38252674029E+03 -0.58271537829E+03  0.31891459204E+02  0.71434770057E+03  0.15294330000E+03 0.  0.
    8880022    1    1    2    0    0  0.38252674029E+03  0.58271537829E+03 -0.76093119548E+03  0.10432122777E+04  0.15294330000E+03 0.  0.
<mgrwt>
<rscale>  0 0.71363546E+03</rscale>
<asrwt>0</asrwt>
<pdfrwt beam="1">  1        2 0.19127690E+00 0.71363546E+03</pdfrwt>
<pdfrwt beam="2">  1       -2 0.79116942E-01 0.71363546E+03</pdfrwt>
<totfact> 0.25894069E+01</totfact>
</mgrwt>
</event>
<event>
 4    1  0.2783657E-008  0.1250206E+04  0.7818608E-02  0.9070012E-01
          2   -1    0    0  501    0  0.00000000000E+00  0.00000000000E+00  0.30261826387E+04  0.30261826387E+04  0.25500000000E-02 0. -1.
         -2   -1    0    0    0  501 -0.00000000000E+00 -0.00000000000E+00 -0.13232236491E+04  0.13232236491E+04  0.25500000000E-02 0.  1.
    8880022    1    1    2    0    0 -0.10832202783E+04 -0.60519264788E+03 -0.84655459458E+03  0.15098578234E+04  0.15294330000E+03 0.  0.
    8880022    1    1    2    0    0  0.10832202783E+04  0.60519264788E+03  0.25495135842E+04  0.28395484644E+04  0.15294330000E+03 0. -1.
<mgrwt>
<rscale>  0 0.12502064E+04</rscale>
<asrwt>0</asrwt>
<pdfrwt beam="1">  1        2 0.46556655E+00 0.12502064E+04</pdfrwt>
<pdfrwt beam="2">  1       -2 0.20357287E+00 0.12502064E+04</pdfrwt>
<totfact> 0.20611875E-01</totfact>
</mgrwt>
</event>
<event>
 4    1  0.2202466E-008  0.3804214E+03  0.7818608E-02  0.1050778E+00
         -2   -1    0    0    0  501 -0.00000000000E+00  0.00000000000E+00  0.11971532756E+03  0.11971532759E+03  0.25500000000E-02 0.  1.
          2   -1    0    0  501    0  0.00000000000E+00 -0.00000000000E+00 -0.18469023772E+04  0.18469023772E+04  0.25500000000E-02 0. -1.
    8880022    1    1    2    0    0 -0.21641319777E+03 -0.27293616288E+03 -0.14415415068E+04  0.14908931518E+04  0.15294330000E+03 0.  0.
    8880022    1    1    2    0    0  0.21641319777E+03  0.27293616288E+03 -0.28564554280E+03  0.47572455299E+03  0.15294330000E+03 0.  0.
<mgrwt>
<rscale>  0 0.38042144E+03</rscale>
<asrwt>0</asrwt>
<pdfrwt beam="1">  1        2 0.28413881E+00 0.38042144E+03</pdfrwt>
<pdfrwt beam="2">  1       -2 0.18417744E-01 0.38042144E+03</pdfrwt>
<totfact> 0.21333513E+02</totfact>
</mgrwt>
</event>
<event>
 4    1  0.2202466E-008  0.9073474E+03  0.7818608E-02  0.9416443E-01
         -2   -1    0    0    0  501 -0.00000000000E+00  0.00000000000E+00  0.11363254093E+04  0.11363254093E+04  0.25500000000E-02 0.  1.
          2   -1    0    0  501    0  0.00000000000E+00 -0.00000000000E+00 -0.74820148998E+03  0.74820148998E+03  0.25500000000E-02 0. -1.
    8880022    1    1    2    0    0  0.89177525997E+03 -0.68003840955E+02  0.36173293793E+03  0.97679578627E+03  0.15294330000E+03 0.  0.
    8880022    1    1    2    0    0 -0.89177525997E+03  0.68003840955E+02  0.26390981425E+02  0.90773111304E+03  0.15294330000E+03 0.  0.
<mgrwt>
<rscale>  0 0.90734739E+03</rscale>
<asrwt>0</asrwt>
<pdfrwt beam="1">  1        2 0.11510792E+00 0.90734739E+03</pdfrwt>
<pdfrwt beam="2">  1       -2 0.17481929E+00 0.90734739E+03</pdfrwt>
<totfact> 0.74187535E+00</totfact>
</mgrwt>
</event>
<event>
 4    1  0.2202466E-008  0.8471460E+03  0.7818608E-02  0.9494175E-01
          2   -1    0    0  501    0  0.00000000000E+00  0.00000000000E+00  0.12639295283E+04  0.12639295283E+04  0.25500000000E-02 0. -1.
         -2   -1    0    0    0  501 -0.00000000000E+00 -0.00000000000E+00 -0.10866656585E+04  0.10866656585E+04  0.25500000000E-02 0.  1.
    8880022    1    1    2    0    0  0.45865678871E+03  0.69562829505E+03 -0.72350311257E+03  0.11140525937E+04  0.15294330000E+03 0.  0.
    8880022    1    1    2    0    0 -0.45865678871E+03 -0.69562829505E+03  0.90076698244E+03  0.12365425930E+04  0.15294330000E+03 0.  0.
<mgrwt>
<rscale>  0 0.84714605E+03</rscale>
<asrwt>0</asrwt>
<pdfrwt beam="1">  1        2 0.19445070E+00 0.84714605E+03</pdfrwt>
<pdfrwt beam="2">  1       -2 0.16717933E+00 0.84714605E+03</pdfrwt>
<totfact> 0.39136477E+00</totfact>
</mgrwt>
</event>
<event>
 4    1  0.2202466E-008  0.8616844E+03  0.7818608E-02  0.9474787E-01
         -2   -1    0    0    0  501 -0.00000000000E+00  0.00000000000E+00  0.13965217033E+04  0.13965217033E+04  0.25500000000E-02 0.  1.
          2   -1    0    0  501    0  0.00000000000E+00 -0.00000000000E+00 -0.80958448098E+03  0.80958448098E+03  0.25500000000E-02 0. -1.
    8880022    1    1    2    0    0  0.48271624611E+03 -0.69720398965E+03  0.93973947186E+03  0.12749942374E+04  0.15294330000E+03 0.  0.
    8880022    1    1    2    0    0 -0.48271624611E+03  0.69720398965E+03 -0.35280224949E+03  0.93111194692E+03  0.15294330000E+03 0.  0.
<mgrwt>
<rscale>  0 0.86168441E+03</rscale>
<asrwt>0</asrwt>
<pdfrwt beam="1">  1        2 0.12455146E+00 0.86168441E+03</pdfrwt>
<pdfrwt beam="2">  1       -2 0.21484949E+00 0.86168441E+03</pdfrwt>
<totfact> 0.36479917E+00</totfact>
</mgrwt>
</event>
<event>
 4    1  0.2202466E-008  0.8033991E+03  0.7818608E-02  0.9555110E-01
         -2   -1    0    0    0  501 -0.00000000000E+00  0.00000000000E+00  0.57015053435E+03  0.57015053435E+03  0.25500000000E-02 0.  1.
          2   -1    0    0  501    0  0.00000000000E+00 -0.00000000000E+00 -0.14165009639E+04  0.14165009639E+04  0.25500000000E-02 0. -1.
    8880022    1    1    2    0    0 -0.63155636046E+03 -0.47243527049E+03 -0.86828985805E+03  0.11829528528E+04  0.15294330000E+03 0.  0.
    8880022    1    1    2    0    0  0.63155636046E+03  0.47243527049E+03  0.21939428494E+02  0.80369864550E+03  0.15294330000E+03 0.  0.
<mgrwt>
<rscale>  0 0.80339914E+03</rscale>
<asrwt>0</asrwt>
<pdfrwt beam="1">  1        2 0.21792322E+00 0.80339914E+03</pdfrwt>
<pdfrwt beam="2">  1       -2 0.87715467E-01 0.80339914E+03</pdfrwt>
<totfact> 0.16134539E+01</totfact>
</mgrwt>
</event>
<event>
 4    1  0.2202466E-008  0.4064544E+03  0.7818608E-02  0.1041567E+00
         -2   -1    0    0    0  501 -0.00000000000E+00  0.00000000000E+00  0.10591828649E+04  0.10591828649E+04  0.25500000000E-02 0.  1.
          2   -1    0    0  501    0  0.00000000000E+00 -0.00000000000E+00 -0.23362402206E+03  0.23362402207E+03  0.25500000000E-02 0. -1.
    8880022    1    1    2    0    0  0.11505236109E+03  0.35857561161E+03  0.40117318866E+02  0.40842939086E+03  0.15294330000E+03 0. -1.
    8880022    1    1    2    0    0 -0.11505236109E+03 -0.35857561161E+03  0.78544152393E+03  0.88437749607E+03  0.15294330000E+03 0.  0.
<mgrwt>
<rscale>  0 0.40645439E+03</rscale>
<asrwt>0</asrwt>
<pdfrwt beam="1">  1        2 0.35942157E-01 0.40645439E+03</pdfrwt>
<pdfrwt beam="2">  1       -2 0.16295121E+00 0.40645439E+03</pdfrwt>
<totfact> 0.36252830E+01</totfact>
</mgrwt>
</event>
<event>
 4    1  0.3653196E-008  0.1297492E+04  0.7818608E-02  0.9031556E-01
         -2   -1    0    0    0  501 -0.00000000000E+00  0.00000000000E+00  0.18145796375E+04  0.18145796375E+04  0.25500000000E-02 0.  1.
          2   -1    0    0  501    0  0.00000000000E+00 -0.00000000000E+00 -0.18916304394E+04  0.18916304394E+04  0.25500000000E-02 0. -1.
    8880022    1    1    2    0    0 -0.10378915323E+04  0.76346262827E+03 -0.13613196706E+04  0.18806054653E+04  0.15294330000E+03 0.  0.
    8880022    1    1    2    0    0  0.10378915323E+04 -0.76346262827E+03  0.12842688687E+04  0.18256046116E+04  0.15294330000E+03 0.  0.
<mgrwt>
<rscale>  0 0.12974921E+04</rscale>
<asrwt>0</asrwt>
<pdfrwt beam="1">  1        2 0.29102007E+00 0.12974921E+04</pdfrwt>
<pdfrwt beam="2">  1       -2 0.27916610E+00 0.12974921E+04</pdfrwt>
<totfact> 0.31443520E-01</totfact>
</mgrwt>
</event>
<event>
 4    1  0.2202466E-008  0.7241015E+03  0.7818608E-02  0.9676881E-01
         -2   -1    0    0    0  501 -0.00000000000E+00  0.00000000000E+00  0.74423427091E+03  0.74423427091E+03  0.25500000000E-02 0.  1.
          2   -1    0    0  501    0  0.00000000000E+00 -0.00000000000E+00 -0.34829131270E+04  0.34829131270E+04  0.25500000000E-02 0. -1.
    8880022    1    1    2    0    0  0.48182922601E+02 -0.70612304930E+03 -0.32570849106E+04  0.33366038306E+04  0.15294330000E+03 0.  0.
    8880022    1    1    2    0    0 -0.48182922601E+02  0.70612304930E+03  0.51840605453E+03  0.89054356725E+03  0.15294330000E+03 0.  0.
<mgrwt>
<rscale>  0 0.72410152E+03</rscale>
<asrwt>0</asrwt>
<pdfrwt beam="1">  1        2 0.53583278E+00 0.72410152E+03</pdfrwt>
<pdfrwt beam="2">  1       -2 0.11449758E+00 0.72410152E+03</pdfrwt>
<totfact> 0.54557536E-01</totfact>
</mgrwt>
</event>
<event>
 4    1  0.2366491E-008  0.1362164E+04  0.7818608E-02  0.8981671E-01
          2   -1    0    0  501    0  0.00000000000E+00  0.00000000000E+00  0.27950936548E+04  0.27950936548E+04  0.25500000000E-02 0. -1.
         -2   -1    0    0    0  501 -0.00000000000E+00 -0.00000000000E+00 -0.16320458267E+04  0.16320458267E+04  0.25500000000E-02 0.  1.
    8880022    1    1    2    0    0  0.11884297236E+04  0.64786834303E+03  0.22864723921E+04  0.26614744505E+04  0.15294330000E+03 0.  0.
    8880022    1    1    2    0    0 -0.11884297236E+04 -0.64786834303E+03 -0.11234245640E+04  0.17656650311E+04  0.15294330000E+03 0.  0.
<mgrwt>
<rscale>  0 0.13621638E+04</rscale>
<asrwt>0</asrwt>
<pdfrwt beam="1">  1        2 0.43001441E+00 0.13621638E+04</pdfrwt>
<pdfrwt beam="2">  1       -2 0.25108397E+00 0.13621638E+04</pdfrwt>
<totfact> 0.14102862E-01</totfact>
</mgrwt>
</event>
<event>
 4    1  0.2202466E-008  0.9783102E+03  0.7818608E-02  0.9332659E-01
          2   -1    0    0  501    0  0.00000000000E+00  0.00000000000E+00  0.34872417323E+04  0.34872417323E+04  0.25500000000E-02 0. -1.
         -2   -1    0    0    0  501 -0.00000000000E+00 -0.00000000000E+00 -0.27800474686E+03  0.27800474687E+03  0.25500000000E-02 0.  1.
    8880022    1    1    2    0    0  0.64125809017E+03 -0.72283282854E+03  0.18173523970E+04  0.20639429798E+04  0.15294330000E+03 0.  0.
    8880022    1    1    2    0    0 -0.64125809017E+03  0.72283282854E+03  0.13918845885E+04  0.17013034994E+04  0.15294330000E+03 0.  0.
<mgrwt>
<rscale>  0 0.97831022E+03</rscale>
<asrwt>0</asrwt>
<pdfrwt beam="1">  1        2 0.53649868E+00 0.97831022E+03</pdfrwt>
<pdfrwt beam="2">  1       -2 0.42769965E-01 0.97831022E+03</pdfrwt>
<totfact> 0.44739092E+00</totfact>
</mgrwt>
</event>
<event>
 4    1  0.2202466E-008  0.4299123E+03  0.7818608E-02  0.1033888E+00
          2   -1    0    0  501    0  0.00000000000E+00  0.00000000000E+00  0.86158858950E+03  0.86158858950E+03  0.25500000000E-02 0. -1.
         -2   -1    0    0    0  501 -0.00000000000E+00 -0.00000000000E+00 -0.50020115197E+03  0.50020115198E+03  0.25500000000E-02 0.  1.
    8880022    1    1    2    0    0  0.10280326641E+03 -0.38841265941E+03 -0.33388466095E+03  0.54433769427E+03  0.15294330000E+03 0.  0.
    8880022    1    1    2    0    0 -0.10280326641E+03  0.38841265941E+03  0.69527209847E+03  0.81745204721E+03  0.15294330000E+03 0.  0.
<mgrwt>
<rscale>  0 0.42991227E+03</rscale>
<asrwt>0</asrwt>
<pdfrwt beam="1">  1        2 0.13255209E+00 0.42991227E+03</pdfrwt>
<pdfrwt beam="2">  1       -2 0.76954024E-01 0.42991227E+03</pdfrwt>
<totfact> 0.49311581E+01</totfact>
</mgrwt>
</event>
<event>
 4    1  0.2202466E-008  0.6239463E+03  0.7818608E-02  0.9856934E-01
          2   -1    0    0  501    0  0.00000000000E+00  0.00000000000E+00  0.18810640632E+04  0.18810640632E+04  0.25500000000E-02 0. -1.
         -2   -1    0    0    0  501 -0.00000000000E+00 -0.00000000000E+00 -0.13360518152E+04  0.13360518152E+04  0.25500000000E-02 0.  1.
    8880022    1    1    2    0    0  0.42666384026E+03 -0.42880688399E+03 -0.12062252160E+04  0.13580457655E+04  0.15294330000E+03 0.  0.
    8880022    1    1    2    0    0 -0.42666384026E+03  0.42880688399E+03  0.17512374640E+04  0.18590701129E+04  0.15294330000E+03 0.  0.
<mgrwt>
<rscale>  0 0.62394634E+03</rscale>
<asrwt>0</asrwt>
<pdfrwt beam="1">  1        2 0.28939447E+00 0.62394634E+03</pdfrwt>
<pdfrwt beam="2">  1       -2 0.20554643E+00 0.62394634E+03</pdfrwt>
<totfact> 0.10199427E+00</totfact>
</mgrwt>
</event>
<event>
 4    1  0.2202466E-008  0.5624709E+03  0.7818608E-02  0.9986479E-01
         -2   -1    0    0    0  501 -0.00000000000E+00  0.00000000000E+00  0.66168867540E+03  0.66168867540E+03  0.25500000000E-02 0.  1.
          2   -1    0    0  501    0  0.00000000000E+00 -0.00000000000E+00 -0.16151682796E+04  0.16151682796E+04  0.25500000000E-02 0. -1.
    8880022    1    1    2    0    0 -0.53533769145E+02  0.53862417161E+03 -0.14319178134E+04  0.15384284644E+04  0.15294330000E+03 0.  0.
    8880022    1    1    2    0    0  0.53533769145E+02 -0.53862417161E+03  0.47843820921E+03  0.73842849060E+03  0.15294330000E+03 0.  0.
<mgrwt>
<rscale>  0 0.56247090E+03</rscale>
<asrwt>0</asrwt>
<pdfrwt beam="1">  1        2 0.24848743E+00 0.56247090E+03</pdfrwt>
<pdfrwt beam="2">  1       -2 0.10179826E+00 0.56247090E+03</pdfrwt>
<totfact> 0.91697475E+00</totfact>
</mgrwt>
</event>
<event>
 4    1  0.2202466E-008  0.8072098E+03  0.7818608E-02  0.9549640E-01
         -2   -1    0    0    0  501 -0.00000000000E+00  0.00000000000E+00  0.55458717465E+03  0.55458717466E+03  0.25500000000E-02 0.  1.
          2   -1    0    0  501    0  0.00000000000E+00 -0.00000000000E+00 -0.24070431472E+04  0.24070431472E+04  0.25500000000E-02 0. -1.
    8880022    1    1    2    0    0 -0.78263934168E+03  0.12518627677E+03  0.13324162561E+03  0.81813258512E+03  0.15294330000E+03 0.  0.
    8880022    1    1    2    0    0  0.78263934168E+03 -0.12518627677E+03 -0.19856975982E+04  0.21434977367E+04  0.15294330000E+03 0.  0.
<mgrwt>
<rscale>  0 0.80720976E+03</rscale>
<asrwt>0</asrwt>
<pdfrwt beam="1">  1        2 0.37031433E+00 0.80720976E+03</pdfrwt>
<pdfrwt beam="2">  1       -2 0.85321105E-01 0.80720976E+03</pdfrwt>
<totfact> 0.48789375E+00</totfact>
</mgrwt>
</event>
<event>
 4    1  0.2202466E-008  0.6461233E+03  0.7818608E-02  0.9814081E-01
         -2   -1    0    0    0  501 -0.00000000000E+00  0.00000000000E+00  0.27122245626E+03  0.27122245627E+03  0.25500000000E-02 0.  1.
          2   -1    0    0  501    0  0.00000000000E+00 -0.00000000000E+00 -0.20808902419E+04  0.20808902419E+04  0.25500000000E-02 0. -1.
    8880022    1    1    2    0    0  0.58692701930E+03 -0.22271124252E+03 -0.30481523583E+03  0.71441416877E+03  0.15294330000E+03 0.  0.
    8880022    1    1    2    0    0 -0.58692701930E+03  0.22271124252E+03 -0.15048525498E+04  0.16376985294E+04  0.15294330000E+03 0.  0.
<mgrwt>
<rscale>  0 0.64612327E+03</rscale>
<asrwt>0</asrwt>
<pdfrwt beam="1">  1        2 0.32013695E+00 0.64612327E+03</pdfrwt>
<pdfrwt beam="2">  1       -2 0.41726533E-01 0.64612327E+03</pdfrwt>
<totfact> 0.34373897E+01</totfact>
</mgrwt>
</event>
<event>
 4    1  0.2202466E-008  0.6498142E+03  0.7818608E-02  0.9807128E-01
         -2   -1    0    0    0  501 -0.00000000000E+00  0.00000000000E+00  0.82266303050E+03  0.82266303050E+03  0.25500000000E-02 0.  1.
          2   -1    0    0  501    0  0.00000000000E+00 -0.00000000000E+00 -0.19138294601E+04  0.19138294601E+04  0.25500000000E-02 0. -1.
    8880022    1    1    2    0    0  0.57487303322E+03 -0.26151057012E+03  0.62489006543E+03  0.90152428114E+03  0.15294330000E+03 0.  0.
    8880022    1    1    2    0    0 -0.57487303322E+03  0.26151057012E+03 -0.17160564950E+04  0.18349682094E+04  0.15294330000E+03 0.  0.
<mgrwt>
<rscale>  0 0.64981415E+03</rscale>
<asrwt>0</asrwt>
<pdfrwt beam="1">  1        2 0.29443530E+00 0.64981415E+03</pdfrwt>
<pdfrwt beam="2">  1       -2 0.12656354E+00 0.64981415E+03</pdfrwt>
<totfact> 0.36530844E+00</totfact>
</mgrwt>
</event>
<event>
 4    1  0.2202466E-008  0.9777750E+03  0.7818608E-02  0.9333262E-01
         -2   -1    0    0    0  501 -0.00000000000E+00  0.00000000000E+00  0.17621577117E+04  0.17621577117E+04  0.25500000000E-02 0.  1.
          2   -1    0    0  501    0  0.00000000000E+00 -0.00000000000E+00 -0.82376357222E+03  0.82376357222E+03  0.25500000000E-02 0. -1.
    8880022    1    1    2    0    0 -0.40035641042E+03  0.87884417933E+03 -0.28625789376E+03  0.10188167557E+04  0.15294330000E+03 0.  0.
    8880022    1    1    2    0    0  0.40035641042E+03 -0.87884417933E+03  0.12246520333E+04  0.15671045283E+04  0.15294330000E+03 0.  0.
<mgrwt>
<rscale>  0 0.97777503E+03</rscale>
<asrwt>0</asrwt>
<pdfrwt beam="1">  1        2 0.12673286E+00 0.97777503E+03</pdfrwt>
<pdfrwt beam="2">  1       -2 0.27110119E+00 0.97777503E+03</pdfrwt>
<totfact> 0.15852876E+00</totfact>
</mgrwt>
</event>
<event>
 4    1  0.2202466E-008  0.9644021E+03  0.7818608E-02  0.9348473E-01
          2   -1    0    0  501    0  0.00000000000E+00  0.00000000000E+00  0.16321969754E+04  0.16321969754E+04  0.25500000000E-02 0. -1.
         -2   -1    0    0    0  501 -0.00000000000E+00 -0.00000000000E+00 -0.75146849869E+03  0.75146849869E+03  0.25500000000E-02 0.  1.
    8880022    1    1    2    0    0 -0.48800971197E+03 -0.81763459510E+03  0.10263220092E+04  0.14083353044E+04  0.15294330000E+03 0.  0.
    8880022    1    1    2    0    0  0.48800971197E+03  0.81763459510E+03 -0.14559353252E+03  0.97533016964E+03  0.15294330000E+03 0.  0.
<mgrwt>
<rscale>  0 0.96440213E+03</rscale>
<asrwt>0</asrwt>
<pdfrwt beam="1">  1        2 0.25110722E+00 0.96440213E+03</pdfrwt>
<pdfrwt beam="2">  1       -2 0.11561054E+00 0.96440213E+03</pdfrwt>
<totfact> 0.62233114E+00</totfact>
</mgrwt>
</event>
<event>
 4    1  0.2202466E-008  0.3943772E+03  0.7818608E-02  0.1045744E+00
          2   -1    0    0  501    0  0.00000000000E+00  0.00000000000E+00  0.21878542724E+04  0.21878542724E+04  0.25500000000E-02 0. -1.
         -2   -1    0    0    0  501 -0.00000000000E+00 -0.00000000000E+00 -0.78642905303E+03  0.78642905304E+03  0.25500000000E-02 0.  1.
    8880022    1    1    2    0    0  0.29381441665E+03  0.21404400395E+03  0.21190472006E+04  0.21554337007E+04  0.15294330000E+03 0.  0.
    8880022    1    1    2    0    0 -0.29381441665E+03 -0.21404400395E+03 -0.71762198116E+03  0.81884962473E+03  0.15294330000E+03 0.  0.
<mgrwt>
<rscale>  0 0.39437723E+03</rscale>
<asrwt>0</asrwt>
<pdfrwt beam="1">  1        2 0.33659296E+00 0.39437723E+03</pdfrwt>
<pdfrwt beam="2">  1       -2 0.12098909E+00 0.39437723E+03</pdfrwt>
<totfact> 0.31086524E+00</totfact>
</mgrwt>
</event>
<event>
 4    1  0.2202466E-008  0.7289002E+03  0.7818608E-02  0.9669047E-01
          2   -1    0    0  501    0  0.00000000000E+00  0.00000000000E+00  0.20086676021E+04  0.20086676021E+04  0.25500000000E-02 0. -1.
         -2   -1    0    0    0  501 -0.00000000000E+00 -0.00000000000E+00 -0.64121823497E+03  0.64121823498E+03  0.25500000000E-02 0.  1.
    8880022    1    1    2    0    0  0.68319805150E+03  0.20284058661E+03 -0.33182625051E+03  0.80087714082E+03  0.15294330000E+03 0.  0.
    8880022    1    1    2    0    0 -0.68319805150E+03 -0.20284058661E+03  0.16992756177E+04  0.18490086963E+04  0.15294330000E+03 0.  0.
<mgrwt>
<rscale>  0 0.72890022E+03</rscale>
<asrwt>0</asrwt>
<pdfrwt beam="1">  1        2 0.30902578E+00 0.72890022E+03</pdfrwt>
<pdfrwt beam="2">  1       -2 0.98648961E-01 0.72890022E+03</pdfrwt>
<totfact> 0.58601437E+00</totfact>
</mgrwt>
</event>
<event>
 4    1  0.2202466E-008  0.1490555E+04  0.7818608E-02  0.8890758E-01
          2   -1    0    0  501    0  0.00000000000E+00  0.00000000000E+00  0.20740392134E+04  0.20740392134E+04  0.25500000000E-02 0. -1.
         -2   -1    0    0    0  501 -0.00000000000E+00 -0.00000000000E+00 -0.12207656490E+04  0.12207656490E+04  0.25500000000E-02 0.  1.
    8880022    1    1    2    0    0  0.56648979244E+03 -0.13702009220E+04 -0.14995707389E+03  0.14980787792E+04  0.15294330000E+03 0.  0.
    8880022    1    1    2    0    0 -0.56648979244E+03  0.13702009220E+04  0.10032306383E+04  0.17967260832E+04  0.15294330000E+03 0.  0.
<mgrwt>
<rscale>  0 0.14905546E+04</rscale>
<asrwt>0</asrwt>
<pdfrwt beam="1">  1        2 0.31908295E+00 0.14905546E+04</pdfrwt>
<pdfrwt beam="2">  1       -2 0.18781010E+00 0.14905546E+04</pdfrwt>
<totfact> 0.91683489E-01</totfact>
</mgrwt>
</event>
<event>
 4    1  0.2202466E-008  0.6080850E+03  0.7818608E-02  0.9888773E-01
         -2   -1    0    0    0  501 -0.00000000000E+00  0.00000000000E+00  0.81503982947E+03  0.81503982947E+03  0.25500000000E-02 0.  1.
          2   -1    0    0  501    0  0.00000000000E+00 -0.00000000000E+00 -0.15411389892E+04  0.15411389892E+04  0.25500000000E-02 0. -1.
    8880022    1    1    2    0    0 -0.60678381182E+02 -0.58540062844E+03 -0.13526588531E+04  0.14830554230E+04  0.15294330000E+03 0.  0.
    8880022    1    1    2    0    0  0.60678381182E+02  0.58540062844E+03  0.62655969338E+03  0.87312339569E+03  0.15294330000E+03 0.  0.
<mgrwt>
<rscale>  0 0.60808504E+03</rscale>
<asrwt>0</asrwt>
<pdfrwt beam="1">  1        2 0.23709831E+00 0.60808504E+03</pdfrwt>
<pdfrwt beam="2">  1       -2 0.12539074E+00 0.60808504E+03</pdfrwt>
<totfact> 0.60133163E+00</totfact>
</mgrwt>
</event>
<event>
 4    1  0.2202466E-008  0.8693018E+03  0.7818608E-02  0.9464791E-01
          2   -1    0    0  501    0  0.00000000000E+00  0.00000000000E+00  0.28298195055E+04  0.28298195055E+04  0.25500000000E-02 0. -1.
         -2   -1    0    0    0  501 -0.00000000000E+00 -0.00000000000E+00 -0.49737791736E+03  0.49737791737E+03  0.25500000000E-02 0.  1.
    8880022    1    1    2    0    0 -0.85346086241E+03 -0.62438404942E+02  0.34121563236E+02  0.86997122491E+03  0.15294330000E+03 0.  0.
    8880022    1    1    2    0    0  0.85346086241E+03  0.62438404942E+02  0.22983200249E+04  0.24572261980E+04  0.15294330000E+03 0.  0.
<mgrwt>
<rscale>  0 0.86930182E+03</rscale>
<asrwt>0</asrwt>
<pdfrwt beam="1">  1        2 0.43535685E+00 0.86930182E+03</pdfrwt>
<pdfrwt beam="2">  1       -2 0.76519679E-01 0.86930182E+03</pdfrwt>
<totfact> 0.35165348E+00</totfact>
</mgrwt>
</event>
<event>
 4    1  0.2202466E-008  0.4749779E+03  0.7818608E-02  0.1020525E+00
          2   -1    0    0  501    0  0.00000000000E+00  0.00000000000E+00  0.19168035542E+04  0.19168035542E+04  0.25500000000E-02 0. -1.
         -2   -1    0    0    0  501 -0.00000000000E+00 -0.00000000000E+00 -0.11913209406E+04  0.11913209406E+04  0.25500000000E-02 0.  1.
    8880022    1    1    2    0    0 -0.17494267292E+03 -0.41425526603E+03 -0.11125572112E+04  0.12097055698E+04  0.15294330000E+03 0.  1.
    8880022    1    1    2    0    0  0.17494267292E+03  0.41425526603E+03  0.18380398249E+04  0.18984189251E+04  0.15294330000E+03 0.  0.
<mgrwt>
<rscale>  0 0.47497791E+03</rscale>
<asrwt>0</asrwt>
<pdfrwt beam="1">  1        2 0.29489286E+00 0.47497791E+03</pdfrwt>
<pdfrwt beam="2">  1       -2 0.18328014E+00 0.47497791E+03</pdfrwt>
<totfact> 0.14227296E+00</totfact>
</mgrwt>
</event>
<event>
 4    1  0.2202466E-008  0.7385699E+03  0.7818608E-02  0.9653455E-01
         -2   -1    0    0    0  501 -0.00000000000E+00  0.00000000000E+00  0.48143093447E+03  0.48143093448E+03  0.25500000000E-02 0.  1.
          2   -1    0    0  501    0  0.00000000000E+00 -0.00000000000E+00 -0.19075351801E+04  0.19075351801E+04  0.25500000000E-02 0. -1.
    8880022    1    1    2    0    0  0.64779582666E+03  0.32008491434E+03  0.48062740443E+02  0.74013205947E+03  0.15294330000E+03 0.  1.
    8880022    1    1    2    0    0 -0.64779582666E+03 -0.32008491434E+03 -0.14741669860E+04  0.16488340551E+04  0.15294330000E+03 0.  0.
<mgrwt>
<rscale>  0 0.73856986E+03</rscale>
<asrwt>0</asrwt>
<pdfrwt beam="1">  1        2 0.29346695E+00 0.73856986E+03</pdfrwt>
<pdfrwt beam="2">  1       -2 0.74066299E-01 0.73856986E+03</pdfrwt>
<totfact> 0.12774452E+01</totfact>
</mgrwt>
</event>
<event>
 4    1  0.2202466E-008  0.8337658E+03  0.7818608E-02  0.9512389E-01
         -2   -1    0    0    0  501 -0.00000000000E+00  0.00000000000E+00  0.34206263409E+03  0.34206263410E+03  0.25500000000E-02 0.  1.
          2   -1    0    0  501    0  0.00000000000E+00 -0.00000000000E+00 -0.24476765868E+04  0.24476765868E+04  0.25500000000E-02 0. -1.
    8880022    1    1    2    0    0 -0.19138066902E+03  0.79696121673E+03 -0.16274400090E+04  0.18285858955E+04  0.15294330000E+03 0.  0.
    8880022    1    1    2    0    0  0.19138066902E+03 -0.79696121673E+03 -0.47817394376E+03  0.96115332542E+03  0.15294330000E+03 0.  0.
<mgrwt>
<rscale>  0 0.83376579E+03</rscale>
<asrwt>0</asrwt>
<pdfrwt beam="1">  1        2 0.37656562E+00 0.83376579E+03</pdfrwt>
<pdfrwt beam="2">  1       -2 0.52625022E-01 0.83376579E+03</pdfrwt>
<totfact> 0.13136017E+01</totfact>
</mgrwt>
</event>
<event>
 4    1  0.2202466E-008  0.3110705E+03  0.7818608E-02  0.1079834E+00
          2   -1    0    0  501    0  0.00000000000E+00  0.00000000000E+00  0.20379642655E+04  0.20379642655E+04  0.25500000000E-02 0. -1.
         -2   -1    0    0    0  501 -0.00000000000E+00 -0.00000000000E+00 -0.37478819832E+03  0.37478819832E+03  0.25500000000E-02 0.  1.
    8880022    1    1    2    0    0  0.15116940072E+03 -0.22476877566E+03  0.19589607278E+04  0.19835049726E+04  0.15294330000E+03 0.  0.
    8880022    1    1    2    0    0 -0.15116940072E+03  0.22476877566E+03 -0.29578466064E+03  0.42924749121E+03  0.15294330000E+03 0.  0.
<mgrwt>
<rscale>  0 0.31107048E+03</rscale>
<asrwt>0</asrwt>
<pdfrwt beam="1">  1        2 0.31353296E+00 0.31107048E+03</pdfrwt>
<pdfrwt beam="2">  1       -2 0.57659723E-01 0.31107048E+03</pdfrwt>
<totfact> 0.20397573E+01</totfact>
</mgrwt>
</event>
<event>
 4    1  0.2202466E-008  0.1661579E+04  0.7818608E-02  0.8783586E-01
          2   -1    0    0  501    0  0.00000000000E+00  0.00000000000E+00  0.26417670400E+04  0.26417670400E+04  0.25500000000E-02 0. -1.
         -2   -1    0    0    0  501 -0.00000000000E+00 -0.00000000000E+00 -0.14034933745E+04  0.14034933745E+04  0.25500000000E-02 0.  1.
    8880022    1    1    2    0    0  0.16372660275E+04  0.23835417872E+03 -0.40299403056E+03  0.17097510348E+04  0.15294330000E+03 0.  0.
    8880022    1    1    2    0    0 -0.16372660275E+04 -0.23835417872E+03  0.16412676961E+04  0.23355093797E+04  0.15294330000E+03 0.  0.
<mgrwt>
<rscale>  0 0.16615789E+04</rscale>
<asrwt>0</asrwt>
<pdfrwt beam="1">  1        2 0.40642569E+00 0.16615789E+04</pdfrwt>
<pdfrwt beam="2">  1       -2 0.21592206E+00 0.16615789E+04</pdfrwt>
<totfact> 0.27831594E-01</totfact>
</mgrwt>
</event>
<event>
 4    1  0.2202466E-008  0.2833312E+03  0.7818608E-02  0.1093883E+00
         -2   -1    0    0    0  501 -0.00000000000E+00  0.00000000000E+00  0.74728245311E+03  0.74728245312E+03  0.25500000000E-02 0.  1.
          2   -1    0    0  501    0  0.00000000000E+00 -0.00000000000E+00 -0.48444692059E+03  0.48444692060E+03  0.25500000000E-02 0. -1.
    8880022    1    1    2    0    0  0.23072703712E+03  0.60414998083E+02  0.67472523907E+03  0.73179965763E+03  0.15294330000E+03 0.  1.
    8880022    1    1    2    0    0 -0.23072703712E+03 -0.60414998083E+02 -0.41188970655E+03  0.49992971609E+03  0.15294330000E+03 0.  0.
<mgrwt>
<rscale>  0 0.28333124E+03</rscale>
<asrwt>0</asrwt>
<pdfrwt beam="1">  1        2 0.74530296E-01 0.28333124E+03</pdfrwt>
<pdfrwt beam="2">  1       -2 0.11496653E+00 0.28333124E+03</pdfrwt>
<totfact> 0.40151336E+01</totfact>
</mgrwt>
</event>
<event>
 4    1  0.2202466E-008  0.8101363E+03  0.7818608E-02  0.9545460E-01
         -2   -1    0    0    0  501 -0.00000000000E+00  0.00000000000E+00  0.32521844442E+03  0.32521844443E+03  0.25500000000E-02 0.  1.
          2   -1    0    0  501    0  0.00000000000E+00 -0.00000000000E+00 -0.31789551196E+04  0.31789551196E+04  0.25500000000E-02 0. -1.
    8880022    1    1    2    0    0 -0.60654319994E+03 -0.51481507910E+03 -0.24856437481E+04  0.26143346600E+04  0.15294330000E+03 0.  0.
    8880022    1    1    2    0    0  0.60654319994E+03  0.51481507910E+03 -0.36809292702E+03  0.88983890396E+03  0.15294330000E+03 0.  0.
<mgrwt>
<rscale>  0 0.81013633E+03</rscale>
<asrwt>0</asrwt>
<pdfrwt beam="1">  1        2 0.48907000E+00 0.81013633E+03</pdfrwt>
<pdfrwt beam="2">  1       -2 0.50033609E-01 0.81013633E+03</pdfrwt>
<totfact> 0.53604617E+00</totfact>
</mgrwt>
</event>
<event>
 4    1  0.2202466E-008  0.4371435E+03  0.7818608E-02  0.1031627E+00
         -2   -1    0    0    0  501 -0.00000000000E+00  0.00000000000E+00  0.20893832113E+03  0.20893832115E+03  0.25500000000E-02 0.  1.
          2   -1    0    0  501    0  0.00000000000E+00 -0.00000000000E+00 -0.10431011253E+04  0.10431011253E+04  0.25500000000E-02 0. -1.
    8880022    1    1    2    0    0  0.32512285584E+03  0.24899375218E+03 -0.19735465361E+03  0.47962826474E+03  0.15294330000E+03 0.  0.
    8880022    1    1    2    0    0 -0.32512285584E+03 -0.24899375218E+03 -0.63680815058E+03  0.77241118174E+03  0.15294330000E+03 0.  0.
<mgrwt>
<rscale>  0 0.43714347E+03</rscale>
<asrwt>0</asrwt>
<pdfrwt beam="1">  1        2 0.16047709E+00 0.43714347E+03</pdfrwt>
<pdfrwt beam="2">  1       -2 0.32144358E-01 0.43714347E+03</pdfrwt>
<totfact> 0.22015409E+02</totfact>
</mgrwt>
</event>
<event>
 4    1  0.2202466E-008  0.8790834E+03  0.7818608E-02  0.9452113E-01
          2   -1    0    0  501    0  0.00000000000E+00  0.00000000000E+00  0.32369717411E+04  0.32369717411E+04  0.25500000000E-02 0. -1.
         -2   -1    0    0    0  501 -0.00000000000E+00 -0.00000000000E+00 -0.59375943298E+03  0.59375943298E+03  0.25500000000E-02 0.  1.
    8880022    1    1    2    0    0  0.22400733367E+03 -0.83619182633E+03 -0.15945772607E+03  0.89342849483E+03  0.15294330000E+03 0.  0.
    8880022    1    1    2    0    0 -0.22400733367E+03  0.83619182633E+03  0.28026700342E+04  0.29373026793E+04  0.15294330000E+03 0.  0.
<mgrwt>
<rscale>  0 0.87908345E+03</rscale>
<asrwt>0</asrwt>
<pdfrwt beam="1">  1        2 0.49799567E+00 0.87908345E+03</pdfrwt>
<pdfrwt beam="2">  1       -2 0.91347603E-01 0.87908345E+03</pdfrwt>
<totfact> 0.13131349E+00</totfact>
</mgrwt>
</event>
<event>
 4    1  0.2202466E-008  0.4613940E+03  0.7818608E-02  0.1024378E+00
         -2   -1    0    0    0  501 -0.00000000000E+00  0.00000000000E+00  0.82772879960E+03  0.82772879960E+03  0.25500000000E-02 0.  1.
          2   -1    0    0  501    0  0.00000000000E+00 -0.00000000000E+00 -0.10359858615E+04  0.10359858615E+04  0.25500000000E-02 0. -1.
    8880022    1    1    2    0    0  0.44068742607E+02 -0.43307131134E+03  0.70382061615E+03  0.84157467138E+03  0.15294330000E+03 0.  0.
    8880022    1    1    2    0    0 -0.44068742607E+02  0.43307131134E+03 -0.91207767807E+03  0.10221399897E+04  0.15294330000E+03 0.  0.
<mgrwt>
<rscale>  0 0.46139405E+03</rscale>
<asrwt>0</asrwt>
<pdfrwt beam="1">  1        2 0.15938244E+00 0.46139405E+03</pdfrwt>
<pdfrwt beam="2">  1       -2 0.12734289E+00 0.46139405E+03</pdfrwt>
<totfact> 0.11618033E+01</totfact>
</mgrwt>
</event>
<event>
 4    1  0.2202466E-008  0.9980130E+03  0.7818608E-02  0.9310727E-01
          2   -1    0    0  501    0  0.00000000000E+00  0.00000000000E+00  0.34266542193E+04  0.34266542193E+04  0.25500000000E-02 0. -1.
         -2   -1    0    0    0  501 -0.00000000000E+00 -0.00000000000E+00 -0.76886328280E+03  0.76886328280E+03  0.25500000000E-02 0.  1.
    8880022    1    1    2    0    0  0.96201757134E+03 -0.21716475797E+03  0.29832635092E+04  0.31457735389E+04  0.15294330000E+03 0.  0.
    8880022    1    1    2    0    0 -0.96201757134E+03  0.21716475797E+03 -0.32547257271E+03  0.10497439632E+04  0.15294330000E+03 0.  0.
<mgrwt>
<rscale>  0 0.99801302E+03</rscale>
<asrwt>0</asrwt>
<pdfrwt beam="1">  1        2 0.52717756E+00 0.99801302E+03</pdfrwt>
<pdfrwt beam="2">  1       -2 0.11828666E+00 0.99801302E+03</pdfrwt>
<totfact> 0.51824245E-01</totfact>
</mgrwt>
</event>
<event>
 4    1  0.2202466E-008  0.9898784E+03  0.7818608E-02  0.9319716E-01
          2   -1    0    0  501    0  0.00000000000E+00  0.00000000000E+00  0.20687495301E+04  0.20687495301E+04  0.25500000000E-02 0. -1.
         -2   -1    0    0    0  501 -0.00000000000E+00 -0.00000000000E+00 -0.61216877074E+03  0.61216877075E+03  0.25500000000E-02 0.  1.
    8880022    1    1    2    0    0  0.95580687679E+03 -0.20712490468E+03  0.13659301281E+04  0.16868978273E+04  0.15294330000E+03 0.  0.
    8880022    1    1    2    0    0 -0.95580687679E+03  0.20712490468E+03  0.90650631245E+02  0.99402047354E+03  0.15294330000E+03 0.  0.
<mgrwt>
<rscale>  0 0.98987836E+03</rscale>
<asrwt>0</asrwt>
<pdfrwt beam="1">  1        2 0.31826917E+00 0.98987836E+03</pdfrwt>
<pdfrwt beam="2">  1       -2 0.94179809E-01 0.98987836E+03</pdfrwt>
<totfact> 0.58360730E+00</totfact>
</mgrwt>
</event>
<event>
 4    1  0.2202466E-008  0.8115740E+03  0.7818608E-02  0.9543414E-01
         -2   -1    0    0    0  501 -0.00000000000E+00  0.00000000000E+00  0.64984668429E+03  0.64984668429E+03  0.25500000000E-02 0.  1.
          2   -1    0    0  501    0  0.00000000000E+00 -0.00000000000E+00 -0.20475522146E+04  0.20475522146E+04  0.25500000000E-02 0. -1.
    8880022    1    1    2    0    0  0.40453156173E+03  0.68674223182E+03 -0.16572782422E+04  0.18453247688E+04  0.15294330000E+03 0.  0.
    8880022    1    1    2    0    0 -0.40453156173E+03 -0.68674223182E+03  0.25957271186E+03  0.85207413009E+03  0.15294330000E+03 0.  0.
<mgrwt>
<rscale>  0 0.81157398E+03</rscale>
<asrwt>0</asrwt>
<pdfrwt beam="1">  1        2 0.31500803E+00 0.81157398E+03</pdfrwt>
<pdfrwt beam="2">  1       -2 0.99976414E-01 0.81157398E+03</pdfrwt>
<totfact> 0.53361041E+00</totfact>
</mgrwt>
</event>
<event>
 4    1  0.2202466E-008  0.6537493E+03  0.7818608E-02  0.9799769E-01
         -2   -1    0    0    0  501 -0.00000000000E+00  0.00000000000E+00  0.57740323888E+03  0.57740323889E+03  0.25500000000E-02 0.  1.
          2   -1    0    0  501    0  0.00000000000E+00 -0.00000000000E+00 -0.16538927843E+04  0.16538927843E+04  0.25500000000E-02 0. -1.
    8880022    1    1    2    0    0 -0.58900974309E+03 -0.23888077408E+03  0.29098707344E+03  0.71558481790E+03  0.15294330000E+03 0.  1.
    8880022    1    1    2    0    0  0.58900974309E+03  0.23888077408E+03 -0.13674766188E+04  0.15157112053E+04  0.15294330000E+03 0.  0.
<mgrwt>
<rscale>  0 0.65374931E+03</rscale>
<asrwt>0</asrwt>
<pdfrwt beam="1">  1        2 0.25444504E+00 0.65374931E+03</pdfrwt>
<pdfrwt beam="2">  1       -2 0.88831268E-01 0.65374931E+03</pdfrwt>
<totfact> 0.11811197E+01</totfact>
</mgrwt>
</event>
<event>
 4    1  0.2202466E-008  0.1069732E+04  0.7818608E-02  0.9235206E-01
          2   -1    0    0  501    0  0.00000000000E+00  0.00000000000E+00  0.18865728628E+04  0.18865728628E+04  0.25500000000E-02 0. -1.
         -2   -1    0    0    0  501 -0.00000000000E+00 -0.00000000000E+00 -0.11212656129E+04  0.11212656129E+04  0.25500000000E-02 0.  1.
    8880022    1    1    2    0    0 -0.76754333536E+03 -0.72925408971E+03 -0.63628565072E+03  0.12446627581E+04  0.15294330000E+03 0.  0.
    8880022    1    1    2    0    0  0.76754333536E+03  0.72925408971E+03  0.14015929006E+04  0.17631757176E+04  0.15294330000E+03 0.  0.
<mgrwt>
<rscale>  0 0.10697317E+04</rscale>
<asrwt>0</asrwt>
<pdfrwt beam="1">  1        2 0.29024198E+00 0.10697317E+04</pdfrwt>
<pdfrwt beam="2">  1       -2 0.17250240E+00 0.10697317E+04</pdfrwt>
<totfact> 0.15598450E+00</totfact>
</mgrwt>
</event>
<event>
 4    1  0.2202466E-008  0.1668005E+04  0.7818608E-02  0.8779826E-01
         -2   -1    0    0    0  501 -0.00000000000E+00  0.00000000000E+00  0.21954656920E+04  0.21954656920E+04  0.25500000000E-02 0.  1.
          2   -1    0    0  501    0  0.00000000000E+00 -0.00000000000E+00 -0.22997829989E+04  0.22997829989E+04  0.25500000000E-02 0. -1.
    8880022    1    1    2    0    0 -0.13815791334E+04 -0.92200218560E+03  0.14538544612E+04  0.22126756155E+04  0.15294330000E+03 0.  0.
    8880022    1    1    2    0    0  0.13815791334E+04  0.92200218560E+03 -0.15581717681E+04  0.22825730753E+04  0.15294330000E+03 0.  0.
<mgrwt>
<rscale>  0 0.16680050E+04</rscale>
<asrwt>0</asrwt>
<pdfrwt beam="1">  1        2 0.35381277E+00 0.16680050E+04</pdfrwt>
<pdfrwt beam="2">  1       -2 0.33776395E+00 0.16680050E+04</pdfrwt>
<totfact> 0.77384680E-02</totfact>
</mgrwt>
</event>
<event>
 4    1  0.2202466E-008  0.7907141E+03  0.7818608E-02  0.9573556E-01
          2   -1    0    0  501    0  0.00000000000E+00  0.00000000000E+00  0.16923796709E+04  0.16923796709E+04  0.25500000000E-02 0. -1.
         -2   -1    0    0    0  501 -0.00000000000E+00 -0.00000000000E+00 -0.60540489683E+03  0.60540489684E+03  0.25500000000E-02 0.  1.
    8880022    1    1    2    0    0  0.74955302064E+03  0.20001844695E+03 -0.17378186476E+03  0.80958563439E+03  0.15294330000E+03 0.  0.
    8880022    1    1    2    0    0 -0.74955302064E+03 -0.20001844695E+03  0.12607566389E+04  0.14881989334E+04  0.15294330000E+03 0. -1.
<mgrwt>
<rscale>  0 0.79071408E+03</rscale>
<asrwt>0</asrwt>
<pdfrwt beam="1">  1        2 0.26036610E+00 0.79071408E+03</pdfrwt>
<pdfrwt beam="2">  1       -2 0.93139217E-01 0.79071408E+03</pdfrwt>
<totfact> 0.98853353E+00</totfact>
</mgrwt>
</event>
<event>
 4    1  0.2202466E-008  0.3975314E+03  0.7818608E-02  0.1044638E+00
          2   -1    0    0  501    0  0.00000000000E+00  0.00000000000E+00  0.13415719815E+04  0.13415719815E+04  0.25500000000E-02 0. -1.
         -2   -1    0    0    0  501 -0.00000000000E+00 -0.00000000000E+00 -0.60601550360E+03  0.60601550361E+03  0.25500000000E-02 0.  1.
    8880022    1    1    2    0    0  0.35596650163E+03 -0.89035945689E+02  0.12418213955E+04  0.13038986085E+04  0.15294330000E+03 0.  0.
    8880022    1    1    2    0    0 -0.35596650163E+03  0.89035945689E+02 -0.50626491767E+03  0.64368887655E+03  0.15294330000E+03 0.  0.
<mgrwt>
<rscale>  0 0.39753139E+03</rscale>
<asrwt>0</asrwt>
<pdfrwt beam="1">  1        2 0.20639569E+00 0.39753139E+03</pdfrwt>
<pdfrwt beam="2">  1       -2 0.93233155E-01 0.39753139E+03</pdfrwt>
<totfact> 0.16490508E+01</totfact>
</mgrwt>
</event>
<event>
 4    1  0.2202466E-008  0.1203571E+04  0.7818608E-02  0.9109737E-01
          2   -1    0    0  501    0  0.00000000000E+00  0.00000000000E+00  0.25864305756E+04  0.25864305756E+04  0.25500000000E-02 0. -1.
         -2   -1    0    0    0  501 -0.00000000000E+00 -0.00000000000E+00 -0.80758035406E+03  0.80758035407E+03  0.25500000000E-02 0.  1.
    8880022    1    1    2    0    0 -0.11619562147E+04  0.27394955544E+03  0.18289039993E+04  0.21893999396E+04  0.15294330000E+03 0.  0.
    8880022    1    1    2    0    0  0.11619562147E+04 -0.27394955544E+03 -0.50053777741E+02  0.12046109901E+04  0.15294330000E+03 0.  0.
<mgrwt>
<rscale>  0 0.12035706E+04</rscale>
<asrwt>0</asrwt>
<pdfrwt beam="1">  1        2 0.39791240E+00 0.12035706E+04</pdfrwt>
<pdfrwt beam="2">  1       -2 0.12424313E+00 0.12035706E+04</pdfrwt>
<totfact> 0.14801530E+00</totfact>
</mgrwt>
</event>
<event>
 4    1  0.2202466E-008  0.7136240E+03  0.7818608E-02  0.9694213E-01
         -2   -1    0    0    0  501 -0.00000000000E+00  0.00000000000E+00  0.39012750910E+03  0.39012750911E+03  0.25500000000E-02 0.  1.
          2   -1    0    0  501    0  0.00000000000E+00 -0.00000000000E+00 -0.19561368845E+04  0.19561368845E+04  0.25500000000E-02 0. -1.
    8880022    1    1    2    0    0  0.67506230974E+03  0.17366169350E+03 -0.10635885159E+03  0.72150631608E+03  0.15294330000E+03 0.  0.
    8880022    1    1    2    0    0 -0.67506230974E+03 -0.17366169350E+03 -0.14596505238E+04  0.16247580775E+04  0.15294330000E+03 0.  0.
<mgrwt>
<rscale>  0 0.71362396E+03</rscale>
<asrwt>0</asrwt>
<pdfrwt beam="1">  1        2 0.30094413E+00 0.71362396E+03</pdfrwt>
<pdfrwt beam="2">  1       -2 0.60019618E-01 0.71362396E+03</pdfrwt>
<totfact> 0.18995956E+01</totfact>
</mgrwt>
</event>
<event>
 4    1  0.2202466E-008  0.3758933E+03  0.7818608E-02  0.1052462E+00
         -2   -1    0    0    0  501 -0.00000000000E+00  0.00000000000E+00  0.38561874859E+03  0.38561874860E+03  0.25500000000E-02 0.  1.
          2   -1    0    0  501    0  0.00000000000E+00 -0.00000000000E+00 -0.45782449719E+03  0.45782449720E+03  0.25500000000E-02 0. -1.
    8880022    1    1    2    0    0 -0.25389480769E+02  0.34243178403E+03  0.15233849690E+03  0.40558947608E+03  0.15294330000E+03 0.  0.
    8880022    1    1    2    0    0  0.25389480769E+02 -0.34243178403E+03 -0.22454424550E+03  0.43785376972E+03  0.15294330000E+03 0.  0.
<mgrwt>
<rscale>  0 0.37589334E+03</rscale>
<asrwt>0</asrwt>
<pdfrwt beam="1">  1        2 0.70434538E-01 0.37589334E+03</pdfrwt>
<pdfrwt beam="2">  1       -2 0.59325961E-01 0.37589334E+03</pdfrwt>
<totfact> 0.18623127E+02</totfact>
</mgrwt>
</event>
<event>
 4    1  0.2202466E-008  0.1544192E+04  0.7818608E-02  0.8855586E-01
          2   -1    0    0  501    0  0.00000000000E+00  0.00000000000E+00  0.11320052501E+04  0.11320052501E+04  0.25500000000E-02 0. -1.
         -2   -1    0    0    0  501 -0.00000000000E+00 -0.00000000000E+00 -0.33690842782E+04  0.33690842782E+04  0.25500000000E-02 0.  1.
    8880022    1    1    2    0    0 -0.71446220410E+03 -0.13603969799E+04 -0.24962823756E+04  0.29352944547E+04  0.15294330000E+03 0.  0.
    8880022    1    1    2    0    0  0.71446220410E+03  0.13603969799E+04  0.25920334749E+03  0.15657950736E+04  0.15294330000E+03 0.  0.
<mgrwt>
<rscale>  0 0.15441916E+04</rscale>
<asrwt>0</asrwt>
<pdfrwt beam="1">  1        2 0.17415466E+00 0.15441916E+04</pdfrwt>
<pdfrwt beam="2">  1       -2 0.51832065E+00 0.15441916E+04</pdfrwt>
<totfact> 0.24727057E-02</totfact>
</mgrwt>
</event>
<event>
 4    1  0.2551790E-008  0.1393183E+04  0.7818608E-02  0.8958768E-01
         -2   -1    0    0    0  501 -0.00000000000E+00  0.00000000000E+00  0.18760581921E+04  0.18760581921E+04  0.25500000000E-02 0.  1.
          2   -1    0    0  501    0  0.00000000000E+00 -0.00000000000E+00 -0.25895263419E+04  0.25895263419E+04  0.25500000000E-02 0. -1.
    8880022    1    1    2    0    0 -0.11307959746E+04  0.79929176136E+03  0.13734563496E+04  0.19563590809E+04  0.15294330000E+03 0.  0.
    8880022    1    1    2    0    0  0.11307959746E+04 -0.79929176136E+03 -0.20869244994E+04  0.25092254532E+04  0.15294330000E+03 0.  0.
<mgrwt>
<rscale>  0 0.13931829E+04</rscale>
<asrwt>0</asrwt>
<pdfrwt beam="1">  1        2 0.39838867E+00 0.13931829E+04</pdfrwt>
<pdfrwt beam="2">  1       -2 0.28862434E+00 0.13931829E+04</pdfrwt>
<totfact> 0.10966618E-01</totfact>
</mgrwt>
</event>
<event>
 4    1  0.2202466E-008  0.7595540E+03  0.7818608E-02  0.9620480E-01
         -2   -1    0    0    0  501 -0.00000000000E+00  0.00000000000E+00  0.39350682750E+03  0.39350682750E+03  0.25500000000E-02 0.  1.
          2   -1    0    0  501    0  0.00000000000E+00 -0.00000000000E+00 -0.23754259820E+04  0.23754259820E+04  0.25500000000E-02 0. -1.
    8880022    1    1    2    0    0  0.73550358065E+03 -0.11209407220E+03 -0.18475442968E+04  0.19975840858E+04  0.15294330000E+03 0.  0.
    8880022    1    1    2    0    0 -0.73550358065E+03  0.11209407220E+03 -0.13437485771E+03  0.77134872372E+03  0.15294330000E+03 0.  0.
<mgrwt>
<rscale>  0 0.75955398E+03</rscale>
<asrwt>0</asrwt>
<pdfrwt beam="1">  1        2 0.36545014E+00 0.75955398E+03</pdfrwt>
<pdfrwt beam="2">  1       -2 0.60539513E-01 0.75955398E+03</pdfrwt>
<totfact> 0.10887395E+01</totfact>
</mgrwt>
</event>
<event>
 4    1  0.2202466E-008  0.1089824E+04  0.7818608E-02  0.9215167E-01
          2   -1    0    0  501    0  0.00000000000E+00  0.00000000000E+00  0.38808222647E+04  0.38808222647E+04  0.25500000000E-02 0. -1.
         -2   -1    0    0    0  501 -0.00000000000E+00 -0.00000000000E+00 -0.36234185033E+03  0.36234185034E+03  0.25500000000E-02 0.  1.
    8880022    1    1    2    0    0  0.54252952196E+03 -0.93273120088E+03  0.92299907877E+03  0.14281613101E+04  0.15294330000E+03 0.  0.
    8880022    1    1    2    0    0 -0.54252952196E+03  0.93273120088E+03  0.25954813356E+04  0.28150028049E+04  0.15294330000E+03 0.  0.
<mgrwt>
<rscale>  0 0.10898245E+04</rscale>
<asrwt>0</asrwt>
<pdfrwt beam="1">  1        2 0.59704959E+00 0.10898245E+04</pdfrwt>
<pdfrwt beam="2">  1       -2 0.55744899E-01 0.10898245E+04</pdfrwt>
<totfact> 0.13303407E+00</totfact>
</mgrwt>
</event>
<event>
 4    1  0.2202466E-008  0.1214467E+04  0.7818608E-02  0.9100287E-01
         -2   -1    0    0    0  501 -0.00000000000E+00  0.00000000000E+00  0.22994038426E+04  0.22994038426E+04  0.25500000000E-02 0.  1.
          2   -1    0    0  501    0  0.00000000000E+00 -0.00000000000E+00 -0.12879756137E+04  0.12879756137E+04  0.25500000000E-02 0. -1.
    8880022    1    1    2    0    0 -0.11199802124E+04  0.44405359335E+03  0.17765501881E+04  0.21519901240E+04  0.15294330000E+03 0.  0.
    8880022    1    1    2    0    0  0.11199802124E+04 -0.44405359335E+03 -0.76512195921E+03  0.14353893324E+04  0.15294330000E+03 0.  0.
<mgrwt>
<rscale>  0 0.12144673E+04</rscale>
<asrwt>0</asrwt>
<pdfrwt beam="1">  1        2 0.19815010E+00 0.12144673E+04</pdfrwt>
<pdfrwt beam="2">  1       -2 0.35375443E+00 0.12144673E+04</pdfrwt>
<totfact> 0.24232228E-01</totfact>
</mgrwt>
</event>
<event>
 4    1  0.2202466E-008  0.9724179E+03  0.7818608E-02  0.9339325E-01
         -2   -1    0    0    0  501 -0.00000000000E+00  0.00000000000E+00  0.63250960530E+03  0.63250960530E+03  0.25500000000E-02 0.  1.
          2   -1    0    0  501    0  0.00000000000E+00 -0.00000000000E+00 -0.36290429794E+04  0.36290429794E+04  0.25500000000E-02 0. -1.
    8880022    1    1    2    0    0  0.91363955757E+03 -0.29574925529E+03  0.13570392342E+03  0.98184116384E+03  0.15294330000E+03 0.  0.
    8880022    1    1    2    0    0 -0.91363955757E+03  0.29574925529E+03 -0.31322372976E+04  0.32797114209E+04  0.15294330000E+03 0.  0.
<mgrwt>
<rscale>  0 0.97241787E+03</rscale>
<asrwt>0</asrwt>
<pdfrwt beam="1">  1        2 0.55831429E+00 0.97241787E+03</pdfrwt>
<pdfrwt beam="2">  1       -2 0.97309172E-01 0.97241787E+03</pdfrwt>
<totfact> 0.60462217E-01</totfact>
</mgrwt>
</event>
<event>
 4    1  0.2202466E-008  0.4389806E+03  0.7818608E-02  0.1031060E+00
          2   -1    0    0  501    0  0.00000000000E+00  0.00000000000E+00  0.82743469613E+03  0.82743469614E+03  0.25500000000E-02 0. -1.
         -2   -1    0    0    0  501 -0.00000000000E+00 -0.00000000000E+00 -0.36701335173E+03  0.36701335174E+03  0.25500000000E-02 0.  1.
    8880022    1    1    2    0    0  0.18427564323E+03 -0.36790594089E+03 -0.13081932758E+03  0.45805855905E+03  0.15294330000E+03 0.  0.
    8880022    1    1    2    0    0 -0.18427564323E+03  0.36790594089E+03  0.59124067199E+03  0.73638948883E+03  0.15294330000E+03 0. -1.
<mgrwt>
<rscale>  0 0.43898058E+03</rscale>
<asrwt>0</asrwt>
<pdfrwt beam="1">  1        2 0.12729765E+00 0.43898058E+03</pdfrwt>
<pdfrwt beam="2">  1       -2 0.56463593E-01 0.43898058E+03</pdfrwt>
<totfact> 0.10076366E+02</totfact>
</mgrwt>
</event>
<event>
 4    1  0.2202466E-008  0.9565978E+03  0.7818608E-02  0.9357472E-01
         -2   -1    0    0    0  501 -0.00000000000E+00  0.00000000000E+00  0.98099211707E+03  0.98099211708E+03  0.25500000000E-02 0.  1.
          2   -1    0    0  501    0  0.00000000000E+00 -0.00000000000E+00 -0.13295005057E+04  0.13295005057E+04  0.25500000000E-02 0. -1.
    8880022    1    1    2    0    0  0.29710764414E+03 -0.89633403144E+03  0.45678482712E+03  0.10600621111E+04  0.15294330000E+03 0.  0.
    8880022    1    1    2    0    0 -0.29710764414E+03  0.89633403144E+03 -0.80529321574E+03  0.12504305116E+04  0.15294330000E+03 0.  0.
<mgrwt>
<rscale>  0 0.95659777E+03</rscale>
<asrwt>0</asrwt>
<pdfrwt beam="1">  1        2 0.20453854E+00 0.95659777E+03</pdfrwt>
<pdfrwt beam="2">  1       -2 0.15092186E+00 0.95659777E+03</pdfrwt>
<totfact> 0.46682328E+00</totfact>
</mgrwt>
</event>
<event>
 4    1  0.2202466E-008  0.1208950E+04  0.7818608E-02  0.9105058E-01
         -2   -1    0    0    0  501 -0.00000000000E+00  0.00000000000E+00  0.66527881500E+03  0.66527881500E+03  0.25500000000E-02 0.  1.
          2   -1    0    0  501    0  0.00000000000E+00 -0.00000000000E+00 -0.32184947593E+04  0.32184947593E+04  0.25500000000E-02 0. -1.
    8880022    1    1    2    0    0  0.11514068593E+04 -0.33530705971E+03 -0.18256623366E+03  0.12226572139E+04  0.15294330000E+03 0.  0.
    8880022    1    1    2    0    0 -0.11514068593E+04  0.33530705971E+03 -0.23706497107E+04  0.26611163604E+04  0.15294330000E+03 0.  0.
<mgrwt>
<rscale>  0 0.12089501E+04</rscale>
<asrwt>0</asrwt>
<pdfrwt beam="1">  1        2 0.49515303E+00 0.12089501E+04</pdfrwt>
<pdfrwt beam="2">  1       -2 0.10235059E+00 0.12089501E+04</pdfrwt>
<totfact> 0.97866080E-01</totfact>
</mgrwt>
</event>
<event>
 4    1  0.2202466E-008  0.1080263E+04  0.7818608E-02  0.9224646E-01
          2   -1    0    0  501    0  0.00000000000E+00  0.00000000000E+00  0.26525267678E+04  0.26525267678E+04  0.25500000000E-02 0. -1.
         -2   -1    0    0    0  501 -0.00000000000E+00 -0.00000000000E+00 -0.66020033743E+03  0.66020033743E+03  0.25500000000E-02 0.  1.
    8880022    1    1    2    0    0 -0.95507269257E+03 -0.48105284327E+03  0.39452856599E+02  0.10809828246E+04  0.15294330000E+03 0.  0.
    8880022    1    1    2    0    0  0.95507269257E+03  0.48105284327E+03  0.19528735738E+04  0.22317442807E+04  0.15294330000E+03 0.  0.
<mgrwt>
<rscale>  0 0.10802626E+04</rscale>
<asrwt>0</asrwt>
<pdfrwt beam="1">  1        2 0.40808105E+00 0.10802626E+04</pdfrwt>
<pdfrwt beam="2">  1       -2 0.10156928E+00 0.10802626E+04</pdfrwt>
<totfact> 0.22558526E+00</totfact>
</mgrwt>
</event>
<event>
 4    1  0.2202466E-008  0.9753020E+03  0.7818608E-02  0.9336056E-01
          2   -1    0    0  501    0  0.00000000000E+00  0.00000000000E+00  0.11903713745E+04  0.11903713745E+04  0.25500000000E-02 0. -1.
         -2   -1    0    0    0  501 -0.00000000000E+00 -0.00000000000E+00 -0.14727746407E+04  0.14727746407E+04  0.25500000000E-02 0.  1.
    8880022    1    1    2    0    0 -0.71204371220E+03 -0.64870339014E+03  0.75938422416E+03  0.12360737799E+04  0.15294330000E+03 0.  0.
    8880022    1    1    2    0    0  0.71204371220E+03  0.64870339014E+03 -0.10417874904E+04  0.14270722352E+04  0.15294330000E+03 0.  0.
<mgrwt>
<rscale>  0 0.97530200E+03</rscale>
<asrwt>0</asrwt>
<pdfrwt beam="1">  1        2 0.18313406E+00 0.97530200E+03</pdfrwt>
<pdfrwt beam="2">  1       -2 0.22658071E+00 0.97530200E+03</pdfrwt>
<totfact> 0.17198279E+00</totfact>
</mgrwt>
</event>
<event>
 4    1  0.2202466E-008  0.1139232E+04  0.7818608E-02  0.9167775E-01
         -2   -1    0    0    0  501 -0.00000000000E+00  0.00000000000E+00  0.66580885328E+03  0.66580885328E+03  0.25500000000E-02 0.  1.
          2   -1    0    0  501    0  0.00000000000E+00 -0.00000000000E+00 -0.24534278773E+04  0.24534278773E+04  0.25500000000E-02 0. -1.
    8880022    1    1    2    0    0 -0.10648724443E+04 -0.37483946305E+03 -0.16007934600E+04  0.19647873423E+04  0.15294330000E+03 0.  0.
    8880022    1    1    2    0    0  0.10648724443E+04  0.37483946305E+03 -0.18682556394E+03  0.11544493883E+04  0.15294330000E+03 0.  0.
<mgrwt>
<rscale>  0 0.11392320E+04</rscale>
<asrwt>0</asrwt>
<pdfrwt beam="1">  1        2 0.37745044E+00 0.11392320E+04</pdfrwt>
<pdfrwt beam="2">  1       -2 0.10243213E+00 0.11392320E+04</pdfrwt>
<totfact> 0.28589946E+00</totfact>
</mgrwt>
</event>
<event>
 4    1  0.2202466E-008  0.1160786E+04  0.7818608E-02  0.9147890E-01
          2   -1    0    0  501    0  0.00000000000E+00  0.00000000000E+00  0.17381573377E+04  0.17381573377E+04  0.25500000000E-02 0. -1.
         -2   -1    0    0    0  501 -0.00000000000E+00 -0.00000000000E+00 -0.97400953881E+03  0.97400953881E+03  0.25500000000E-02 0.  1.
    8880022    1    1    2    0    0  0.60615734936E+03 -0.97806251601E+03  0.99473486305E+03  0.15286994859E+04  0.15294330000E+03 0.  0.
    8880022    1    1    2    0    0 -0.60615734936E+03  0.97806251601E+03 -0.23058706417E+03  0.11834673906E+04  0.15294330000E+03 0.  0.
<mgrwt>
<rscale>  0 0.11607862E+04</rscale>
<asrwt>0</asrwt>
<pdfrwt beam="1">  1        2 0.26740882E+00 0.11607862E+04</pdfrwt>
<pdfrwt beam="2">  1       -2 0.14984762E+00 0.11607862E+04</pdfrwt>
<totfact> 0.27392331E+00</totfact>
</mgrwt>
</event>
<event>
 4    1  0.2202466E-008  0.1228842E+04  0.7818608E-02  0.9087979E-01
         -2   -1    0    0    0  501 -0.00000000000E+00  0.00000000000E+00  0.20401986657E+04  0.20401986657E+04  0.25500000000E-02 0.  1.
          2   -1    0    0  501    0  0.00000000000E+00 -0.00000000000E+00 -0.86219781709E+03  0.86219781710E+03  0.25500000000E-02 0. -1.
    8880022    1    1    2    0    0 -0.11826984155E+04 -0.29645316536E+03  0.43004393970E+02  0.12295938566E+04  0.15294330000E+03 0.  0.
    8880022    1    1    2    0    0  0.11826984155E+04  0.29645316536E+03  0.11349964546E+04  0.16728026262E+04  0.15294330000E+03 0.  0.
<mgrwt>
<rscale>  0 0.12288416E+04</rscale>
<asrwt>0</asrwt>
<pdfrwt beam="1">  1        2 0.13264582E+00 0.12288416E+04</pdfrwt>
<pdfrwt beam="2">  1       -2 0.31387672E+00 0.12288416E+04</pdfrwt>
<totfact> 0.79490507E-01</totfact>
</mgrwt>
</event>
<event>
 4    1  0.2202466E-008  0.6891152E+03  0.7818608E-02  0.9736030E-01
         -2   -1    0    0    0  501 -0.00000000000E+00  0.00000000000E+00  0.64874540617E+03  0.64874540618E+03  0.25500000000E-02 0.  1.
          2   -1    0    0  501    0  0.00000000000E+00 -0.00000000000E+00 -0.12179784146E+04  0.12179784146E+04  0.25500000000E-02 0. -1.
    8880022    1    1    2    0    0  0.14757736776E+03  0.65552194737E+03 -0.87419286720E+03  0.11131455094E+04  0.15294330000E+03 0.  0.
    8880022    1    1    2    0    0 -0.14757736776E+03 -0.65552194737E+03  0.30495985877E+03  0.75357831141E+03  0.15294330000E+03 0.  0.
<mgrwt>
<rscale>  0 0.68911520E+03</rscale>
<asrwt>0</asrwt>
<pdfrwt beam="1">  1        2 0.18738129E+00 0.68911520E+03</pdfrwt>
<pdfrwt beam="2">  1       -2 0.99806986E-01 0.68911520E+03</pdfrwt>
<totfact> 0.15750980E+01</totfact>
</mgrwt>
</event>
<event>
 4    1  0.2202466E-008  0.5886833E+03  0.7818608E-02  0.9929167E-01
         -2   -1    0    0    0  501 -0.00000000000E+00  0.00000000000E+00  0.12712039074E+04  0.12712039074E+04  0.25500000000E-02 0.  1.
          2   -1    0    0  501    0  0.00000000000E+00 -0.00000000000E+00 -0.35713804220E+03  0.35713804221E+03  0.25500000000E-02 0. -1.
    8880022    1    1    2    0    0 -0.25766184434E+03  0.50672158144E+03  0.85311718013E+03  0.10365119214E+04  0.15294330000E+03 0.  0.
    8880022    1    1    2    0    0  0.25766184434E+03 -0.50672158144E+03  0.60948685112E+02  0.59183002827E+03  0.15294330000E+03 0.  0.
<mgrwt>
<rscale>  0 0.58868331E+03</rscale>
<asrwt>0</asrwt>
<pdfrwt beam="1">  1        2 0.54944315E-01 0.58868331E+03</pdfrwt>
<pdfrwt beam="2">  1       -2 0.19556983E+00 0.58868331E+03</pdfrwt>
<totfact> 0.13304469E+01</totfact>
</mgrwt>
</event>
<event>
 4    1  0.2202466E-008  0.4426994E+03  0.7818608E-02  0.1029922E+00
          2   -1    0    0  501    0  0.00000000000E+00  0.00000000000E+00  0.83855160780E+03  0.83855160781E+03  0.25500000000E-02 0. -1.
         -2   -1    0    0    0  501 -0.00000000000E+00 -0.00000000000E+00 -0.29484370254E+03  0.29484370256E+03  0.25500000000E-02 0.  1.
    8880022    1    1    2    0    0  0.33477773077E+03  0.24599784922E+03  0.13820872102E+02  0.44291504869E+03  0.15294330000E+03 0.  0.
    8880022    1    1    2    0    0 -0.33477773077E+03 -0.24599784922E+03  0.52988703316E+03  0.69048026167E+03  0.15294330000E+03 0.  0.
<mgrwt>
<rscale>  0 0.44269936E+03</rscale>
<asrwt>0</asrwt>
<pdfrwt beam="1">  1        2 0.12900794E+00 0.44269936E+03</pdfrwt>
<pdfrwt beam="2">  1       -2 0.45360570E-01 0.44269936E+03</pdfrwt>
<totfact> 0.15415114E+02</totfact>
</mgrwt>
</event>
<event>
 4    1  0.2202466E-008  0.1370403E+04  0.7818608E-02  0.8975525E-01
          2   -1    0    0  501    0  0.00000000000E+00  0.00000000000E+00  0.38731761982E+04  0.38731761982E+04  0.25500000000E-02 0. -1.
         -2   -1    0    0    0  501 -0.00000000000E+00 -0.00000000000E+00 -0.66677597689E+03  0.66677597690E+03  0.25500000000E-02 0.  1.
    8880022    1    1    2    0    0 -0.70648139718E+03 -0.11642585168E+04  0.27888298156E+04  0.31073424742E+04  0.15294330000E+03 0.  0.
    8880022    1    1    2    0    0  0.70648139718E+03  0.11642585168E+04  0.41757040568E+03  0.14326097009E+04  0.15294330000E+03 0.  0.
<mgrwt>
<rscale>  0 0.13704034E+04</rscale>
<asrwt>0</asrwt>
<pdfrwt beam="1">  1        2 0.59587327E+00 0.13704034E+04</pdfrwt>
<pdfrwt beam="2">  1       -2 0.10258092E+00 0.13704034E+04</pdfrwt>
<totfact> 0.33001222E-01</totfact>
</mgrwt>
</event>
<event>
 4    1  0.2202466E-008  0.2531315E+04  0.7818608E-02  0.8391913E-01
          2   -1    0    0  501    0  0.00000000000E+00  0.00000000000E+00  0.30485940368E+04  0.30485940368E+04  0.25500000000E-02 0. -1.
         -2   -1    0    0    0  501 -0.00000000000E+00 -0.00000000000E+00 -0.22950004080E+04  0.22950004080E+04  0.25500000000E-02 0.  1.
    8880022    1    1    2    0    0  0.24267461370E+04 -0.70361142794E+03  0.11519861905E+04  0.27811202223E+04  0.15294330000E+03 0.  0.
    8880022    1    1    2    0    0 -0.24267461370E+04  0.70361142794E+03 -0.39839256162E+03  0.25624742225E+04  0.15294330000E+03 0.  0.
<mgrwt>
<rscale>  0 0.25313154E+04</rscale>
<asrwt>0</asrwt>
<pdfrwt beam="1">  1        2 0.46901447E+00 0.25313154E+04</pdfrwt>
<pdfrwt beam="2">  1       -2 0.35307699E+00 0.25313154E+04</pdfrwt>
<totfact> 0.20179690E-02</totfact>
</mgrwt>
</event>
<event>
 4    1  0.2202466E-008  0.2145476E+04  0.7818608E-02  0.8541471E-01
          2   -1    0    0  501    0  0.00000000000E+00  0.00000000000E+00  0.29494539366E+04  0.29494539366E+04  0.25500000000E-02 0. -1.
         -2   -1    0    0    0  501 -0.00000000000E+00 -0.00000000000E+00 -0.20379009869E+04  0.20379009869E+04  0.25500000000E-02 0.  1.
    8880022    1    1    2    0    0  0.19883559041E+04  0.79127438992E+03 -0.75098669040E+03  0.22731139487E+04  0.15294330000E+03 0.  0.
    8880022    1    1    2    0    0 -0.19883559041E+04 -0.79127438992E+03  0.16625396401E+04  0.27142409748E+04  0.15294330000E+03 0.  0.
<mgrwt>
<rscale>  0 0.21454757E+04</rscale>
<asrwt>0</asrwt>
<pdfrwt beam="1">  1        2 0.45376214E+00 0.21454757E+04</pdfrwt>
<pdfrwt beam="2">  1       -2 0.31352323E+00 0.21454757E+04</pdfrwt>
<totfact> 0.42798567E-02</totfact>
</mgrwt>
</event>
<event>
 4    1  0.2202466E-008  0.8381213E+03  0.7818608E-02  0.9506420E-01
          2   -1    0    0  501    0  0.00000000000E+00  0.00000000000E+00  0.18792773352E+04  0.18792773352E+04  0.25500000000E-02 0. -1.
         -2   -1    0    0    0  501 -0.00000000000E+00 -0.00000000000E+00 -0.60444785973E+03  0.60444785973E+03  0.25500000000E-02 0.  1.
    8880022    1    1    2    0    0  0.73902751833E+03  0.36454632413E+03  0.14045679798E+04  0.16356217650E+04  0.15294330000E+03 0.  0.
    8880022    1    1    2    0    0 -0.73902751833E+03 -0.36454632413E+03 -0.12973850436E+03  0.84810342990E+03  0.15294330000E+03 0.  0.
<mgrwt>
<rscale>  0 0.83812132E+03</rscale>
<asrwt>0</asrwt>
<pdfrwt beam="1">  1        2 0.28911959E+00 0.83812132E+03</pdfrwt>
<pdfrwt beam="2">  1       -2 0.92991980E-01 0.83812132E+03</pdfrwt>
<totfact> 0.77895669E+00</totfact>
</mgrwt>
</event>
<event>
 4    1  0.2202466E-008  0.6411708E+03  0.7818608E-02  0.9823489E-01
          2   -1    0    0  501    0  0.00000000000E+00  0.00000000000E+00  0.22346442658E+04  0.22346442658E+04  0.25500000000E-02 0. -1.
         -2   -1    0    0    0  501 -0.00000000000E+00 -0.00000000000E+00 -0.29237602043E+03  0.29237602044E+03  0.25500000000E-02 0.  1.
    8880022    1    1    2    0    0  0.61286372829E+03 -0.11002908097E+03  0.20175342753E+03  0.67216400279E+03  0.15294330000E+03 0.  0.
    8880022    1    1    2    0    0 -0.61286372829E+03  0.11002908097E+03  0.17405148178E+04  0.18548562834E+04  0.15294330000E+03 0.  0.
<mgrwt>
<rscale>  0 0.64117080E+03</rscale>
<asrwt>0</asrwt>
<pdfrwt beam="1">  1        2 0.34379143E+00 0.64117080E+03</pdfrwt>
<pdfrwt beam="2">  1       -2 0.44980926E-01 0.64117080E+03</pdfrwt>
<totfact> 0.24436414E+01</totfact>
</mgrwt>
</event>
<event>
 4    1  0.2202466E-008  0.1168648E+04  0.7818608E-02  0.9140751E-01
         -2   -1    0    0    0  501 -0.00000000000E+00  0.00000000000E+00  0.80477848871E+03  0.80477848872E+03  0.25500000000E-02 0.  1.
          2   -1    0    0  501    0  0.00000000000E+00 -0.00000000000E+00 -0.17268727393E+04  0.17268727393E+04  0.25500000000E-02 0. -1.
    8880022    1    1    2    0    0  0.11333314240E+04 -0.24063551685E+03 -0.29465719455E+03  0.12052220061E+04  0.15294330000E+03 0.  0.
    8880022    1    1    2    0    0 -0.11333314240E+04  0.24063551685E+03 -0.62743705602E+03  0.13264292220E+04  0.15294330000E+03 0.  0.
<mgrwt>
<rscale>  0 0.11686476E+04</rscale>
<asrwt>0</asrwt>
<pdfrwt beam="1">  1        2 0.26567273E+00 0.11686476E+04</pdfrwt>
<pdfrwt beam="2">  1       -2 0.12381208E+00 0.11686476E+04</pdfrwt>
<totfact> 0.45497234E+00</totfact>
</mgrwt>
</event>
<event>
 4    1  0.2202466E-008  0.1385450E+04  0.7818608E-02  0.8964418E-01
         -2   -1    0    0    0  501 -0.00000000000E+00  0.00000000000E+00  0.16866599292E+04  0.16866599292E+04  0.25500000000E-02 0.  1.
          2   -1    0    0  501    0  0.00000000000E+00 -0.00000000000E+00 -0.16658741382E+04  0.16658741382E+04  0.25500000000E-02 0. -1.
    8880022    1    1    2    0    0  0.13756154167E+04  0.61340376515E+02 -0.93317761649E+03  0.16704168741E+04  0.15294330000E+03 0.  0.
    8880022    1    1    2    0    0 -0.13756154167E+04 -0.61340376515E+02  0.95396340746E+03  0.16821171933E+04  0.15294330000E+03 0.  0.
<mgrwt>
<rscale>  0 0.13854501E+04</rscale>
<asrwt>0</asrwt>
<pdfrwt beam="1">  1        2 0.25628833E+00 0.13854501E+04</pdfrwt>
<pdfrwt beam="2">  1       -2 0.25948614E+00 0.13854501E+04</pdfrwt>
<totfact> 0.54744822E-01</totfact>
</mgrwt>
</event>
<event>
 4    1  0.2299817E-008  0.9713339E+03  0.7818608E-02  0.9340556E-01
         -2   -1    0    0    0  501 -0.00000000000E+00  0.00000000000E+00  0.12161198372E+04  0.12161198372E+04  0.25500000000E-02 0.  1.
          2   -1    0    0  501    0  0.00000000000E+00 -0.00000000000E+00 -0.24579524917E+04  0.24579524917E+04  0.25500000000E-02 0. -1.
    8880022    1    1    2    0    0 -0.92446016399E+03 -0.25587357702E+03  0.89879507786E+03  0.13233752783E+04  0.15294330000E+03 0.  0.
    8880022    1    1    2    0    0  0.92446016399E+03  0.25587357702E+03 -0.21406277324E+04  0.23506970506E+04  0.15294330000E+03 0.  0.
<mgrwt>
<rscale>  0 0.97133389E+03</rscale>
<asrwt>0</asrwt>
<pdfrwt beam="1">  1        2 0.37814654E+00 0.97133389E+03</pdfrwt>
<pdfrwt beam="2">  1       -2 0.18709536E+00 0.97133389E+03</pdfrwt>
<totfact> 0.60308575E-01</totfact>
</mgrwt>
</event>
<event>
 4    1  0.2202466E-008  0.7850402E+03  0.7818608E-02  0.9581927E-01
         -2   -1    0    0    0  501 -0.00000000000E+00  0.00000000000E+00  0.56148172064E+03  0.56148172064E+03  0.25500000000E-02 0.  1.
          2   -1    0    0  501    0  0.00000000000E+00 -0.00000000000E+00 -0.24434391319E+04  0.24434391319E+04  0.25500000000E-02 0. -1.
    8880022    1    1    2    0    0  0.64625008692E+03  0.41863741360E+03 -0.20560360324E+04  0.22008117317E+04  0.15294330000E+03 0.  0.
    8880022    1    1    2    0    0 -0.64625008692E+03 -0.41863741360E+03  0.17407862110E+03  0.80410912086E+03  0.15294330000E+03 0.  0.
<mgrwt>
<rscale>  0 0.78504020E+03</rscale>
<asrwt>0</asrwt>
<pdfrwt beam="1">  1        2 0.37591371E+00 0.78504020E+03</pdfrwt>
<pdfrwt beam="2">  1       -2 0.86381804E-01 0.78504020E+03</pdfrwt>
<totfact> 0.45413197E+00</totfact>
</mgrwt>
</event>
<event>
 4    1  0.2202466E-008  0.1581419E+04  0.7818608E-02  0.8832045E-01
         -2   -1    0    0    0  501 -0.00000000000E+00  0.00000000000E+00  0.95367455122E+03  0.95367455122E+03  0.25500000000E-02 0.  1.
          2   -1    0    0  501    0  0.00000000000E+00 -0.00000000000E+00 -0.32351704736E+04  0.32351704736E+04  0.25500000000E-02 0. -1.
    8880022    1    1    2    0    0 -0.81448939826E+03 -0.13468860566E+04 -0.20522876323E+04  0.25909016207E+04  0.15294330000E+03 0.  0.
    8880022    1    1    2    0    0  0.81448939826E+03  0.13468860566E+04 -0.22920829003E+03  0.15979434041E+04  0.15294330000E+03 0.  0.
<mgrwt>
<rscale>  0 0.15814192E+04</rscale>
<asrwt>0</asrwt>
<pdfrwt beam="1">  1        2 0.49771853E+00 0.15814192E+04</pdfrwt>
<pdfrwt beam="2">  1       -2 0.14671916E+00 0.15814192E+04</pdfrwt>
<totfact> 0.36780975E-01</totfact>
</mgrwt>
</event>
<event>
 4    1  0.2202466E-008  0.1431047E+04  0.7818608E-02  0.8931647E-01
         -2   -1    0    0    0  501 -0.00000000000E+00  0.00000000000E+00  0.15412319032E+04  0.15412319032E+04  0.25500000000E-02 0.  1.
          2   -1    0    0  501    0  0.00000000000E+00 -0.00000000000E+00 -0.18273736054E+04  0.18273736054E+04  0.25500000000E-02 0. -1.
    8880022    1    1    2    0    0 -0.14228486398E+04 -0.20543820872E+01 -0.10228991412E+04  0.17590385949E+04  0.15294330000E+03 0.  1.
    8880022    1    1    2    0    0  0.14228486398E+04  0.20543820872E+01  0.73675743900E+03  0.16095669136E+04  0.15294330000E+03 0.  0.
<mgrwt>
<rscale>  0 0.14310465E+04</rscale>
<asrwt>0</asrwt>
<pdfrwt beam="1">  1        2 0.28113440E+00 0.14310465E+04</pdfrwt>
<pdfrwt beam="2">  1       -2 0.23711260E+00 0.14310465E+04</pdfrwt>
<totfact> 0.60798714E-01</totfact>
</mgrwt>
</event>
<event>
 4    1  0.2202466E-008  0.5517504E+03  0.7818608E-02  0.1001090E+00
          2   -1    0    0  501    0  0.00000000000E+00  0.00000000000E+00  0.22022476359E+04  0.22022476359E+04  0.25500000000E-02 0. -1.
         -2   -1    0    0    0  501 -0.00000000000E+00 -0.00000000000E+00 -0.27742016668E+03  0.27742016670E+03  0.25500000000E-02 0.  1.
    8880022    1    1    2    0    0  0.12080682863E+03  0.51618076728E+03  0.84219896960E+02  0.55814112768E+03  0.15294330000E+03 0.  0.
    8880022    1    1    2    0    0 -0.12080682863E+03 -0.51618076728E+03  0.18406075723E+04  0.19215266749E+04  0.15294330000E+03 0.  0.
<mgrwt>
<rscale>  0 0.55175042E+03</rscale>
<asrwt>0</asrwt>
<pdfrwt beam="1">  1        2 0.33880731E+00 0.55175042E+03</pdfrwt>
<pdfrwt beam="2">  1       -2 0.42680027E-01 0.55175042E+03</pdfrwt>
<totfact> 0.28691831E+01</totfact>
</mgrwt>
</event>
<event>
 4    1  0.2202466E-008  0.4542794E+03  0.7818608E-02  0.1026454E+00
         -2   -1    0    0    0  501 -0.00000000000E+00  0.00000000000E+00  0.30115054573E+03  0.30115054574E+03  0.25500000000E-02 0.  1.
          2   -1    0    0  501    0  0.00000000000E+00 -0.00000000000E+00 -0.18373566402E+04  0.18373566402E+04  0.25500000000E-02 0. -1.
    8880022    1    1    2    0    0 -0.56413854666E+02  0.42402312164E+03 -0.16147967668E+04  0.16774797709E+04  0.15294330000E+03 0.  0.
    8880022    1    1    2    0    0  0.56413854666E+02 -0.42402312164E+03  0.78590672275E+02  0.46102741509E+03  0.15294330000E+03 0.  0.
<mgrwt>
<rscale>  0 0.45427941E+03</rscale>
<asrwt>0</asrwt>
<pdfrwt beam="1">  1        2 0.28267024E+00 0.45427941E+03</pdfrwt>
<pdfrwt beam="2">  1       -2 0.46330854E-01 0.45427941E+03</pdfrwt>
<totfact> 0.39123198E+01</totfact>
</mgrwt>
</event>
<event>
 4    1  0.2202466E-008  0.1412575E+04  0.7818608E-02  0.8944766E-01
         -2   -1    0    0    0  501 -0.00000000000E+00  0.00000000000E+00  0.12917955647E+04  0.12917955647E+04  0.25500000000E-02 0.  1.
          2   -1    0    0  501    0  0.00000000000E+00 -0.00000000000E+00 -0.17003061729E+04  0.17003061729E+04  0.25500000000E-02 0. -1.
    8880022    1    1    2    0    0 -0.10952391726E+04  0.87887795714E+03  0.24840397806E+03  0.14342494546E+04  0.15294330000E+03 0.  0.
    8880022    1    1    2    0    0  0.10952391726E+04 -0.87887795714E+03 -0.65691458627E+03  0.15578522829E+04  0.15294330000E+03 0.  0.
<mgrwt>
<rscale>  0 0.14125746E+04</rscale>
<asrwt>0</asrwt>
<pdfrwt beam="1">  1        2 0.26158556E+00 0.14125746E+04</pdfrwt>
<pdfrwt beam="2">  1       -2 0.19873778E+00 0.14125746E+04</pdfrwt>
<totfact> 0.12607155E+00</totfact>
</mgrwt>
</event>
<event>
 4    1  0.2202466E-008  0.1823912E+04  0.7818608E-02  0.8693686E-01
          2   -1    0    0  501    0  0.00000000000E+00  0.00000000000E+00  0.21753705624E+04  0.21753705624E+04  0.25500000000E-02 0. -1.
         -2   -1    0    0    0  501 -0.00000000000E+00 -0.00000000000E+00 -0.17269101813E+04  0.17269101813E+04  0.25500000000E-02 0.  1.
    8880022    1    1    2    0    0  0.10549516847E+04  0.14799796855E+04  0.88435919565E+03  0.20270041358E+04  0.15294330000E+03 0.  0.
    8880022    1    1    2    0    0 -0.10549516847E+04 -0.14799796855E+04 -0.43589881453E+03  0.18752766079E+04  0.15294330000E+03 0.  0.
<mgrwt>
<rscale>  0 0.18239119E+04</rscale>
<asrwt>0</asrwt>
<pdfrwt beam="1">  1        2 0.33467239E+00 0.18239119E+04</pdfrwt>
<pdfrwt beam="2">  1       -2 0.26567849E+00 0.18239119E+04</pdfrwt>
<totfact> 0.24868821E-01</totfact>
</mgrwt>
</event>
<event>
 4    1  0.2202466E-008  0.1402901E+04  0.7818608E-02  0.8951721E-01
          2   -1    0    0  501    0  0.00000000000E+00  0.00000000000E+00  0.42873923524E+04  0.42873923524E+04  0.25500000000E-02 0. -1.
         -2   -1    0    0    0  501 -0.00000000000E+00 -0.00000000000E+00 -0.69898687538E+03  0.69898687538E+03  0.25500000000E-02 0.  1.
    8880022    1    1    2    0    0 -0.12920786854E+04  0.52466506093E+03  0.33347844152E+03  0.14419917751E+04  0.15294330000E+03 0.  0.
    8880022    1    1    2    0    0  0.12920786854E+04 -0.52466506093E+03  0.32549270355E+04  0.35443874527E+04  0.15294330000E+03 0.  0.
<mgrwt>
<rscale>  0 0.14029014E+04</rscale>
<asrwt>0</asrwt>
<pdfrwt beam="1">  1        2 0.65959883E+00 0.14029014E+04</pdfrwt>
<pdfrwt beam="2">  1       -2 0.10753644E+00 0.14029014E+04</pdfrwt>
<totfact> 0.13351174E-01</totfact>
</mgrwt>
</event>
<event>
 4    1  0.2202466E-008  0.3320210E+03  0.7818608E-02  0.1070246E+00
         -2   -1    0    0    0  501 -0.00000000000E+00  0.00000000000E+00  0.31346962255E+03  0.31346962256E+03  0.25500000000E-02 0.  1.
          2   -1    0    0  501    0  0.00000000000E+00 -0.00000000000E+00 -0.11079941238E+04  0.11079941238E+04  0.25500000000E-02 0. -1.
    8880022    1    1    2    0    0 -0.56587015802E+02  0.28921303825E+03  0.18994442276E+03  0.38251380185E+03  0.15294330000E+03 0.  0.
    8880022    1    1    2    0    0  0.56587015802E+02 -0.28921303825E+03 -0.98446892401E+03  0.10389499445E+04  0.15294330000E+03 0.  0.
<mgrwt>
<rscale>  0 0.33202097E+03</rscale>
<asrwt>0</asrwt>
<pdfrwt beam="1">  1        2 0.17046063E+00 0.33202097E+03</pdfrwt>
<pdfrwt beam="2">  1       -2 0.48226096E-01 0.33202097E+03</pdfrwt>
<totfact> 0.93440595E+01</totfact>
</mgrwt>
</event>
<event>
 4    1  0.2202466E-008  0.1020328E+04  0.7818608E-02  0.9286527E-01
          2   -1    0    0  501    0  0.00000000000E+00  0.00000000000E+00  0.26016675975E+04  0.26016675975E+04  0.25500000000E-02 0. -1.
         -2   -1    0    0    0  501 -0.00000000000E+00 -0.00000000000E+00 -0.47923713638E+03  0.47923713639E+03  0.25500000000E-02 0.  1.
    8880022    1    1    2    0    0  0.59019163367E+03 -0.81813850274E+03  0.16869844718E+04  0.19715438203E+04  0.15294330000E+03 0.  0.
    8880022    1    1    2    0    0 -0.59019163367E+03  0.81813850274E+03  0.43544598935E+03  0.11093609137E+04  0.15294330000E+03 0.  0.
<mgrwt>
<rscale>  0 0.10203276E+04</rscale>
<asrwt>0</asrwt>
<pdfrwt beam="1">  1        2 0.40025655E+00 0.10203276E+04</pdfrwt>
<pdfrwt beam="2">  1       -2 0.73728791E-01 0.10203276E+04</pdfrwt>
<totfact> 0.50862387E+00</totfact>
</mgrwt>
</event>
<event>
 4    1  0.2202466E-008  0.1497663E+04  0.7818608E-02  0.8886008E-01
         -2   -1    0    0    0  501 -0.00000000000E+00  0.00000000000E+00  0.19861958514E+04  0.19861958514E+04  0.25500000000E-02 0.  1.
          2   -1    0    0  501    0  0.00000000000E+00 -0.00000000000E+00 -0.12293690780E+04  0.12293690780E+04  0.25500000000E-02 0. -1.
    8880022    1    1    2    0    0 -0.14880998792E+04  0.71853878855E+02  0.83713856875E+03  0.17157496515E+04  0.15294330000E+03 0.  0.
    8880022    1    1    2    0    0  0.14880998792E+04 -0.71853878855E+02 -0.80311795259E+02  0.14998152779E+04  0.15294330000E+03 0.  0.
<mgrwt>
<rscale>  0 0.14976635E+04</rscale>
<asrwt>0</asrwt>
<pdfrwt beam="1">  1        2 0.18913370E+00 0.14976635E+04</pdfrwt>
<pdfrwt beam="2">  1       -2 0.30556859E+00 0.14976635E+04</pdfrwt>
<totfact> 0.50482569E-01</totfact>
</mgrwt>
</event>
<event>
 4    1  0.2202466E-008  0.2562347E+03  0.7818608E-02  0.1109427E+00
          2   -1    0    0  501    0  0.00000000000E+00  0.00000000000E+00  0.16439214595E+04  0.16439214595E+04  0.25500000000E-02 0. -1.
         -2   -1    0    0    0  501 -0.00000000000E+00 -0.00000000000E+00 -0.17041080952E+03  0.17041080954E+03  0.25500000000E-02 0.  1.
    8880022    1    1    2    0    0 -0.16136091915E+03  0.12738618702E+03  0.15305294643E+04  0.15518301070E+04  0.15294330000E+03 0. -1.
    8880022    1    1    2    0    0  0.16136091915E+03 -0.12738618702E+03 -0.57018814333E+02  0.26250216204E+03  0.15294330000E+03 0.  0.
<mgrwt>
<rscale>  0 0.25623474E+03</rscale>
<asrwt>0</asrwt>
<pdfrwt beam="1">  1        2 0.25291099E+00 0.25623474E+03</pdfrwt>
<pdfrwt beam="2">  1       -2 0.26217048E-01 0.25623474E+03</pdfrwt>
<totfact> 0.15130462E+02</totfact>
</mgrwt>
</event>
<event>
 4    1  0.2202466E-008  0.1155348E+04  0.7818608E-02  0.9152864E-01
         -2   -1    0    0    0  501 -0.00000000000E+00  0.00000000000E+00  0.87567652640E+03  0.87567652640E+03  0.25500000000E-02 0.  1.
          2   -1    0    0  501    0  0.00000000000E+00 -0.00000000000E+00 -0.20442130851E+04  0.20442130851E+04  0.25500000000E-02 0. -1.
    8880022    1    1    2    0    0 -0.73837363266E+03  0.87535272741E+03  0.15197541031E+03  0.11653009041E+04  0.15294330000E+03 0.  0.
    8880022    1    1    2    0    0  0.73837363266E+03 -0.87535272741E+03 -0.13205119691E+04  0.17545887074E+04  0.15294330000E+03 0.  0.
<mgrwt>
<rscale>  0 0.11553483E+04</rscale>
<asrwt>0</asrwt>
<pdfrwt beam="1">  1        2 0.31449432E+00 0.11553483E+04</pdfrwt>
<pdfrwt beam="2">  1       -2 0.13471947E+00 0.11553483E+04</pdfrwt>
<totfact> 0.24534113E+00</totfact>
</mgrwt>
</event>
<event>
 4    1  0.2202466E-008  0.6871745E+03  0.7818608E-02  0.9739420E-01
          2   -1    0    0  501    0  0.00000000000E+00  0.00000000000E+00  0.89232913110E+03  0.89232913110E+03  0.25500000000E-02 0. -1.
         -2   -1    0    0    0  501 -0.00000000000E+00 -0.00000000000E+00 -0.19060271902E+04  0.19060271902E+04  0.25500000000E-02 0.  1.
    8880022    1    1    2    0    0 -0.36665351720E+03  0.56069809594E+03  0.68233828726E+03  0.96839782514E+03  0.15294330000E+03 0.  0.
    8880022    1    1    2    0    0  0.36665351720E+03 -0.56069809594E+03 -0.16960363464E+04  0.18299584962E+04  0.15294330000E+03 0.  0.
<mgrwt>
<rscale>  0 0.68717451E+03</rscale>
<asrwt>0</asrwt>
<pdfrwt beam="1">  1        2 0.13728140E+00 0.68717451E+03</pdfrwt>
<pdfrwt beam="2">  1       -2 0.29323495E+00 0.68717451E+03</pdfrwt>
<totfact> 0.10956409E+00</totfact>
</mgrwt>
</event>
<event>
 4    1  0.2202466E-008  0.6649125E+03  0.7818608E-02  0.9779192E-01
         -2   -1    0    0    0  501 -0.00000000000E+00  0.00000000000E+00  0.69150414989E+03  0.69150414990E+03  0.25500000000E-02 0.  1.
          2   -1    0    0  501    0  0.00000000000E+00 -0.00000000000E+00 -0.76429972672E+03  0.76429972672E+03  0.25500000000E-02 0. -1.
    8880022    1    1    2    0    0  0.76853536013E+02  0.64250330863E+03  0.25792245423E+03  0.71318483790E+03  0.15294330000E+03 0.  0.
    8880022    1    1    2    0    0 -0.76853536013E+02 -0.64250330863E+03 -0.33071803105E+03  0.74261903872E+03  0.15294330000E+03 0.  0.
<mgrwt>
<rscale>  0 0.66491249E+03</rscale>
<asrwt>0</asrwt>
<pdfrwt beam="1">  1        2 0.11758457E+00 0.66491249E+03</pdfrwt>
<pdfrwt beam="2">  1       -2 0.10638525E+00 0.66491249E+03</pdfrwt>
<totfact> 0.26641563E+01</totfact>
</mgrwt>
</event>
<event>
 4    1  0.2202466E-008  0.7878076E+03  0.7818608E-02  0.9577835E-01
         -2   -1    0    0    0  501 -0.00000000000E+00  0.00000000000E+00  0.23632138092E+03  0.23632138093E+03  0.25500000000E-02 0.  1.
          2   -1    0    0  501    0  0.00000000000E+00 -0.00000000000E+00 -0.39058991548E+04  0.39058991548E+04  0.25500000000E-02 0. -1.
    8880022    1    1    2    0    0  0.76851811537E+03  0.81418919816E+02 -0.30202488790E+04  0.31213048679E+04  0.15294330000E+03 0.  0.
    8880022    1    1    2    0    0 -0.76851811537E+03 -0.81418919816E+02 -0.64932889494E+03  0.10209156679E+04  0.15294330000E+03 0.  0.
<mgrwt>
<rscale>  0 0.78780758E+03</rscale>
<asrwt>0</asrwt>
<pdfrwt beam="1">  1        2 0.60090751E+00 0.78780758E+03</pdfrwt>
<pdfrwt beam="2">  1       -2 0.36357138E-01 0.78780758E+03</pdfrwt>
<totfact> 0.31672863E+00</totfact>
</mgrwt>
</event>
<event>
 4    1  0.2202466E-008  0.1120591E+04  0.7818608E-02  0.9185351E-01
         -2   -1    0    0    0  501 -0.00000000000E+00  0.00000000000E+00  0.16073139654E+04  0.16073139654E+04  0.25500000000E-02 0.  1.
          2   -1    0    0  501    0  0.00000000000E+00 -0.00000000000E+00 -0.33236606405E+04  0.33236606405E+04  0.25500000000E-02 0. -1.
    8880022    1    1    2    0    0  0.39752390632E+03 -0.10364881675E+04 -0.30145107550E+04  0.32160534390E+04  0.15294330000E+03 0.  0.
    8880022    1    1    2    0    0 -0.39752390632E+03  0.10364881675E+04  0.12981640799E+04  0.17149211670E+04  0.15294330000E+03 0.  0.
<mgrwt>
<rscale>  0 0.11205912E+04</rscale>
<asrwt>0</asrwt>
<pdfrwt beam="1">  1        2 0.51133240E+00 0.11205912E+04</pdfrwt>
<pdfrwt beam="2">  1       -2 0.24727907E+00 0.11205912E+04</pdfrwt>
<totfact> 0.72114189E-02</totfact>
</mgrwt>
</event>
<event>
 4    1  0.2202466E-008  0.1170219E+04  0.7818608E-02  0.9139331E-01
         -2   -1    0    0    0  501 -0.00000000000E+00  0.00000000000E+00  0.72632592512E+03  0.72632592512E+03  0.25500000000E-02 0.  1.
          2   -1    0    0  501    0  0.00000000000E+00 -0.00000000000E+00 -0.34211502281E+04  0.34211502281E+04  0.25500000000E-02 0. -1.
    8880022    1    1    2    0    0  0.39186981640E+03 -0.10919977384E+04 -0.27368161943E+04  0.29765039137E+04  0.15294330000E+03 0.  0.
    8880022    1    1    2    0    0 -0.39186981640E+03  0.10919977384E+04  0.41991891407E+02  0.11709722395E+04  0.15294330000E+03 0.  0.
<mgrwt>
<rscale>  0 0.11702191E+04</rscale>
<asrwt>0</asrwt>
<pdfrwt beam="1">  1        2 0.52633079E+00 0.11702191E+04</pdfrwt>
<pdfrwt beam="2">  1       -2 0.11174245E+00 0.11702191E+04</pdfrwt>
<totfact> 0.58411242E-01</totfact>
</mgrwt>
</event>
<event>
 4    1  0.2202466E-008  0.4864739E+03  0.7818608E-02  0.1017371E+00
          2   -1    0    0  501    0  0.00000000000E+00  0.00000000000E+00  0.21173368668E+04  0.21173368668E+04  0.25500000000E-02 0. -1.
         -2   -1    0    0    0  501 -0.00000000000E+00 -0.00000000000E+00 -0.30497961022E+03  0.30497961024E+03  0.25500000000E-02 0.  1.
    8880022    1    1    2    0    0 -0.40785374481E+03  0.21661140857E+03 -0.57825153145E+02  0.48989854136E+03  0.15294330000E+03 0.  0.
    8880022    1    1    2    0    0  0.40785374481E+03 -0.21661140857E+03  0.18701824097E+04  0.19324179356E+04  0.15294330000E+03 0.  0.
<mgrwt>
<rscale>  0 0.48647388E+03</rscale>
<asrwt>0</asrwt>
<pdfrwt beam="1">  1        2 0.32574414E+00 0.48647388E+03</pdfrwt>
<pdfrwt beam="2">  1       -2 0.46919939E-01 0.48647388E+03</pdfrwt>
<totfact> 0.26798756E+01</totfact>
</mgrwt>
</event>
<event>
 4    1  0.2202466E-008  0.2246221E+03  0.7818608E-02  0.1130483E+00
          2   -1    0    0  501    0  0.00000000000E+00  0.00000000000E+00  0.13843413297E+04  0.13843413297E+04  0.25500000000E-02 0. -1.
         -2   -1    0    0    0  501 -0.00000000000E+00 -0.00000000000E+00 -0.47950093494E+02  0.47950093562E+02  0.25500000000E-02 0.  1.
    8880022    1    1    2    0    0 -0.10142953380E+03 -0.12952017625E+03  0.31743234402E+03  0.38886806558E+03  0.15294330000E+03 0.  0.
    8880022    1    1    2    0    0  0.10142953380E+03  0.12952017625E+03  0.10189588922E+04  0.10434233577E+04  0.15294330000E+03 0. -1.
<mgrwt>
<rscale>  0 0.22462208E+03</rscale>
<asrwt>0</asrwt>
<pdfrwt beam="1">  1        2 0.21297556E+00 0.22462208E+03</pdfrwt>
<pdfrwt beam="2">  1       -2 0.73769385E-02 0.22462208E+03</pdfrwt>
<totfact> 0.16953861E+03</totfact>
</mgrwt>
</event>
<event>
 4    1  0.2202466E-008  0.2944368E+03  0.7818608E-02  0.1088055E+00
         -2   -1    0    0    0  501 -0.00000000000E+00  0.00000000000E+00  0.18269190015E+03  0.18269190016E+03  0.25500000000E-02 0.  1.
          2   -1    0    0  501    0  0.00000000000E+00 -0.00000000000E+00 -0.19093036333E+04  0.19093036333E+04  0.25500000000E-02 0. -1.
    8880022    1    1    2    0    0  0.25038008438E+03 -0.24722591251E+02 -0.17700499635E+04  0.17943717339E+04  0.15294330000E+03 0.  0.
    8880022    1    1    2    0    0 -0.25038008438E+03  0.24722591251E+02  0.43438230370E+02  0.29762379953E+03  0.15294330000E+03 0.  0.
<mgrwt>
<rscale>  0 0.29443683E+03</rscale>
<asrwt>0</asrwt>
<pdfrwt beam="1">  1        2 0.29373901E+00 0.29443683E+03</pdfrwt>
<pdfrwt beam="2">  1       -2 0.28106448E-01 0.29443683E+03</pdfrwt>
<totfact> 0.95832056E+01</totfact>
</mgrwt>
</event>
<event>
 4    1  0.2202466E-008  0.1061747E+04  0.7818608E-02  0.9243300E-01
         -2   -1    0    0    0  501 -0.00000000000E+00  0.00000000000E+00  0.20179264104E+04  0.20179264104E+04  0.25500000000E-02 0.  1.
          2   -1    0    0  501    0  0.00000000000E+00 -0.00000000000E+00 -0.90907787251E+03  0.90907787251E+03  0.25500000000E-02 0. -1.
    8880022    1    1    2    0    0  0.97517310151E+03  0.39109051312E+03 -0.35422183982E+03  0.11192761644E+04  0.15294330000E+03 0.  0.
    8880022    1    1    2    0    0 -0.97517310151E+03 -0.39109051312E+03  0.14630703778E+04  0.18077281186E+04  0.15294330000E+03 0.  0.
<mgrwt>
<rscale>  0 0.10617467E+04</rscale>
<asrwt>0</asrwt>
<pdfrwt beam="1">  1        2 0.13985813E+00 0.10617467E+04</pdfrwt>
<pdfrwt beam="2">  1       -2 0.31045022E+00 0.10617467E+04</pdfrwt>
<totfact> 0.79044571E-01</totfact>
</mgrwt>
</event>
<event>
 4    1  0.2202466E-008  0.9021819E+03  0.7818608E-02  0.9422858E-01
          2   -1    0    0  501    0  0.00000000000E+00  0.00000000000E+00  0.16702316148E+04  0.16702316148E+04  0.25500000000E-02 0. -1.
         -2   -1    0    0    0  501 -0.00000000000E+00 -0.00000000000E+00 -0.10177524250E+04  0.10177524251E+04  0.25500000000E-02 0.  1.
    8880022    1    1    2    0    0  0.34279575283E+03  0.82038505138E+03  0.12965079980E+04  0.15795142299E+04  0.15294330000E+03 0.  0.
    8880022    1    1    2    0    0 -0.34279575283E+03 -0.82038505138E+03 -0.64402880823E+03  0.11084698099E+04  0.15294330000E+03 0.  0.
<mgrwt>
<rscale>  0 0.90218192E+03</rscale>
<asrwt>0</asrwt>
<pdfrwt beam="1">  1        2 0.25695871E+00 0.90218192E+03</pdfrwt>
<pdfrwt beam="2">  1       -2 0.15657730E+00 0.90218192E+03</pdfrwt>
<totfact> 0.27402760E+00</totfact>
</mgrwt>
</event>
<event>
 4    1  0.2202466E-008  0.1344430E+04  0.7818608E-02  0.8995055E-01
          2   -1    0    0  501    0  0.00000000000E+00  0.00000000000E+00  0.25051239247E+04  0.25051239247E+04  0.25500000000E-02 0. -1.
         -2   -1    0    0    0  501 -0.00000000000E+00 -0.00000000000E+00 -0.86530780816E+03  0.86530780816E+03  0.25500000000E-02 0.  1.
    8880022    1    1    2    0    0 -0.11467416569E+04 -0.68489711301E+03  0.13294370739E+03  0.13509871078E+04  0.15294330000E+03 0.  0.
    8880022    1    1    2    0    0  0.11467416569E+04  0.68489711301E+03  0.15068724091E+04  0.20194446250E+04  0.15294330000E+03 0.  0.
<mgrwt>
<rscale>  0 0.13444300E+04</rscale>
<asrwt>0</asrwt>
<pdfrwt beam="1">  1        2 0.38540368E+00 0.13444300E+04</pdfrwt>
<pdfrwt beam="2">  1       -2 0.13312428E+00 0.13444300E+04</pdfrwt>
<totfact> 0.13612182E+00</totfact>
</mgrwt>
</event>
<event>
 4    1  0.2202466E-008  0.6791051E+03  0.7818608E-02  0.9753648E-01
         -2   -1    0    0    0  501 -0.00000000000E+00  0.00000000000E+00  0.12376672174E+04  0.12376672174E+04  0.25500000000E-02 0.  1.
          2   -1    0    0  501    0  0.00000000000E+00 -0.00000000000E+00 -0.14074481646E+04  0.14074481646E+04  0.25500000000E-02 0. -1.
    8880022    1    1    2    0    0 -0.49714216549E+03  0.43662548044E+03 -0.12189394805E+04  0.13953484342E+04  0.15294330000E+03 0.  0.
    8880022    1    1    2    0    0  0.49714216549E+03 -0.43662548044E+03  0.10491585333E+04  0.12497669478E+04  0.15294330000E+03 0.  0.
<mgrwt>
<rscale>  0 0.67910514E+03</rscale>
<asrwt>0</asrwt>
<pdfrwt beam="1">  1        2 0.21653049E+00 0.67910514E+03</pdfrwt>
<pdfrwt beam="2">  1       -2 0.19041034E+00 0.67910514E+03</pdfrwt>
<totfact> 0.23002323E+00</totfact>
</mgrwt>
</event>
<event>
 4    1  0.2202466E-008  0.2151191E+04  0.7818608E-02  0.8539023E-01
         -2   -1    0    0    0  501 -0.00000000000E+00  0.00000000000E+00  0.11988896009E+04  0.11988896009E+04  0.25500000000E-02 0.  1.
          2   -1    0    0  501    0  0.00000000000E+00 -0.00000000000E+00 -0.43189519290E+04  0.43189519290E+04  0.25500000000E-02 0. -1.
    8880022    1    1    2    0    0  0.14768069171E+04 -0.15566857597E+04 -0.24594673050E+04  0.32675067410E+04  0.15294330000E+03 0.  0.
    8880022    1    1    2    0    0 -0.14768069171E+04  0.15566857597E+04 -0.66059502309E+03  0.22503347890E+04  0.15294330000E+03 0.  0.
<mgrwt>
<rscale>  0 0.21511906E+04</rscale>
<asrwt>0</asrwt>
<pdfrwt beam="1">  1        2 0.66445414E+00 0.21511906E+04</pdfrwt>
<pdfrwt beam="2">  1       -2 0.18444456E+00 0.21511906E+04</pdfrwt>
<totfact> 0.27300985E-02</totfact>
</mgrwt>
</event>
<event>
 4    1  0.2202466E-008  0.8588428E+03  0.7818608E-02  0.9478545E-01
         -2   -1    0    0    0  501 -0.00000000000E+00  0.00000000000E+00  0.38903948944E+03  0.38903948945E+03  0.25500000000E-02 0.  1.
          2   -1    0    0  501    0  0.00000000000E+00 -0.00000000000E+00 -0.19357416281E+04  0.19357416281E+04  0.25500000000E-02 0. -1.
    8880022    1    1    2    0    0  0.84024899499E+03 -0.90558663144E+02 -0.60675560634E+03  0.10515527870E+04  0.15294330000E+03 0.  0.
    8880022    1    1    2    0    0 -0.84024899499E+03  0.90558663144E+02 -0.93994653233E+03  0.12732283305E+04  0.15294330000E+03 0.  0.
<mgrwt>
<rscale>  0 0.85884277E+03</rscale>
<asrwt>0</asrwt>
<pdfrwt beam="1">  1        2 0.29780640E+00 0.85884277E+03</pdfrwt>
<pdfrwt beam="2">  1       -2 0.59852231E-01 0.85884277E+03</pdfrwt>
<totfact> 0.19234433E+01</totfact>
</mgrwt>
</event>
<event>
 4    1  0.2912478E-008  0.1440652E+04  0.7818608E-02  0.8924907E-01
          2   -1    0    0  501    0  0.00000000000E+00  0.00000000000E+00  0.18050820070E+04  0.18050820070E+04  0.25500000000E-02 0. -1.
         -2   -1    0    0    0  501 -0.00000000000E+00 -0.00000000000E+00 -0.19047417744E+04  0.19047417744E+04  0.25500000000E-02 0.  1.
    8880022    1    1    2    0    0 -0.12864966144E+04 -0.63009001151E+03  0.11179546145E+04  0.18235408234E+04  0.15294330000E+03 0.  0.
    8880022    1    1    2    0    0  0.12864966144E+04  0.63009001151E+03 -0.12176143819E+04  0.18862829580E+04  0.15294330000E+03 0.  0.
<mgrwt>
<rscale>  0 0.14406521E+04</rscale>
<asrwt>0</asrwt>
<pdfrwt beam="1">  1        2 0.27770492E+00 0.14406521E+04</pdfrwt>
<pdfrwt beam="2">  1       -2 0.29303720E+00 0.14406521E+04</pdfrwt>
<totfact> 0.28406577E-01</totfact>
</mgrwt>
</event>
<event>
 4    1  0.2202466E-008  0.7130204E+03  0.7818608E-02  0.9695221E-01
          2   -1    0    0  501    0  0.00000000000E+00  0.00000000000E+00  0.19874585439E+04  0.19874585439E+04  0.25500000000E-02 0. -1.
         -2   -1    0    0    0  501 -0.00000000000E+00 -0.00000000000E+00 -0.49138851527E+03  0.49138851528E+03  0.25500000000E-02 0.  1.
    8880022    1    1    2    0    0  0.43550478792E+03 -0.54345374772E+03  0.16062210419E+04  0.17573685114E+04  0.15294330000E+03 0.  0.
    8880022    1    1    2    0    0 -0.43550478792E+03  0.54345374772E+03 -0.11015101330E+03  0.72147854781E+03  0.15294330000E+03 0.  0.
<mgrwt>
<rscale>  0 0.71302037E+03</rscale>
<asrwt>0</asrwt>
<pdfrwt beam="1">  1        2 0.30576285E+00 0.71302037E+03</pdfrwt>
<pdfrwt beam="2">  1       -2 0.75598234E-01 0.71302037E+03</pdfrwt>
<totfact> 0.11086696E+01</totfact>
</mgrwt>
</event>
<event>
 4    1  0.2202466E-008  0.9975451E+03  0.7818608E-02  0.9311241E-01
         -2   -1    0    0    0  501 -0.00000000000E+00  0.00000000000E+00  0.19594937875E+04  0.19594937875E+04  0.25500000000E-02 0.  1.
          2   -1    0    0  501    0  0.00000000000E+00 -0.00000000000E+00 -0.14920270997E+04  0.14920270997E+04  0.25500000000E-02 0. -1.
    8880022    1    1    2    0    0  0.91971403451E+03  0.35472627845E+03  0.16353603485E+04  0.19155938402E+04  0.15294330000E+03 0.  0.
    8880022    1    1    2    0    0 -0.91971403451E+03 -0.35472627845E+03 -0.11678936607E+04  0.15359270470E+04  0.15294330000E+03 0.  0.
<mgrwt>
<rscale>  0 0.99754513E+03</rscale>
<asrwt>0</asrwt>
<pdfrwt beam="1">  1        2 0.22954263E+00 0.99754513E+03</pdfrwt>
<pdfrwt beam="2">  1       -2 0.30146058E+00 0.99754513E+03</pdfrwt>
<totfact> 0.40170917E-01</totfact>
</mgrwt>
</event>
<event>
 4    1  0.2202466E-008  0.8465868E+03  0.7818608E-02  0.9494930E-01
         -2   -1    0    0    0  501 -0.00000000000E+00  0.00000000000E+00  0.14554125613E+04  0.14554125613E+04  0.25500000000E-02 0.  1.
          2   -1    0    0  501    0  0.00000000000E+00 -0.00000000000E+00 -0.13833519606E+04  0.13833519606E+04  0.25500000000E-02 0. -1.
    8880022    1    1    2    0    0 -0.29923433072E+03  0.77703044184E+03 -0.11030371831E+04  0.13904676093E+04  0.15294330000E+03 0.  0.
    8880022    1    1    2    0    0  0.29923433072E+03 -0.77703044184E+03  0.11750977838E+04  0.14482969125E+04  0.15294330000E+03 0.  0.
<mgrwt>
<rscale>  0 0.84658676E+03</rscale>
<asrwt>0</asrwt>
<pdfrwt beam="1">  1        2 0.21282338E+00 0.84658676E+03</pdfrwt>
<pdfrwt beam="2">  1       -2 0.22390962E+00 0.84658676E+03</pdfrwt>
<totfact> 0.14052528E+00</totfact>
</mgrwt>
</event>
<event>
 4    1  0.2202466E-008  0.7947412E+03  0.7818608E-02  0.9567660E-01
          2   -1    0    0  501    0  0.00000000000E+00  0.00000000000E+00  0.16670683315E+04  0.16670683315E+04  0.25500000000E-02 0. -1.
         -2   -1    0    0    0  501 -0.00000000000E+00 -0.00000000000E+00 -0.20299918474E+04  0.20299918474E+04  0.25500000000E-02 0.  1.
    8880022    1    1    2    0    0  0.77836316806E+03  0.48711010376E+02  0.14856627476E+04  0.16848760893E+04  0.15294330000E+03 0.  0.
    8880022    1    1    2    0    0 -0.77836316806E+03 -0.48711010376E+02 -0.18485862635E+04  0.20121840896E+04  0.15294330000E+03 0.  0.
<mgrwt>
<rscale>  0 0.79474124E+03</rscale>
<asrwt>0</asrwt>
<pdfrwt beam="1">  1        2 0.25647205E+00 0.79474124E+03</pdfrwt>
<pdfrwt beam="2">  1       -2 0.31230644E+00 0.79474124E+03</pdfrwt>
<totfact> 0.28705757E-01</totfact>
</mgrwt>
</event>
<event>
 4    1  0.2202466E-008  0.9168850E+03  0.7818608E-02  0.9404717E-01
          2   -1    0    0  501    0  0.00000000000E+00  0.00000000000E+00  0.16352350428E+04  0.16352350428E+04  0.25500000000E-02 0. -1.
         -2   -1    0    0    0  501 -0.00000000000E+00 -0.00000000000E+00 -0.88715015172E+03  0.88715015172E+03  0.25500000000E-02 0.  1.
    8880022    1    1    2    0    0  0.43392801308E+03 -0.79309071038E+03  0.11918763976E+04  0.15037444582E+04  0.15294330000E+03 0.  0.
    8880022    1    1    2    0    0 -0.43392801308E+03  0.79309071038E+03 -0.44379150651E+03  0.10186407363E+04  0.15294330000E+03 0.  0.
<mgrwt>
<rscale>  0 0.91688497E+03</rscale>
<asrwt>0</asrwt>
<pdfrwt beam="1">  1        2 0.25157462E+00 0.91688497E+03</pdfrwt>
<pdfrwt beam="2">  1       -2 0.13648464E+00 0.91688497E+03</pdfrwt>
<totfact> 0.41061089E+00</totfact>
</mgrwt>
</event>
<event>
 4    1  0.2202466E-008  0.1547321E+03  0.7818608E-02  0.1194776E+00
          2   -1    0    0  501    0  0.00000000000E+00  0.00000000000E+00  0.19922758329E+04  0.19922758329E+04  0.25500000000E-02 0. -1.
         -2   -1    0    0    0  501 -0.00000000000E+00 -0.00000000000E+00 -0.16174567830E+03  0.16174567832E+03  0.25500000000E-02 0.  1.
    8880022    1    1    2    0    0  0.14052670897E+02 -0.18785202990E+02  0.19514937014E+04  0.19576183696E+04  0.15294330000E+03 0. -1.
    8880022    1    1    2    0    0 -0.14052670897E+02  0.18785202990E+02 -0.12096354674E+03  0.19640314169E+03  0.15294330000E+03 0.  0.
<mgrwt>
<rscale>  0 0.15473207E+03</rscale>
<asrwt>0</asrwt>
<pdfrwt beam="1">  1        2 0.30650398E+00 0.15473207E+03</pdfrwt>
<pdfrwt beam="2">  1       -2 0.24883950E-01 0.15473207E+03</pdfrwt>
<totfact> 0.11335599E+02</totfact>
</mgrwt>
</event>
<event>
 4    1  0.2202466E-008  0.1072827E+04  0.7818608E-02  0.9232088E-01
          2   -1    0    0  501    0  0.00000000000E+00  0.00000000000E+00  0.14226248847E+04  0.14226248847E+04  0.25500000000E-02 0. -1.
         -2   -1    0    0    0  501 -0.00000000000E+00 -0.00000000000E+00 -0.95751712898E+03  0.95751712898E+03  0.25500000000E-02 0.  1.
    8880022    1    1    2    0    0  0.10586663990E+04 -0.82417379995E+02  0.70118490561E+03  0.12816470239E+04  0.15294330000E+03 0.  0.
    8880022    1    1    2    0    0 -0.10586663990E+04  0.82417379995E+02 -0.23607714990E+03  0.10984949898E+04  0.15294330000E+03 0.  0.
<mgrwt>
<rscale>  0 0.10728275E+04</rscale>
<asrwt>0</asrwt>
<pdfrwt beam="1">  1        2 0.21886537E+00 0.10728275E+04</pdfrwt>
<pdfrwt beam="2">  1       -2 0.14731033E+00 0.10728275E+04</pdfrwt>
<totfact> 0.43465360E+00</totfact>
</mgrwt>
</event>
<event>
 4    1  0.2202466E-008  0.1247016E+04  0.7818608E-02  0.9072670E-01
         -2   -1    0    0    0  501 -0.00000000000E+00  0.00000000000E+00  0.62839237216E+03  0.62839237216E+03  0.25500000000E-02 0.  1.
          2   -1    0    0  501    0  0.00000000000E+00 -0.00000000000E+00 -0.33433496449E+04  0.33433496449E+04  0.25500000000E-02 0. -1.
    8880022    1    1    2    0    0 -0.70881127290E+03  0.10145171056E+04 -0.34521084735E+03  0.12939167517E+04  0.15294330000E+03 0.  0.
    8880022    1    1    2    0    0  0.70881127290E+03 -0.10145171056E+04 -0.23697464253E+04  0.26778252653E+04  0.15294330000E+03 0.  0.
<mgrwt>
<rscale>  0 0.12470165E+04</rscale>
<asrwt>0</asrwt>
<pdfrwt beam="1">  1        2 0.51436147E+00 0.12470165E+04</pdfrwt>
<pdfrwt beam="2">  1       -2 0.96675751E-01 0.12470165E+04</pdfrwt>
<totfact> 0.92348460E-01</totfact>
</mgrwt>
</event>
<event>
 4    1  0.2202466E-008  0.5159225E+03  0.7818608E-02  0.1009704E+00
         -2   -1    0    0    0  501 -0.00000000000E+00  0.00000000000E+00  0.33577486224E+03  0.33577486225E+03  0.25500000000E-02 0.  1.
          2   -1    0    0  501    0  0.00000000000E+00 -0.00000000000E+00 -0.15293722234E+04  0.15293722234E+04  0.25500000000E-02 0. -1.
    8880022    1    1    2    0    0  0.16370541779E+03 -0.46474180967E+03  0.50429175980E+02  0.51838129622E+03  0.15294330000E+03 0.  0.
    8880022    1    1    2    0    0 -0.16370541779E+03  0.46474180967E+03 -0.12440265371E+04  0.13467657894E+04  0.15294330000E+03 0.  0.
<mgrwt>
<rscale>  0 0.51592254E+03</rscale>
<asrwt>0</asrwt>
<pdfrwt beam="1">  1        2 0.23528803E+00 0.51592254E+03</pdfrwt>
<pdfrwt beam="2">  1       -2 0.51657672E-01 0.51592254E+03</pdfrwt>
<totfact> 0.45590581E+01</totfact>
</mgrwt>
</event>
<event>
 4    1  0.2202466E-008  0.6050082E+03  0.7818608E-02  0.9895070E-01
         -2   -1    0    0    0  501 -0.00000000000E+00  0.00000000000E+00  0.80313570939E+03  0.80313570939E+03  0.25500000000E-02 0.  1.
          2   -1    0    0  501    0  0.00000000000E+00 -0.00000000000E+00 -0.17512222415E+04  0.17512222415E+04  0.25500000000E-02 0. -1.
    8880022    1    1    2    0    0  0.32904293627E+03  0.48412188050E+03 -0.15725278674E+04  0.16848972656E+04  0.15294330000E+03 0.  0.
    8880022    1    1    2    0    0 -0.32904293627E+03 -0.48412188050E+03  0.62444133523E+03  0.86946068528E+03  0.15294330000E+03 0.  0.
<mgrwt>
<rscale>  0 0.60500818E+03</rscale>
<asrwt>0</asrwt>
<pdfrwt beam="1">  1        2 0.26941881E+00 0.60500818E+03</pdfrwt>
<pdfrwt beam="2">  1       -2 0.12355934E+00 0.60500818E+03</pdfrwt>
<totfact> 0.47941784E+00</totfact>
</mgrwt>
</event>
<event>
 4    1  0.2202466E-008  0.5051537E+03  0.7818608E-02  0.1012442E+00
         -2   -1    0    0    0  501 -0.00000000000E+00  0.00000000000E+00  0.39512033539E+03  0.39512033540E+03  0.25500000000E-02 0.  1.
          2   -1    0    0  501    0  0.00000000000E+00 -0.00000000000E+00 -0.15233891056E+04  0.15233891056E+04  0.25500000000E-02 0. -1.
    8880022    1    1    2    0    0  0.20960333322E+03 -0.43342242896E+03 -0.12921939846E+04  0.13874240541E+04  0.15294330000E+03 0.  0.
    8880022    1    1    2    0    0 -0.20960333322E+03  0.43342242896E+03  0.16392521436E+03  0.53108538686E+03  0.15294330000E+03 0.  0.
<mgrwt>
<rscale>  0 0.50515365E+03</rscale>
<asrwt>0</asrwt>
<pdfrwt beam="1">  1        2 0.23436755E+00 0.50515365E+03</pdfrwt>
<pdfrwt beam="2">  1       -2 0.60787745E-01 0.50515365E+03</pdfrwt>
<totfact> 0.32850322E+01</totfact>
</mgrwt>
</event>
<event>
 4    1  0.2202466E-008  0.7288172E+03  0.7818608E-02  0.9669182E-01
          2   -1    0    0  501    0  0.00000000000E+00  0.00000000000E+00  0.71180182476E+03  0.71180182477E+03  0.25500000000E-02 0. -1.
         -2   -1    0    0    0  501 -0.00000000000E+00 -0.00000000000E+00 -0.14751366770E+04  0.14751366770E+04  0.25500000000E-02 0.  1.
    8880022    1    1    2    0    0 -0.68934689716E+03  0.18050944375E+03 -0.11503086167E+04  0.13617578238E+04  0.15294330000E+03 0.  0.
    8880022    1    1    2    0    0  0.68934689716E+03 -0.18050944375E+03  0.38697376449E+03  0.82518067798E+03  0.15294330000E+03 0.  0.
<mgrwt>
<rscale>  0 0.72881716E+03</rscale>
<asrwt>0</asrwt>
<pdfrwt beam="1">  1        2 0.10950797E+00 0.72881716E+03</pdfrwt>
<pdfrwt beam="2">  1       -2 0.22694410E+00 0.72881716E+03</pdfrwt>
<totfact> 0.36880223E+00</totfact>
</mgrwt>
</event>
<event>
 4    1  0.2202466E-008  0.9406471E+03  0.7818608E-02  0.9376150E-01
          2   -1    0    0  501    0  0.00000000000E+00  0.00000000000E+00  0.29346705127E+04  0.29346705127E+04  0.25500000000E-02 0. -1.
         -2   -1    0    0    0  501 -0.00000000000E+00 -0.00000000000E+00 -0.61292824932E+03  0.61292824933E+03  0.25500000000E-02 0.  1.
    8880022    1    1    2    0    0  0.13056264308E+03 -0.91890080591E+03 -0.10350243016E+03  0.94632431065E+03  0.15294330000E+03 0.  0.
    8880022    1    1    2    0    0 -0.13056264308E+03  0.91890080591E+03  0.24252446936E+04  0.26012744514E+04  0.15294330000E+03 0.  0.
<mgrwt>
<rscale>  0 0.94064709E+03</rscale>
<asrwt>0</asrwt>
<pdfrwt beam="1">  1        2 0.45148777E+00 0.94064709E+03</pdfrwt>
<pdfrwt beam="2">  1       -2 0.94296654E-01 0.94064709E+03</pdfrwt>
<totfact> 0.18646371E+00</totfact>
</mgrwt>
</event>
<event>
 4    1  0.2202466E-008  0.9057381E+03  0.7818608E-02  0.9418437E-01
         -2   -1    0    0    0  501 -0.00000000000E+00  0.00000000000E+00  0.15013763341E+04  0.15013763341E+04  0.25500000000E-02 0.  1.
          2   -1    0    0  501    0  0.00000000000E+00 -0.00000000000E+00 -0.58619478462E+03  0.58619478463E+03  0.25500000000E-02 0. -1.
    8880022    1    1    2    0    0  0.86394674372E+03  0.22486868057E+03  0.18565348008E+03  0.92456950370E+03  0.15294330000E+03 0.  0.
    8880022    1    1    2    0    0 -0.86394674372E+03 -0.22486868057E+03  0.72952806938E+03  0.11630016150E+04  0.15294330000E+03 0.  0.
<mgrwt>
<rscale>  0 0.90573813E+03</rscale>
<asrwt>0</asrwt>
<pdfrwt beam="1">  1        2 0.90183816E-01 0.90573813E+03</pdfrwt>
<pdfrwt beam="2">  1       -2 0.23098097E+00 0.90573813E+03</pdfrwt>
<totfact> 0.43291805E+00</totfact>
</mgrwt>
</event>
<event>
 4    1  0.2202466E-008  0.1766673E+04  0.7818608E-02  0.8724226E-01
          2   -1    0    0  501    0  0.00000000000E+00  0.00000000000E+00  0.23049086602E+04  0.23049086602E+04  0.25500000000E-02 0. -1.
         -2   -1    0    0    0  501 -0.00000000000E+00 -0.00000000000E+00 -0.15024984106E+04  0.15024984106E+04  0.25500000000E-02 0.  1.
    8880022    1    1    2    0    0  0.91580870060E+03 -0.15030085633E+04  0.99944025624E+03  0.20297814651E+04  0.15294330000E+03 0.  0.
    8880022    1    1    2    0    0 -0.91580870060E+03  0.15030085633E+04 -0.19703000672E+03  0.17776256057E+04  0.15294330000E+03 0.  0.
<mgrwt>
<rscale>  0 0.17666726E+04</rscale>
<asrwt>0</asrwt>
<pdfrwt beam="1">  1        2 0.35460133E+00 0.17666726E+04</pdfrwt>
<pdfrwt beam="2">  1       -2 0.23115360E+00 0.17666726E+04</pdfrwt>
<totfact> 0.34550659E-01</totfact>
</mgrwt>
</event>
<event>
 4    1  0.2202466E-008  0.7540733E+03  0.7818608E-02  0.9628982E-01
         -2   -1    0    0    0  501 -0.00000000000E+00  0.00000000000E+00  0.10745327036E+04  0.10745327036E+04  0.25500000000E-02 0.  1.
          2   -1    0    0  501    0  0.00000000000E+00 -0.00000000000E+00 -0.32307560078E+04  0.32307560078E+04  0.25500000000E-02 0. -1.
    8880022    1    1    2    0    0 -0.72986933986E+03  0.11191778792E+03 -0.30465798588E+04  0.31385148293E+04  0.15294330000E+03 0.  0.
    8880022    1    1    2    0    0  0.72986933986E+03 -0.11191778792E+03  0.89035655465E+03  0.11667738821E+04  0.15294330000E+03 0.  0.
<mgrwt>
<rscale>  0 0.75407327E+03</rscale>
<asrwt>0</asrwt>
<pdfrwt beam="1">  1        2 0.49703938E+00 0.75407327E+03</pdfrwt>
<pdfrwt beam="2">  1       -2 0.16531272E+00 0.75407327E+03</pdfrwt>
<totfact> 0.30774294E-01</totfact>
</mgrwt>
</event>
<event>
 4    1  0.2202466E-008  0.2038064E+03  0.7818608E-02  0.1146567E+00
         -2   -1    0    0    0  501 -0.00000000000E+00  0.00000000000E+00  0.98752164824E+02  0.98752164857E+02  0.25500000000E-02 0.  1.
          2   -1    0    0  501    0  0.00000000000E+00 -0.00000000000E+00 -0.97509672369E+03  0.97509672369E+03  0.25500000000E-02 0. -1.
    8880022    1    1    2    0    0  0.13468620298E+03 -0.22366695030E+01 -0.84305702097E+03  0.86734201419E+03  0.15294330000E+03 0.  0.
    8880022    1    1    2    0    0 -0.13468620298E+03  0.22366695030E+01 -0.33287537900E+02  0.20650687436E+03  0.15294330000E+03 0.  1.
<mgrwt>
<rscale>  0 0.20380635E+03</rscale>
<asrwt>0</asrwt>
<pdfrwt beam="1">  1        2 0.15001487E+00 0.20380635E+03</pdfrwt>
<pdfrwt beam="2">  1       -2 0.15192641E-01 0.20380635E+03</pdfrwt>
<totfact> 0.91629218E+02</totfact>
</mgrwt>
</event>
<event>
 4    1  0.2202466E-008  0.1959819E+03  0.7818608E-02  0.1153174E+00
          2   -1    0    0  501    0  0.00000000000E+00  0.00000000000E+00  0.14635315028E+03  0.14635315030E+03  0.25500000000E-02 0. -1.
         -2   -1    0    0    0  501 -0.00000000000E+00 -0.00000000000E+00 -0.58013817640E+03  0.58013817640E+03  0.25500000000E-02 0.  1.
    8880022    1    1    2    0    0 -0.28409696312E+02 -0.11920627903E+03 -0.48570050062E+03  0.52374982303E+03  0.15294330000E+03 0.  1.
    8880022    1    1    2    0    0  0.28409696312E+02  0.11920627903E+03  0.51915474498E+02  0.20274150367E+03  0.15294330000E+03 0.  0.
<mgrwt>
<rscale>  0 0.19598189E+03</rscale>
<asrwt>0</asrwt>
<pdfrwt beam="1">  1        2 0.22515870E-01 0.19598189E+03</pdfrwt>
<pdfrwt beam="2">  1       -2 0.89252026E-01 0.19598189E+03</pdfrwt>
<totfact> 0.27115243E+02</totfact>
</mgrwt>
</event>
<event>
 4    1  0.2202466E-008  0.7916600E+03  0.7818608E-02  0.9572168E-01
         -2   -1    0    0    0  501 -0.00000000000E+00  0.00000000000E+00  0.11425321295E+04  0.11425321295E+04  0.25500000000E-02 0.  1.
          2   -1    0    0  501    0  0.00000000000E+00 -0.00000000000E+00 -0.24025315036E+04  0.24025315036E+04  0.25500000000E-02 0. -1.
    8880022    1    1    2    0    0  0.76971295064E+03 -0.10428737081E+03  0.92708869800E+03  0.12191058154E+04  0.15294330000E+03 0.  1.
    8880022    1    1    2    0    0 -0.76971295064E+03  0.10428737081E+03 -0.21870880720E+04  0.23259578177E+04  0.15294330000E+03 0.  0.
<mgrwt>
<rscale>  0 0.79165999E+03</rscale>
<asrwt>0</asrwt>
<pdfrwt beam="1">  1        2 0.36962023E+00 0.79165999E+03</pdfrwt>
<pdfrwt beam="2">  1       -2 0.17577417E+00 0.79165999E+03</pdfrwt>
<totfact> 0.80159373E-01</totfact>
</mgrwt>
</event>
<event>
 4    1  0.2202466E-008  0.8443353E+03  0.7818608E-02  0.9497972E-01
          2   -1    0    0  501    0  0.00000000000E+00  0.00000000000E+00  0.42125358768E+03  0.42125358769E+03  0.25500000000E-02 0. -1.
         -2   -1    0    0    0  501 -0.00000000000E+00 -0.00000000000E+00 -0.17723786670E+04  0.17723786670E+04  0.25500000000E-02 0.  1.
    8880022    1    1    2    0    0 -0.81821080401E+03 -0.14156805344E+03 -0.44247464078E+03  0.95325017404E+03  0.15294330000E+03 0.  0.
    8880022    1    1    2    0    0  0.81821080401E+03  0.14156805344E+03 -0.90865043857E+03  0.12403820807E+04  0.15294330000E+03 0.  0.
<mgrwt>
<rscale>  0 0.84433529E+03</rscale>
<asrwt>0</asrwt>
<pdfrwt beam="1">  1        2 0.64808245E-01 0.84433529E+03</pdfrwt>
<pdfrwt beam="2">  1       -2 0.27267364E+00 0.84433529E+03</pdfrwt>
<totfact> 0.35754588E+00</totfact>
</mgrwt>
</event>
<event>
 4    1  0.2202466E-008  0.9858896E+03  0.7818608E-02  0.9324158E-01
          2   -1    0    0  501    0  0.00000000000E+00  0.00000000000E+00  0.35686764812E+04  0.35686764812E+04  0.25500000000E-02 0. -1.
         -2   -1    0    0    0  501 -0.00000000000E+00 -0.00000000000E+00 -0.35602790541E+03  0.35602790542E+03  0.25500000000E-02 0.  1.
    8880022    1    1    2    0    0 -0.79100678711E+02 -0.97073665697E+03  0.65505261423E+03  0.11836689381E+04  0.15294330000E+03 0.  0.
    8880022    1    1    2    0    0  0.79100678711E+02  0.97073665697E+03  0.25575959615E+04  0.27410354485E+04  0.15294330000E+03 0.  0.
<mgrwt>
<rscale>  0 0.98588956E+03</rscale>
<asrwt>0</asrwt>
<pdfrwt beam="1">  1        2 0.54902714E+00 0.98588956E+03</pdfrwt>
<pdfrwt beam="2">  1       -2 0.54773525E-01 0.98588956E+03</pdfrwt>
<totfact> 0.23746172E+00</totfact>
</mgrwt>
</event>
<event>
 4    1  0.2202466E-008  0.6740252E+03  0.7818608E-02  0.9762713E-01
         -2   -1    0    0    0  501 -0.00000000000E+00  0.00000000000E+00  0.76803009128E+03  0.76803009128E+03  0.25500000000E-02 0.  1.
          2   -1    0    0  501    0  0.00000000000E+00 -0.00000000000E+00 -0.10298868135E+04  0.10298868135E+04  0.25500000000E-02 0. -1.
    8880022    1    1    2    0    0 -0.51955026713E+03 -0.40123041299E+03 -0.71741834324E+03  0.98437749700E+03  0.15294330000E+03 0.  0.
    8880022    1    1    2    0    0  0.51955026713E+03  0.40123041299E+03  0.45556162105E+03  0.81353940775E+03  0.15294330000E+03 0.  0.
<mgrwt>
<rscale>  0 0.67402521E+03</rscale>
<asrwt>0</asrwt>
<pdfrwt beam="1">  1        2 0.15844413E+00 0.67402521E+03</pdfrwt>
<pdfrwt beam="2">  1       -2 0.11815848E+00 0.67402521E+03</pdfrwt>
<totfact> 0.13653752E+01</totfact>
</mgrwt>
</event>
<event>
 4    1  0.2202466E-008  0.7528567E+03  0.7818608E-02  0.9630879E-01
          2   -1    0    0  501    0  0.00000000000E+00  0.00000000000E+00  0.10379447243E+04  0.10379447243E+04  0.25500000000E-02 0. -1.
         -2   -1    0    0    0  501 -0.00000000000E+00 -0.00000000000E+00 -0.57428533539E+03  0.57428533539E+03  0.25500000000E-02 0.  1.
    8880022    1    1    2    0    0 -0.73497701315E+03  0.56659528944E+02  0.53157973309E+02  0.75473103502E+03  0.15294330000E+03 0.  0.
    8880022    1    1    2    0    0  0.73497701315E+03 -0.56659528944E+02  0.41050141558E+03  0.85749902466E+03  0.15294330000E+03 0.  0.
<mgrwt>
<rscale>  0 0.75285667E+03</rscale>
<asrwt>0</asrwt>
<pdfrwt beam="1">  1        2 0.15968380E+00 0.75285667E+03</pdfrwt>
<pdfrwt beam="2">  1       -2 0.88351590E-01 0.75285667E+03</pdfrwt>
<totfact> 0.26702432E+01</totfact>
</mgrwt>
</event>
<event>
 4    1  0.2202466E-008  0.8005327E+03  0.7818608E-02  0.9559246E-01
          2   -1    0    0  501    0  0.00000000000E+00  0.00000000000E+00  0.10240168287E+04  0.10240168287E+04  0.25500000000E-02 0. -1.
         -2   -1    0    0    0  501 -0.00000000000E+00 -0.00000000000E+00 -0.10765293349E+04  0.10765293350E+04  0.25500000000E-02 0.  1.
    8880022    1    1    2    0    0 -0.77321754947E+03 -0.13998428748E+03 -0.70582975760E+03  0.10672620481E+04  0.15294330000E+03 0.  0.
    8880022    1    1    2    0    0  0.77321754947E+03  0.13998428748E+03  0.65331725134E+03  0.10332841156E+04  0.15294330000E+03 0.  0.
<mgrwt>
<rscale>  0 0.80053272E+03</rscale>
<asrwt>0</asrwt>
<pdfrwt beam="1">  1        2 0.15754105E+00 0.80053272E+03</pdfrwt>
<pdfrwt beam="2">  1       -2 0.16561990E+00 0.80053272E+03</pdfrwt>
<totfact> 0.56457005E+00</totfact>
</mgrwt>
</event>
<event>
 4    1  0.2202466E-008  0.8598112E+03  0.7818608E-02  0.9477262E-01
         -2   -1    0    0    0  501 -0.00000000000E+00  0.00000000000E+00  0.87041694768E+03  0.87041694768E+03  0.25500000000E-02 0.  1.
          2   -1    0    0  501    0  0.00000000000E+00 -0.00000000000E+00 -0.10893271027E+04  0.10893271027E+04  0.25500000000E-02 0. -1.
    8880022    1    1    2    0    0 -0.45074101083E+03  0.71604203881E+03  0.35047197525E+03  0.92849659053E+03  0.15294330000E+03 0.  0.
    8880022    1    1    2    0    0  0.45074101083E+03 -0.71604203881E+03 -0.56938213029E+03  0.10312474599E+04  0.15294330000E+03 0.  0.
<mgrwt>
<rscale>  0 0.85981121E+03</rscale>
<asrwt>0</asrwt>
<pdfrwt beam="1">  1        2 0.16758879E+00 0.85981121E+03</pdfrwt>
<pdfrwt beam="2">  1       -2 0.13391030E+00 0.85981121E+03</pdfrwt>
<totfact> 0.89608227E+00</totfact>
</mgrwt>
</event>
<event>
 4    1  0.2202466E-008  0.2154233E+03  0.7818608E-02  0.1137342E+00
          2   -1    0    0  501    0  0.00000000000E+00  0.00000000000E+00  0.29614679648E+04  0.29614679648E+04  0.25500000000E-02 0. -1.
         -2   -1    0    0    0  501 -0.00000000000E+00 -0.00000000000E+00 -0.75525763795E+02  0.75525763838E+02  0.25500000000E-02 0.  1.
    8880022    1    1    2    0    0 -0.14319695601E+03 -0.50101853612E+02  0.27947886582E+04  0.28030788182E+04  0.15294330000E+03 0.  0.
    8880022    1    1    2    0    0  0.14319695601E+03  0.50101853612E+02  0.91153542784E+02  0.23391491043E+03  0.15294330000E+03 0.  1.
<mgrwt>
<rscale>  0 0.21542334E+03</rscale>
<asrwt>0</asrwt>
<pdfrwt beam="1">  1        2 0.45561048E+00 0.21542334E+03</pdfrwt>
<pdfrwt beam="2">  1       -2 0.11619348E-01 0.21542334E+03</pdfrwt>
<totfact> 0.11734851E+02</totfact>
</mgrwt>
</event>
<event>
 4    1  0.2202466E-008  0.7889505E+03  0.7818608E-02  0.9576150E-01
          2   -1    0    0  501    0  0.00000000000E+00  0.00000000000E+00  0.19996409329E+04  0.19996409329E+04  0.25500000000E-02 0. -1.
         -2   -1    0    0    0  501 -0.00000000000E+00 -0.00000000000E+00 -0.46325819138E+03  0.46325819139E+03  0.25500000000E-02 0.  1.
    8880022    1    1    2    0    0  0.18046423508E+03  0.75265124413E+03  0.62849724167E+02  0.79144992026E+03  0.15294330000E+03 0.  0.
    8880022    1    1    2    0    0 -0.18046423508E+03 -0.75265124413E+03  0.14735330174E+04  0.16714492041E+04  0.15294330000E+03 0.  0.
<mgrwt>
<rscale>  0 0.78895050E+03</rscale>
<asrwt>0</asrwt>
<pdfrwt beam="1">  1        2 0.30763707E+00 0.78895050E+03</pdfrwt>
<pdfrwt beam="2">  1       -2 0.71270491E-01 0.78895050E+03</pdfrwt>
<totfact> 0.12295827E+01</totfact>
</mgrwt>
</event>
<event>
 4    1  0.2202466E-008  0.4790571E+03  0.7818608E-02  0.1019395E+00
          2   -1    0    0  501    0  0.00000000000E+00  0.00000000000E+00  0.96113788075E+03  0.96113788075E+03  0.25500000000E-02 0. -1.
         -2   -1    0    0    0  501 -0.00000000000E+00 -0.00000000000E+00 -0.60258659437E+03  0.60258659437E+03  0.25500000000E-02 0.  1.
    8880022    1    1    2    0    0 -0.39577018211E+03  0.22241859371E+03 -0.42824180892E+03  0.64256265671E+03  0.15294330000E+03 0.  0.
    8880022    1    1    2    0    0  0.39577018211E+03 -0.22241859371E+03  0.78679309530E+03  0.92116181841E+03  0.15294330000E+03 0.  0.
<mgrwt>
<rscale>  0 0.47905712E+03</rscale>
<asrwt>0</asrwt>
<pdfrwt beam="1">  1        2 0.14786737E+00 0.47905712E+03</pdfrwt>
<pdfrwt beam="2">  1       -2 0.92705630E-01 0.47905712E+03</pdfrwt>
<totfact> 0.27650135E+01</totfact>
</mgrwt>
</event>
<event>
 4    1  0.2202466E-008  0.4500272E+03  0.7818608E-02  0.1027714E+00
          2   -1    0    0  501    0  0.00000000000E+00  0.00000000000E+00  0.30017729623E+03  0.30017729624E+03  0.25500000000E-02 0. -1.
         -2   -1    0    0    0  501 -0.00000000000E+00 -0.00000000000E+00 -0.72628389556E+03  0.72628389556E+03  0.25500000000E-02 0.  1.
    8880022    1    1    2    0    0  0.37589134003E+03  0.19452129489E+03 -0.76252574142E+02  0.45644160826E+03  0.15294330000E+03 0.  0.
    8880022    1    1    2    0    0 -0.37589134003E+03 -0.19452129489E+03 -0.34985402519E+03  0.57001958355E+03  0.15294330000E+03 0.  0.
<mgrwt>
<rscale>  0 0.45002721E+03</rscale>
<asrwt>0</asrwt>
<pdfrwt beam="1">  1        2 0.46181123E-01 0.45002721E+03</pdfrwt>
<pdfrwt beam="2">  1       -2 0.11173598E+00 0.45002721E+03</pdfrwt>
<totfact> 0.71455044E+01</totfact>
</mgrwt>
</event>
<event>
 4    1  0.2202466E-008  0.1331758E+04  0.7818608E-02  0.9004753E-01
          2   -1    0    0  501    0  0.00000000000E+00  0.00000000000E+00  0.16658836837E+04  0.16658836837E+04  0.25500000000E-02 0. -1.
         -2   -1    0    0    0  501 -0.00000000000E+00 -0.00000000000E+00 -0.17999927851E+04  0.17999927851E+04  0.25500000000E-02 0.  1.
    8880022    1    1    2    0    0 -0.98468691451E+03  0.88350441433E+03 -0.11746805938E+04  0.17757968690E+04  0.15294330000E+03 0.  0.
    8880022    1    1    2    0    0  0.98468691451E+03 -0.88350441433E+03  0.10405714924E+04  0.16900795998E+04  0.15294330000E+03 0.  0.
<mgrwt>
<rscale>  0 0.13317582E+04</rscale>
<asrwt>0</asrwt>
<pdfrwt beam="1">  1        2 0.25628980E+00 0.13317582E+04</pdfrwt>
<pdfrwt beam="2">  1       -2 0.27692197E+00 0.13317582E+04</pdfrwt>
<totfact> 0.43132138E-01</totfact>
</mgrwt>
</event>
<event>
 4    1  0.2202466E-008  0.1265971E+04  0.7818608E-02  0.9056995E-01
          2   -1    0    0  501    0  0.00000000000E+00  0.00000000000E+00  0.34055679405E+04  0.34055679405E+04  0.25500000000E-02 0. -1.
         -2   -1    0    0    0  501 -0.00000000000E+00 -0.00000000000E+00 -0.71655984336E+03  0.71655984337E+03  0.25500000000E-02 0.  1.
    8880022    1    1    2    0    0  0.11054235082E+04  0.59776984286E+03  0.13699107820E+03  0.12733609567E+04  0.15294330000E+03 0.  0.
    8880022    1    1    2    0    0 -0.11054235082E+04 -0.59776984286E+03  0.25520170190E+04  0.28487668272E+04  0.15294330000E+03 0.  0.
<mgrwt>
<rscale>  0 0.12659706E+04</rscale>
<asrwt>0</asrwt>
<pdfrwt beam="1">  1        2 0.52393352E+00 0.12659706E+04</pdfrwt>
<pdfrwt beam="2">  1       -2 0.11023998E+00 0.12659706E+04</pdfrwt>
<totfact> 0.60994984E-01</totfact>
</mgrwt>
</event>
<event>
 4    1  0.2202466E-008  0.1082362E+04  0.7818608E-02  0.9222555E-01
          2   -1    0    0  501    0  0.00000000000E+00  0.00000000000E+00  0.17670606043E+04  0.17670606043E+04  0.25500000000E-02 0. -1.
         -2   -1    0    0    0  501 -0.00000000000E+00 -0.00000000000E+00 -0.15695646270E+04  0.15695646270E+04  0.25500000000E-02 0.  1.
    8880022    1    1    2    0    0  0.44859573266E+03  0.97307664650E+03  0.13666755242E+04  0.17433616758E+04  0.15294330000E+03 0.  0.
    8880022    1    1    2    0    0 -0.44859573266E+03 -0.97307664650E+03 -0.11691795469E+04  0.15932635555E+04  0.15294330000E+03 0.  0.
<mgrwt>
<rscale>  0 0.10823622E+04</rscale>
<asrwt>0</asrwt>
<pdfrwt beam="1">  1        2 0.27185548E+00 0.10823622E+04</pdfrwt>
<pdfrwt beam="2">  1       -2 0.24147148E+00 0.10823622E+04</pdfrwt>
<totfact> 0.64448315E-01</totfact>
</mgrwt>
</event>
<event>
 4    1  0.2202466E-008  0.1406606E+04  0.7818608E-02  0.8949051E-01
          2   -1    0    0  501    0  0.00000000000E+00  0.00000000000E+00  0.27410166167E+04  0.27410166167E+04  0.25500000000E-02 0. -1.
         -2   -1    0    0    0  501 -0.00000000000E+00 -0.00000000000E+00 -0.16938987731E+04  0.16938987731E+04  0.25500000000E-02 0.  1.
    8880022    1    1    2    0    0 -0.11745087172E+04 -0.75873427020E+03  0.22033712350E+04  0.26140743815E+04  0.15294330000E+03 0.  0.
    8880022    1    1    2    0    0  0.11745087172E+04  0.75873427020E+03 -0.11562533914E+04  0.18208410083E+04  0.15294330000E+03 0.  0.
<mgrwt>
<rscale>  0 0.14066059E+04</rscale>
<asrwt>0</asrwt>
<pdfrwt beam="1">  1        2 0.42169486E+00 0.14066059E+04</pdfrwt>
<pdfrwt beam="2">  1       -2 0.26059982E+00 0.14066059E+04</pdfrwt>
<totfact> 0.13202178E-01</totfact>
</mgrwt>
</event>
<event>
 4    1  0.2202466E-008  0.7121070E+03  0.7818608E-02  0.9696749E-01
          2   -1    0    0  501    0  0.00000000000E+00  0.00000000000E+00  0.16292760670E+04  0.16292760670E+04  0.25500000000E-02 0. -1.
         -2   -1    0    0    0  501 -0.00000000000E+00 -0.00000000000E+00 -0.99493296930E+03  0.99493296930E+03  0.25500000000E-02 0.  1.
    8880022    1    1    2    0    0  0.38961732168E+03  0.57611026336E+03 -0.77051056387E+03  0.10491820028E+04  0.15294330000E+03 0.  0.
    8880022    1    1    2    0    0 -0.38961732168E+03 -0.57611026336E+03  0.14048536616E+04  0.15750270335E+04  0.15294330000E+03 0.  0.
<mgrwt>
<rscale>  0 0.71210698E+03</rscale>
<asrwt>0</asrwt>
<pdfrwt beam="1">  1        2 0.25065786E+00 0.71210698E+03</pdfrwt>
<pdfrwt beam="2">  1       -2 0.15306661E+00 0.71210698E+03</pdfrwt>
<totfact> 0.31589567E+00</totfact>
</mgrwt>
</event>
<event>
 4    1  0.2202466E-008  0.7277576E+03  0.7818608E-02  0.9670906E-01
         -2   -1    0    0    0  501 -0.00000000000E+00  0.00000000000E+00  0.63480349584E+03  0.63480349585E+03  0.25500000000E-02 0.  1.
          2   -1    0    0  501    0  0.00000000000E+00 -0.00000000000E+00 -0.32166891087E+04  0.32166891087E+04  0.25500000000E-02 0. -1.
    8880022    1    1    2    0    0 -0.26075863806E+01 -0.71150026159E+03 -0.29482338802E+04  0.30367275293E+04  0.15294330000E+03 0.  0.
    8880022    1    1    2    0    0  0.26075863806E+01  0.71150026159E+03  0.36634826739E+03  0.81476507521E+03  0.15294330000E+03 0.  0.
<mgrwt>
<rscale>  0 0.72775757E+03</rscale>
<asrwt>0</asrwt>
<pdfrwt beam="1">  1        2 0.49487524E+00 0.72775757E+03</pdfrwt>
<pdfrwt beam="2">  1       -2 0.97662078E-01 0.72775757E+03</pdfrwt>
<totfact> 0.11949441E+00</totfact>
</mgrwt>
</event>
<event>
 4    1  0.2202466E-008  0.9641181E+03  0.7818608E-02  0.9348799E-01
          2   -1    0    0  501    0  0.00000000000E+00  0.00000000000E+00  0.11111729378E+04  0.11111729378E+04  0.25500000000E-02 0. -1.
         -2   -1    0    0    0  501 -0.00000000000E+00 -0.00000000000E+00 -0.15887878467E+04  0.15887878467E+04  0.25500000000E-02 0.  1.
    8880022    1    1    2    0    0 -0.13235671228E+03 -0.94266315234E+03  0.69011477753E+03  0.11856568548E+04  0.15294330000E+03 0.  0.
    8880022    1    1    2    0    0  0.13235671228E+03  0.94266315234E+03 -0.11677296864E+04  0.15143039297E+04  0.15294330000E+03 0.  0.
<mgrwt>
<rscale>  0 0.96411813E+03</rscale>
<asrwt>0</asrwt>
<pdfrwt beam="1">  1        2 0.17094968E+00 0.96411813E+03</pdfrwt>
<pdfrwt beam="2">  1       -2 0.24442890E+00 0.96411813E+03</pdfrwt>
<totfact> 0.14926666E+00</totfact>
</mgrwt>
</event>
<event>
 4    1  0.2202466E-008  0.9108277E+03  0.7818608E-02  0.9412147E-01
         -2   -1    0    0    0  501 -0.00000000000E+00  0.00000000000E+00  0.18764154982E+04  0.18764154982E+04  0.25500000000E-02 0.  1.
          2   -1    0    0  501    0  0.00000000000E+00 -0.00000000000E+00 -0.91988809740E+03  0.91988809740E+03  0.25500000000E-02 0. -1.
    8880022    1    1    2    0    0 -0.12490486569E+03 -0.88916487921E+03 -0.52934959051E+03  0.10534790220E+04  0.15294330000E+03 0.  0.
    8880022    1    1    2    0    0  0.12490486569E+03  0.88916487921E+03  0.14858769913E+04  0.17428245736E+04  0.15294330000E+03 0.  0.
<mgrwt>
<rscale>  0 0.91082768E+03</rscale>
<asrwt>0</asrwt>
<pdfrwt beam="1">  1        2 0.14152125E+00 0.91082768E+03</pdfrwt>
<pdfrwt beam="2">  1       -2 0.28867931E+00 0.91082768E+03</pdfrwt>
<totfact> 0.10758159E+00</totfact>
</mgrwt>
</event>
<event>
 4    1  0.2202466E-008  0.1817141E+04  0.7818608E-02  0.8697237E-01
         -2   -1    0    0    0  501 -0.00000000000E+00  0.00000000000E+00  0.21404020132E+04  0.21404020132E+04  0.25500000000E-02 0.  1.
          2   -1    0    0  501    0  0.00000000000E+00 -0.00000000000E+00 -0.17201176913E+04  0.17201176913E+04  0.25500000000E-02 0. -1.
    8880022    1    1    2    0    0  0.20894790893E+03 -0.17985968644E+04  0.83005870625E+03  0.19977484872E+04  0.15294330000E+03 0.  0.
    8880022    1    1    2    0    0 -0.20894790893E+03  0.17985968644E+04 -0.40977438433E+03  0.18627712174E+04  0.15294330000E+03 0.  0.
<mgrwt>
<rscale>  0 0.18171410E+04</rscale>
<asrwt>0</asrwt>
<pdfrwt beam="1">  1        2 0.26463349E+00 0.18171410E+04</pdfrwt>
<pdfrwt beam="2">  1       -2 0.32929262E+00 0.18171410E+04</pdfrwt>
<totfact> 0.18207976E-01</totfact>
</mgrwt>
</event>
<event>
 4    1  0.2202466E-008  0.8259748E+03  0.7818608E-02  0.9523162E-01
          2   -1    0    0  501    0  0.00000000000E+00  0.00000000000E+00  0.11822412216E+04  0.11822412216E+04  0.25500000000E-02 0. -1.
         -2   -1    0    0    0  501 -0.00000000000E+00 -0.00000000000E+00 -0.63050830375E+03  0.63050830375E+03  0.25500000000E-02 0.  1.
    8880022    1    1    2    0    0  0.17365085132E+03  0.79289852634E+03  0.53973901380E+03  0.98668766449E+03  0.15294330000E+03 0.  0.
    8880022    1    1    2    0    0 -0.17365085132E+03 -0.79289852634E+03  0.11993904062E+02  0.82606186087E+03  0.15294330000E+03 0.  0.
<mgrwt>
<rscale>  0 0.82597478E+03</rscale>
<asrwt>0</asrwt>
<pdfrwt beam="1">  1        2 0.18188326E+00 0.82597478E+03</pdfrwt>
<pdfrwt beam="2">  1       -2 0.97001278E-01 0.82597478E+03</pdfrwt>
<totfact> 0.17411485E+01</totfact>
</mgrwt>
</event>
<event>
 4    1  0.2202466E-008  0.4281285E+03  0.7818608E-02  0.1034453E+00
         -2   -1    0    0    0  501 -0.00000000000E+00  0.00000000000E+00  0.87532739374E+02  0.87532739411E+02  0.25500000000E-02 0.  1.
          2   -1    0    0  501    0  0.00000000000E+00 -0.00000000000E+00 -0.28607091878E+04  0.28607091878E+04  0.25500000000E-02 0. -1.
    8880022    1    1    2    0    0  0.36052577549E+03 -0.17298423559E+03 -0.62343796427E+03  0.75628627441E+03  0.15294330000E+03 0.  0.
    8880022    1    1    2    0    0 -0.36052577549E+03  0.17298423559E+03 -0.21497384841E+04  0.21919556528E+04  0.15294330000E+03 0.  0.
<mgrwt>
<rscale>  0 0.42812852E+03</rscale>
<asrwt>0</asrwt>
<pdfrwt beam="1">  1        2 0.44010903E+00 0.42812852E+03</pdfrwt>
<pdfrwt beam="2">  1       -2 0.13466578E-01 0.42812852E+03</pdfrwt>
<totfact> 0.98846582E+01</totfact>
</mgrwt>
</event>
<event>
 4    1  0.2202466E-008  0.1817978E+04  0.7818608E-02  0.8696797E-01
          2   -1    0    0  501    0  0.00000000000E+00  0.00000000000E+00  0.21265260779E+04  0.21265260779E+04  0.25500000000E-02 0. -1.
         -2   -1    0    0    0  501 -0.00000000000E+00 -0.00000000000E+00 -0.24927633174E+04  0.24927633174E+04  0.25500000000E-02 0.  1.
    8880022    1    1    2    0    0 -0.14093370811E+04 -0.11381662878E+04  0.12340992609E+04  0.21972815353E+04  0.15294330000E+03 0.  0.
    8880022    1    1    2    0    0  0.14093370811E+04  0.11381662878E+04 -0.16003365003E+04  0.24220078600E+04  0.15294330000E+03 0.  0.
<mgrwt>
<rscale>  0 0.18179783E+04</rscale>
<asrwt>0</asrwt>
<pdfrwt beam="1">  1        2 0.32715786E+00 0.18179783E+04</pdfrwt>
<pdfrwt beam="2">  1       -2 0.38350205E+00 0.18179783E+04</pdfrwt>
<totfact> 0.48732021E-02</totfact>
</mgrwt>
</event>
<event>
 4    1  0.2202466E-008  0.9766716E+03  0.7818608E-02  0.9334508E-01
         -2   -1    0    0    0  501 -0.00000000000E+00  0.00000000000E+00  0.10076278083E+04  0.10076278083E+04  0.25500000000E-02 0.  1.
          2   -1    0    0  501    0  0.00000000000E+00 -0.00000000000E+00 -0.37206215176E+04  0.37206215176E+04  0.25500000000E-02 0. -1.
    8880022    1    1    2    0    0  0.26658891133E+03  0.92705236541E+03 -0.33978227365E+04  0.35354047488E+04  0.15294330000E+03 0.  0.
    8880022    1    1    2    0    0 -0.26658891133E+03 -0.92705236541E+03  0.68482902720E+03  0.11928445772E+04  0.15294330000E+03 0.  0.
<mgrwt>
<rscale>  0 0.97667159E+03</rscale>
<asrwt>0</asrwt>
<pdfrwt beam="1">  1        2 0.57240331E+00 0.97667159E+03</pdfrwt>
<pdfrwt beam="2">  1       -2 0.15501966E+00 0.97667159E+03</pdfrwt>
<totfact> 0.16127858E-01</totfact>
</mgrwt>
</event>
<event>
 4    1  0.2202466E-008  0.2939282E+03  0.7818608E-02  0.1088316E+00
         -2   -1    0    0    0  501 -0.00000000000E+00  0.00000000000E+00  0.35730813821E+03  0.35730813822E+03  0.25500000000E-02 0.  1.
          2   -1    0    0  501    0  0.00000000000E+00 -0.00000000000E+00 -0.66460431595E+03  0.66460431596E+03  0.25500000000E-02 0. -1.
    8880022    1    1    2    0    0 -0.17938228604E+03  0.17556798134E+03 -0.56119407116E+03  0.63350813660E+03  0.15294330000E+03 0.  0.
    8880022    1    1    2    0    0  0.17938228604E+03 -0.17556798134E+03  0.25389789342E+03  0.38840431758E+03  0.15294330000E+03 0.  0.
<mgrwt>
<rscale>  0 0.29392818E+03</rscale>
<asrwt>0</asrwt>
<pdfrwt beam="1">  1        2 0.10224682E+00 0.29392818E+03</pdfrwt>
<pdfrwt beam="2">  1       -2 0.54970483E-01 0.29392818E+03</pdfrwt>
<totfact> 0.14272465E+02</totfact>
</mgrwt>
</event>
<event>
 4    1  0.2202466E-008  0.4670068E+03  0.7818608E-02  0.1022768E+00
         -2   -1    0    0    0  501 -0.00000000000E+00  0.00000000000E+00  0.16234735743E+03  0.16234735745E+03  0.25500000000E-02 0.  1.
          2   -1    0    0  501    0  0.00000000000E+00 -0.00000000000E+00 -0.14791870768E+04  0.14791870768E+04  0.25500000000E-02 0. -1.
    8880022    1    1    2    0    0 -0.42235773837E+03 -0.12774033440E+03 -0.90711007394E+03  0.10202666276E+04  0.15294330000E+03 0.  0.
    8880022    1    1    2    0    0  0.42235773837E+03  0.12774033440E+03 -0.40972964546E+03  0.62126780665E+03  0.15294330000E+03 0.  0.
<mgrwt>
<rscale>  0 0.46700675E+03</rscale>
<asrwt>0</asrwt>
<pdfrwt beam="1">  1        2 0.22756723E+00 0.46700675E+03</pdfrwt>
<pdfrwt beam="2">  1       -2 0.24976517E-01 0.46700675E+03</pdfrwt>
<totfact> 0.19517542E+02</totfact>
</mgrwt>
</event>
<event>
 4    1  0.2202466E-008  0.1217873E+04  0.7818608E-02  0.9097354E-01
         -2   -1    0    0    0  501 -0.00000000000E+00  0.00000000000E+00  0.10788381183E+04  0.10788381184E+04  0.25500000000E-02 0.  1.
          2   -1    0    0  501    0  0.00000000000E+00 -0.00000000000E+00 -0.25439488333E+04  0.25439488333E+04  0.25500000000E-02 0. -1.
    8880022    1    1    2    0    0  0.12080102446E+04 -0.23138788581E+02  0.49541672344E+03  0.13147826959E+04  0.15294330000E+03 0.  0.
    8880022    1    1    2    0    0 -0.12080102446E+04  0.23138788581E+02 -0.19605274384E+04  0.23080042557E+04  0.15294330000E+03 0.  0.
<mgrwt>
<rscale>  0 0.12178735E+04</rscale>
<asrwt>0</asrwt>
<pdfrwt beam="1">  1        2 0.39137674E+00 0.12178735E+04</pdfrwt>
<pdfrwt beam="2">  1       -2 0.16597510E+00 0.12178735E+04</pdfrwt>
<totfact> 0.72885160E-01</totfact>
</mgrwt>
</event>
<event>
 4    1  0.2202466E-008  0.1232514E+04  0.7818608E-02  0.9084864E-01
         -2   -1    0    0    0  501 -0.00000000000E+00  0.00000000000E+00  0.72497017621E+03  0.72497017621E+03  0.25500000000E-02 0.  1.
          2   -1    0    0  501    0  0.00000000000E+00 -0.00000000000E+00 -0.23344384501E+04  0.23344384501E+04  0.25500000000E-02 0. -1.
    8880022    1    1    2    0    0 -0.22619740223E+03  0.12018875823E+04 -0.12942479839E+04  0.17872236911E+04  0.15294330000E+03 0.  0.
    8880022    1    1    2    0    0  0.22619740223E+03 -0.12018875823E+04 -0.31522029000E+03  0.12721849352E+04  0.15294330000E+03 0.  0.
<mgrwt>
<rscale>  0 0.12325140E+04</rscale>
<asrwt>0</asrwt>
<pdfrwt beam="1">  1        2 0.35914437E+00 0.12325140E+04</pdfrwt>
<pdfrwt beam="2">  1       -2 0.11153387E+00 0.12325140E+04</pdfrwt>
<totfact> 0.26884038E+00</totfact>
</mgrwt>
</event>
<event>
 4    1  0.2202466E-008  0.6275825E+03  0.7818608E-02  0.9849778E-01
         -2   -1    0    0    0  501 -0.00000000000E+00  0.00000000000E+00  0.77915206233E+03  0.77915206233E+03  0.25500000000E-02 0.  1.
          2   -1    0    0  501    0  0.00000000000E+00 -0.00000000000E+00 -0.11728860280E+04  0.11728860280E+04  0.25500000000E-02 0. -1.
    8880022    1    1    2    0    0  0.53672789539E+03 -0.28703886266E+03 -0.93310730227E+03  0.11245216907E+04  0.15294330000E+03 0.  0.
    8880022    1    1    2    0    0 -0.53672789539E+03  0.28703886266E+03  0.53937333659E+03  0.82751639960E+03  0.15294330000E+03 0.  0.
<mgrwt>
<rscale>  0 0.62758250E+03</rscale>
<asrwt>0</asrwt>
<pdfrwt beam="1">  1        2 0.18044401E+00 0.62758250E+03</pdfrwt>
<pdfrwt beam="2">  1       -2 0.11986955E+00 0.62758250E+03</pdfrwt>
<totfact> 0.10851588E+01</totfact>
</mgrwt>
</event>
<event>
 4    1  0.2202466E-008  0.2968214E+03  0.7818608E-02  0.1086840E+00
          2   -1    0    0  501    0  0.00000000000E+00  0.00000000000E+00  0.56728093368E+03  0.56728093368E+03  0.25500000000E-02 0. -1.
         -2   -1    0    0    0  501 -0.00000000000E+00 -0.00000000000E+00 -0.22714276934E+03  0.22714276935E+03  0.25500000000E-02 0.  1.
    8880022    1    1    2    0    0  0.51108142937E+02  0.24919720448E+03 -0.53309651019E+02  0.30157065656E+03  0.15294330000E+03 0.  0.
    8880022    1    1    2    0    0 -0.51108142937E+02 -0.24919720448E+03  0.39344781536E+03  0.49285304647E+03  0.15294330000E+03 0.  0.
<mgrwt>
<rscale>  0 0.29682140E+03</rscale>
<asrwt>0</asrwt>
<pdfrwt beam="1">  1        2 0.87273989E-01 0.29682140E+03</pdfrwt>
<pdfrwt beam="2">  1       -2 0.34945042E-01 0.29682140E+03</pdfrwt>
<totfact> 0.41711270E+02</totfact>
</mgrwt>
</event>
<event>
 4    1  0.2202466E-008  0.4589424E+03  0.7818608E-02  0.1025088E+00
          2   -1    0    0  501    0  0.00000000000E+00  0.00000000000E+00  0.14306978343E+04  0.14306978344E+04  0.25500000000E-02 0. -1.
         -2   -1    0    0    0  501 -0.00000000000E+00 -0.00000000000E+00 -0.37610102980E+03  0.37610102981E+03  0.25500000000E-02 0.  1.
    8880022    1    1    2    0    0  0.29579251108E+03  0.31582161827E+03 -0.17744644015E+03  0.49205222925E+03  0.15294330000E+03 0.  0.
    8880022    1    1    2    0    0 -0.29579251108E+03 -0.31582161827E+03  0.12320432447E+04  0.13147466349E+04  0.15294330000E+03 0.  0.
<mgrwt>
<rscale>  0 0.45894243E+03</rscale>
<asrwt>0</asrwt>
<pdfrwt beam="1">  1        2 0.22010736E+00 0.45894243E+03</pdfrwt>
<pdfrwt beam="2">  1       -2 0.57861695E-01 0.45894243E+03</pdfrwt>
<totfact> 0.41290868E+01</totfact>
</mgrwt>
</event>
<event>
 4    1  0.2202466E-008  0.1390545E+04  0.7818608E-02  0.8960691E-01
          2   -1    0    0  501    0  0.00000000000E+00  0.00000000000E+00  0.13244615261E+04  0.13244615261E+04  0.25500000000E-02 0. -1.
         -2   -1    0    0    0  501 -0.00000000000E+00 -0.00000000000E+00 -0.20727495659E+04  0.20727495659E+04  0.25500000000E-02 0.  1.
    8880022    1    1    2    0    0 -0.60331752462E+03 -0.12434752034E+04  0.54946308323E+03  0.14951668635E+04  0.15294330000E+03 0.  0.
    8880022    1    1    2    0    0  0.60331752462E+03  0.12434752034E+04 -0.12977511229E+04  0.19020442285E+04  0.15294330000E+03 0.  0.
<mgrwt>
<rscale>  0 0.13905446E+04</rscale>
<asrwt>0</asrwt>
<pdfrwt beam="1">  1        2 0.20376331E+00 0.13905446E+04</pdfrwt>
<pdfrwt beam="2">  1       -2 0.31888455E+00 0.13905446E+04</pdfrwt>
<totfact> 0.37161904E-01</totfact>
</mgrwt>
</event>
<event>
 4    1  0.2202466E-008  0.4497016E+03  0.7818608E-02  0.1027811E+00
          2   -1    0    0  501    0  0.00000000000E+00  0.00000000000E+00  0.92301846169E+03  0.92301846169E+03  0.25500000000E-02 0. -1.
         -2   -1    0    0    0  501 -0.00000000000E+00 -0.00000000000E+00 -0.39892986019E+03  0.39892986020E+03  0.25500000000E-02 0.  1.
    8880022    1    1    2    0    0  0.11807088409E+03 -0.40607775151E+03  0.70582610497E+03  0.83691219218E+03  0.15294330000E+03 0.  0.
    8880022    1    1    2    0    0 -0.11807088409E+03  0.40607775151E+03 -0.18173750348E+03  0.48503612971E+03  0.15294330000E+03 0.  0.
<mgrwt>
<rscale>  0 0.44970160E+03</rscale>
<asrwt>0</asrwt>
<pdfrwt beam="1">  1        2 0.14200284E+00 0.44970160E+03</pdfrwt>
<pdfrwt beam="2">  1       -2 0.61373825E-01 0.44970160E+03</pdfrwt>
<totfact> 0.72942294E+01</totfact>
</mgrwt>
</event>
<event>
 4    1  0.2202466E-008  0.4740090E+03  0.7818608E-02  0.1020795E+00
         -2   -1    0    0    0  501 -0.00000000000E+00  0.00000000000E+00  0.63204079025E+03  0.63204079025E+03  0.25500000000E-02 0.  1.
          2   -1    0    0  501    0  0.00000000000E+00 -0.00000000000E+00 -0.27362261114E+04  0.27362261114E+04  0.25500000000E-02 0. -1.
    8880022    1    1    2    0    0 -0.42185591689E+03  0.15274312546E+03  0.51883464951E+03  0.70276164063E+03  0.15294330000E+03 0.  0.
    8880022    1    1    2    0    0  0.42185591689E+03 -0.15274312546E+03 -0.26230199706E+04  0.26655052610E+04  0.15294330000E+03 0.  0.
<mgrwt>
<rscale>  0 0.47400900E+03</rscale>
<asrwt>0</asrwt>
<pdfrwt beam="1">  1        2 0.42095786E+00 0.47400900E+03</pdfrwt>
<pdfrwt beam="2">  1       -2 0.97237046E-01 0.47400900E+03</pdfrwt>
<totfact> 0.25304705E+00</totfact>
</mgrwt>
</event>
<event>
 4    1  0.2202466E-008  0.4682861E+03  0.7818608E-02  0.1022405E+00
         -2   -1    0    0    0  501 -0.00000000000E+00  0.00000000000E+00  0.42898353008E+03  0.42898353009E+03  0.25500000000E-02 0.  1.
          2   -1    0    0  501    0  0.00000000000E+00 -0.00000000000E+00 -0.96054407912E+03  0.96054407912E+03  0.25500000000E-02 0. -1.
    8880022    1    1    2    0    0 -0.39865794971E+03 -0.19228128969E+03  0.20941606317E+03  0.51297855292E+03  0.15294330000E+03 0.  1.
    8880022    1    1    2    0    0  0.39865794971E+03  0.19228128969E+03 -0.74097661221E+03  0.87654905629E+03  0.15294330000E+03 0. -1.
<mgrwt>
<rscale>  0 0.46828614E+03</rscale>
<asrwt>0</asrwt>
<pdfrwt beam="1">  1        2 0.14777601E+00 0.46828614E+03</pdfrwt>
<pdfrwt beam="2">  1       -2 0.65997466E-01 0.46828614E+03</pdfrwt>
<totfact> 0.58982420E+01</totfact>
</mgrwt>
</event>
<event>
 4    1  0.2202466E-008  0.4459147E+03  0.7818608E-02  0.1028947E+00
         -2   -1    0    0    0  501 -0.00000000000E+00  0.00000000000E+00  0.10035785837E+04  0.10035785838E+04  0.25500000000E-02 0.  1.
          2   -1    0    0  501    0  0.00000000000E+00 -0.00000000000E+00 -0.15683200432E+04  0.15683200432E+04  0.25500000000E-02 0. -1.
    8880022    1    1    2    0    0  0.47994952799E+02  0.41610668123E+03  0.91960794859E+03  0.10220169851E+04  0.15294330000E+03 0.  0.
    8880022    1    1    2    0    0 -0.47994952799E+02 -0.41610668123E+03 -0.14843494080E+04  0.15498816418E+04  0.15294330000E+03 0.  0.
<mgrwt>
<rscale>  0 0.44591472E+03</rscale>
<asrwt>0</asrwt>
<pdfrwt beam="1">  1        2 0.24128001E+00 0.44591472E+03</pdfrwt>
<pdfrwt beam="2">  1       -2 0.15439670E+00 0.44591472E+03</pdfrwt>
<totfact> 0.35336647E+00</totfact>
</mgrwt>
</event>
<event>
 4    1  0.2202466E-008  0.9589941E+03  0.7818608E-02  0.9354699E-01
          2   -1    0    0  501    0  0.00000000000E+00  0.00000000000E+00  0.38653490507E+04  0.38653490507E+04  0.25500000000E-02 0. -1.
         -2   -1    0    0    0  501 -0.00000000000E+00 -0.00000000000E+00 -0.30349723593E+03  0.30349723594E+03  0.25500000000E-02 0.  1.
    8880022    1    1    2    0    0 -0.91911714654E+03 -0.22694006791E+03  0.81206182688E+03  0.12566281022E+04  0.15294330000E+03 0.  1.
    8880022    1    1    2    0    0  0.91911714654E+03  0.22694006791E+03  0.27497899879E+04  0.29122181845E+04  0.15294330000E+03 0.  0.
<mgrwt>
<rscale>  0 0.95899415E+03</rscale>
<asrwt>0</asrwt>
<pdfrwt beam="1">  1        2 0.59466905E+00 0.95899415E+03</pdfrwt>
<pdfrwt beam="2">  1       -2 0.46691885E-01 0.95899415E+03</pdfrwt>
<totfact> 0.20113601E+00</totfact>
</mgrwt>
</event>
<event>
 4    1  0.2202466E-008  0.1489642E+04  0.7818608E-02  0.8891370E-01
          2   -1    0    0  501    0  0.00000000000E+00  0.00000000000E+00  0.21364154781E+04  0.21364154781E+04  0.25500000000E-02 0. -1.
         -2   -1    0    0    0  501 -0.00000000000E+00 -0.00000000000E+00 -0.16227561812E+04  0.16227561812E+04  0.25500000000E-02 0.  1.
    8880022    1    1    2    0    0  0.13233766001E+04 -0.66657039541E+03 -0.87081826589E+03  0.17255021944E+04  0.15294330000E+03 0.  0.
    8880022    1    1    2    0    0 -0.13233766001E+04  0.66657039541E+03  0.13844775627E+04  0.20336694649E+04  0.15294330000E+03 0.  0.
<mgrwt>
<rscale>  0 0.14896420E+04</rscale>
<asrwt>0</asrwt>
<pdfrwt beam="1">  1        2 0.32867930E+00 0.14896420E+04</pdfrwt>
<pdfrwt beam="2">  1       -2 0.24965480E+00 0.14896420E+04</pdfrwt>
<totfact> 0.33976351E-01</totfact>
</mgrwt>
</event>
<event>
 4    1  0.2202466E-008  0.1179031E+04  0.7818608E-02  0.9131411E-01
          2   -1    0    0  501    0  0.00000000000E+00  0.00000000000E+00  0.22978462630E+04  0.22978462630E+04  0.25500000000E-02 0. -1.
         -2   -1    0    0    0  501 -0.00000000000E+00 -0.00000000000E+00 -0.74538031942E+03  0.74538031943E+03  0.25500000000E-02 0.  1.
    8880022    1    1    2    0    0  0.11594709697E+04 -0.14949906178E+03  0.14366586224E+04  0.18585216032E+04  0.15294330000E+03 0.  0.
    8880022    1    1    2    0    0 -0.11594709697E+04  0.14949906178E+03  0.11580732111E+03  0.11847049792E+04  0.15294330000E+03 0.  0.
<mgrwt>
<rscale>  0 0.11790312E+04</rscale>
<asrwt>0</asrwt>
<pdfrwt beam="1">  1        2 0.35351481E+00 0.11790312E+04</pdfrwt>
<pdfrwt beam="2">  1       -2 0.11467390E+00 0.11790312E+04</pdfrwt>
<totfact> 0.26498262E+00</totfact>
</mgrwt>
</event>
<event>
 4    1  0.2202466E-008  0.1197536E+04  0.7818608E-02  0.9115016E-01
         -2   -1    0    0    0  501 -0.00000000000E+00  0.00000000000E+00  0.18438977162E+04  0.18438977162E+04  0.25500000000E-02 0.  1.
          2   -1    0    0  501    0  0.00000000000E+00 -0.00000000000E+00 -0.13227827744E+04  0.13227827744E+04  0.25500000000E-02 0. -1.
    8880022    1    1    2    0    0 -0.10697482203E+04  0.51608004974E+03 -0.75578781703E+03  0.14160885389E+04  0.15294330000E+03 0.  0.
    8880022    1    1    2    0    0  0.10697482203E+04 -0.51608004974E+03  0.12769027589E+04  0.17505919517E+04  0.15294330000E+03 0.  0.
<mgrwt>
<rscale>  0 0.11975356E+04</rscale>
<asrwt>0</asrwt>
<pdfrwt beam="1">  1        2 0.20350504E+00 0.11975356E+04</pdfrwt>
<pdfrwt beam="2">  1       -2 0.28367657E+00 0.11975356E+04</pdfrwt>
<totfact> 0.62514412E-01</totfact>
</mgrwt>
</event>
<event>
 4    1  0.2202466E-008  0.7658055E+03  0.7818608E-02  0.9610875E-01
         -2   -1    0    0    0  501 -0.00000000000E+00  0.00000000000E+00  0.21828090664E+03  0.21828090666E+03  0.25500000000E-02 0.  1.
          2   -1    0    0  501    0  0.00000000000E+00 -0.00000000000E+00 -0.33452589305E+04  0.33452589305E+04  0.25500000000E-02 0. -1.
    8880022    1    1    2    0    0 -0.74857465559E+03  0.51985009174E+02 -0.77293809033E+03  0.10880677372E+04  0.15294330000E+03 0.  0.
    8880022    1    1    2    0    0  0.74857465559E+03 -0.51985009174E+02 -0.23540399335E+04  0.24754721000E+04  0.15294330000E+03 0.  0.
<mgrwt>
<rscale>  0 0.76580553E+03</rscale>
<asrwt>0</asrwt>
<pdfrwt beam="1">  1        2 0.51465518E+00 0.76580553E+03</pdfrwt>
<pdfrwt beam="2">  1       -2 0.33581680E-01 0.76580553E+03</pdfrwt>
<totfact> 0.92260572E+00</totfact>
</mgrwt>
</event>
<event>
 4    1  0.2202466E-008  0.9111030E+03  0.7818608E-02  0.9411808E-01
         -2   -1    0    0    0  501 -0.00000000000E+00  0.00000000000E+00  0.12747248383E+04  0.12747248383E+04  0.25500000000E-02 0.  1.
          2   -1    0    0  501    0  0.00000000000E+00 -0.00000000000E+00 -0.66693437782E+03  0.66693437782E+03  0.25500000000E-02 0. -1.
    8880022    1    1    2    0    0 -0.66393036613E+03  0.60490788420E+03  0.45298248224E+03  0.10174978436E+04  0.15294330000E+03 0.  0.
    8880022    1    1    2    0    0  0.66393036613E+03 -0.60490788420E+03  0.15480797828E+03  0.92416137259E+03  0.15294330000E+03 0.  0.
<mgrwt>
<rscale>  0 0.91110303E+03</rscale>
<asrwt>0</asrwt>
<pdfrwt beam="1">  1        2 0.10260529E+00 0.91110303E+03</pdfrwt>
<pdfrwt beam="2">  1       -2 0.19611151E+00 0.91110303E+03</pdfrwt>
<totfact> 0.61568774E+00</totfact>
</mgrwt>
</event>
<event>
 4    1  0.2202466E-008  0.3368434E+03  0.7818608E-02  0.1068148E+00
          2   -1    0    0  501    0  0.00000000000E+00  0.00000000000E+00  0.18865145368E+03  0.18865145370E+03  0.25500000000E-02 0. -1.
         -2   -1    0    0    0  501 -0.00000000000E+00 -0.00000000000E+00 -0.91075575873E+03  0.91075575873E+03  0.25500000000E-02 0.  1.
    8880022    1    1    2    0    0 -0.23010640893E+03 -0.19267289019E+03 -0.68140250422E+03  0.76011369400E+03  0.15294330000E+03 0.  0.
    8880022    1    1    2    0    0  0.23010640893E+03  0.19267289019E+03 -0.40701800828E+02  0.33929351843E+03  0.15294330000E+03 0.  0.
<mgrwt>
<rscale>  0 0.33684337E+03</rscale>
<asrwt>0</asrwt>
<pdfrwt beam="1">  1        2 0.29023301E-01 0.33684337E+03</pdfrwt>
<pdfrwt beam="2">  1       -2 0.14011627E+00 0.33684337E+03</pdfrwt>
<totfact> 0.68727944E+01</totfact>
</mgrwt>
</event>
<event>
 4    1  0.2202466E-008  0.8631767E+03  0.7818608E-02  0.9472820E-01
         -2   -1    0    0    0  501 -0.00000000000E+00  0.00000000000E+00  0.13598027149E+04  0.13598027149E+04  0.25500000000E-02 0.  1.
          2   -1    0    0  501    0  0.00000000000E+00 -0.00000000000E+00 -0.13974667833E+04  0.13974667833E+04  0.25500000000E-02 0. -1.
    8880022    1    1    2    0    0  0.24923085205E+03  0.81213692394E+03 -0.10937369908E+04  0.13933178600E+04  0.15294330000E+03 0.  0.
    8880022    1    1    2    0    0 -0.24923085205E+03 -0.81213692394E+03  0.10560729224E+04  0.13639516382E+04  0.15294330000E+03 0.  0.
<mgrwt>
<rscale>  0 0.86317672E+03</rscale>
<asrwt>0</asrwt>
<pdfrwt beam="1">  1        2 0.21499489E+00 0.86317672E+03</pdfrwt>
<pdfrwt beam="2">  1       -2 0.20920042E+00 0.86317672E+03</pdfrwt>
<totfact> 0.17041475E+00</totfact>
</mgrwt>
</event>
<event>
 4    1  0.2202466E-008  0.7032798E+03  0.7818608E-02  0.9711640E-01
         -2   -1    0    0    0  501 -0.00000000000E+00  0.00000000000E+00  0.76939057527E+03  0.76939057527E+03  0.25500000000E-02 0.  1.
          2   -1    0    0  501    0  0.00000000000E+00 -0.00000000000E+00 -0.12170694223E+04  0.12170694223E+04  0.25500000000E-02 0. -1.
    8880022    1    1    2    0    0 -0.38288778763E+03  0.56974356675E+03 -0.90607008387E+03  0.11469810110E+04  0.15294330000E+03 0.  0.
    8880022    1    1    2    0    0  0.38288778763E+03 -0.56974356675E+03  0.45839123685E+03  0.83947898652E+03  0.15294330000E+03 0.  0.
<mgrwt>
<rscale>  0 0.70327978E+03</rscale>
<asrwt>0</asrwt>
<pdfrwt beam="1">  1        2 0.18724145E+00 0.70327978E+03</pdfrwt>
<pdfrwt beam="2">  1       -2 0.11836778E+00 0.70327978E+03</pdfrwt>
<totfact> 0.10430620E+01</totfact>
</mgrwt>
</event>
<event>
 4    1  0.2202466E-008  0.9862925E+03  0.7818608E-02  0.9323708E-01
          2   -1    0    0  501    0  0.00000000000E+00  0.00000000000E+00  0.42507079220E+04  0.42507079220E+04  0.25500000000E-02 0. -1.
         -2   -1    0    0    0  501 -0.00000000000E+00 -0.00000000000E+00 -0.40987085706E+03  0.40987085707E+03  0.25500000000E-02 0.  1.
    8880022    1    1    2    0    0 -0.68409312343E+03 -0.69382843768E+03  0.34690607140E+04  0.36065433857E+04  0.15294330000E+03 0.  0.
    8880022    1    1    2    0    0  0.68409312343E+03  0.69382843768E+03  0.37177635103E+03  0.10540353935E+04  0.15294330000E+03 0.  0.
<mgrwt>
<rscale>  0 0.98629253E+03</rscale>
<asrwt>0</asrwt>
<pdfrwt beam="1">  1        2 0.65395505E+00 0.98629253E+03</pdfrwt>
<pdfrwt beam="2">  1       -2 0.63057056E-01 0.98629253E+03</pdfrwt>
<totfact> 0.52207112E-01</totfact>
</mgrwt>
</event>
<event>
 4    1  0.2202466E-008  0.7517144E+03  0.7818608E-02  0.9632665E-01
          2   -1    0    0  501    0  0.00000000000E+00  0.00000000000E+00  0.16057453058E+04  0.16057453058E+04  0.25500000000E-02 0. -1.
         -2   -1    0    0    0  501 -0.00000000000E+00 -0.00000000000E+00 -0.75383753849E+03  0.75383753849E+03  0.25500000000E-02 0.  1.
    8880022    1    1    2    0    0 -0.69844665586E+03 -0.23206711027E+03  0.12874262423E+04  0.14908188546E+04  0.15294330000E+03 0.  0.
    8880022    1    1    2    0    0  0.69844665586E+03  0.23206711027E+03 -0.43551847499E+03  0.86876398972E+03  0.15294330000E+03 0.  0.
<mgrwt>
<rscale>  0 0.75171439E+03</rscale>
<asrwt>0</asrwt>
<pdfrwt beam="1">  1        2 0.24703774E+00 0.75171439E+03</pdfrwt>
<pdfrwt beam="2">  1       -2 0.11597501E+00 0.75171439E+03</pdfrwt>
<totfact> 0.65655195E+00</totfact>
</mgrwt>
</event>
<event>
 4    1  0.2202466E-008  0.5348931E+03  0.7818608E-02  0.1005052E+00
         -2   -1    0    0    0  501 -0.00000000000E+00  0.00000000000E+00  0.40130595088E+03  0.40130595088E+03  0.25500000000E-02 0.  1.
          2   -1    0    0  501    0  0.00000000000E+00 -0.00000000000E+00 -0.24687794922E+04  0.24687794922E+04  0.25500000000E-02 0. -1.
    8880022    1    1    2    0    0  0.36288028200E+03  0.36199018164E+03  0.17648506146E+03  0.56325626548E+03  0.15294330000E+03 0.  0.
    8880022    1    1    2    0    0 -0.36288028200E+03 -0.36199018164E+03 -0.22439586028E+04  0.23068291776E+04  0.15294330000E+03 0.  0.
<mgrwt>
<rscale>  0 0.53489311E+03</rscale>
<asrwt>0</asrwt>
<pdfrwt beam="1">  1        2 0.37981222E+00 0.53489311E+03</pdfrwt>
<pdfrwt beam="2">  1       -2 0.61739379E-01 0.53489311E+03</pdfrwt>
<totfact> 0.96739411E+00</totfact>
</mgrwt>
</event>
<event>
 4    1  0.2202466E-008  0.6822452E+03  0.7818608E-02  0.9748086E-01
          2   -1    0    0  501    0  0.00000000000E+00  0.00000000000E+00  0.83472982689E+03  0.83472982690E+03  0.25500000000E-02 0. -1.
         -2   -1    0    0    0  501 -0.00000000000E+00 -0.00000000000E+00 -0.11599010493E+04  0.11599010493E+04  0.25500000000E-02 0.  1.
    8880022    1    1    2    0    0 -0.62520894267E+03  0.22623129739E+03  0.55607395812E+03  0.88015721427E+03  0.15294330000E+03 0.  0.
    8880022    1    1    2    0    0  0.62520894267E+03 -0.22623129739E+03 -0.88124518053E+03  0.11144736619E+04  0.15294330000E+03 0.  0.
<mgrwt>
<rscale>  0 0.68224517E+03</rscale>
<asrwt>0</asrwt>
<pdfrwt beam="1">  1        2 0.12841997E+00 0.68224517E+03</pdfrwt>
<pdfrwt beam="2">  1       -2 0.17844631E+00 0.68224517E+03</pdfrwt>
<totfact> 0.62195898E+00</totfact>
</mgrwt>
</event>
<event>
 4    1  0.2202466E-008  0.8325506E+03  0.7818608E-02  0.9514061E-01
         -2   -1    0    0    0  501 -0.00000000000E+00  0.00000000000E+00  0.14777222656E+04  0.14777222656E+04  0.25500000000E-02 0.  1.
          2   -1    0    0  501    0  0.00000000000E+00 -0.00000000000E+00 -0.12353465831E+04  0.12353465831E+04  0.25500000000E-02 0. -1.
    8880022    1    1    2    0    0 -0.75201489327E+03 -0.32283513858E+03 -0.94720750475E+03  0.12610878782E+04  0.15294330000E+03 0.  0.
    8880022    1    1    2    0    0  0.75201489327E+03  0.32283513858E+03  0.11895831872E+04  0.14519809705E+04  0.15294330000E+03 0.  0.
<mgrwt>
<rscale>  0 0.83255065E+03</rscale>
<asrwt>0</asrwt>
<pdfrwt beam="1">  1        2 0.19005332E+00 0.83255065E+03</pdfrwt>
<pdfrwt beam="2">  1       -2 0.22734189E+00 0.83255065E+03</pdfrwt>
<totfact> 0.16328171E+00</totfact>
</mgrwt>
</event>
<event>
 4    1  0.2202466E-008  0.1137156E+04  0.7818608E-02  0.9169715E-01
         -2   -1    0    0    0  501 -0.00000000000E+00  0.00000000000E+00  0.10570646282E+04  0.10570646282E+04  0.25500000000E-02 0.  1.
          2   -1    0    0  501    0  0.00000000000E+00 -0.00000000000E+00 -0.39921016570E+04  0.39921016570E+04  0.25500000000E-02 0. -1.
    8880022    1    1    2    0    0  0.86032893986E+03 -0.72771256702E+03 -0.35700069763E+04  0.37467416416E+04  0.15294330000E+03 0.  0.
    8880022    1    1    2    0    0 -0.86032893986E+03  0.72771256702E+03  0.63496994750E+03  0.13024246436E+04  0.15294330000E+03 0.  0.
<mgrwt>
<rscale>  0 0.11371557E+04</rscale>
<asrwt>0</asrwt>
<pdfrwt beam="1">  1        2 0.61416948E+00 0.11371557E+04</pdfrwt>
<pdfrwt beam="2">  1       -2 0.16262533E+00 0.11371557E+04</pdfrwt>
<totfact> 0.85207442E-02</totfact>
</mgrwt>
</event>
<event>
 4    1  0.2202466E-008  0.4057723E+03  0.7818608E-02  0.1041799E+00
          2   -1    0    0  501    0  0.00000000000E+00  0.00000000000E+00  0.23834459534E+04  0.23834459534E+04  0.25500000000E-02 0. -1.
         -2   -1    0    0    0  501 -0.00000000000E+00 -0.00000000000E+00 -0.15019073731E+03  0.15019073733E+03  0.25500000000E-02 0.  1.
    8880022    1    1    2    0    0  0.86284098484E+02 -0.36580676462E+03  0.18567223067E+03  0.44623465234E+03  0.15294330000E+03 0.  1.
    8880022    1    1    2    0    0 -0.86284098484E+02  0.36580676462E+03  0.20475829854E+04  0.20874020384E+04  0.15294330000E+03 0.  0.
<mgrwt>
<rscale>  0 0.40577233E+03</rscale>
<asrwt>0</asrwt>
<pdfrwt beam="1">  1        2 0.36668397E+00 0.40577233E+03</pdfrwt>
<pdfrwt beam="2">  1       -2 0.23106269E-01 0.40577233E+03</pdfrwt>
<totfact> 0.73649392E+01</totfact>
</mgrwt>
</event>
<event>
 4    1  0.2202466E-008  0.1009985E+04  0.7818608E-02  0.9297660E-01
          2   -1    0    0  501    0  0.00000000000E+00  0.00000000000E+00  0.24924663733E+04  0.24924663733E+04  0.25500000000E-02 0. -1.
         -2   -1    0    0    0  501 -0.00000000000E+00 -0.00000000000E+00 -0.54563874025E+03  0.54563874025E+03  0.25500000000E-02 0.  1.
    8880022    1    1    2    0    0  0.31066488127E+03 -0.94877088640E+03  0.21397785804E+03  0.10324035258E+04  0.15294330000E+03 0.  0.
    8880022    1    1    2    0    0 -0.31066488127E+03  0.94877088640E+03  0.17328497750E+04  0.20057015877E+04  0.15294330000E+03 0.  0.
<mgrwt>
<rscale>  0 0.10099854E+04</rscale>
<asrwt>0</asrwt>
<pdfrwt beam="1">  1        2 0.38345636E+00 0.10099854E+04</pdfrwt>
<pdfrwt beam="2">  1       -2 0.83944422E-01 0.10099854E+04</pdfrwt>
<totfact> 0.43958999E+00</totfact>
</mgrwt>
</event>
<event>
 4    1  0.2202466E-008  0.6403506E+03  0.7818608E-02  0.9825056E-01
         -2   -1    0    0    0  501 -0.00000000000E+00  0.00000000000E+00  0.40846066575E+03  0.40846066576E+03  0.25500000000E-02 0.  1.
          2   -1    0    0  501    0  0.00000000000E+00 -0.00000000000E+00 -0.17264936105E+04  0.17264936105E+04  0.25500000000E-02 0. -1.
    8880022    1    1    2    0    0 -0.45281474645E+03 -0.42616440337E+03 -0.13496165503E+04  0.14938252171E+04  0.15294330000E+03 0.  0.
    8880022    1    1    2    0    0  0.45281474645E+03  0.42616440337E+03  0.31583605608E+02  0.64112905913E+03  0.15294330000E+03 0.  0.
<mgrwt>
<rscale>  0 0.64035064E+03</rscale>
<asrwt>0</asrwt>
<pdfrwt beam="1">  1        2 0.26561440E+00 0.64035064E+03</pdfrwt>
<pdfrwt beam="2">  1       -2 0.62840103E-01 0.64035064E+03</pdfrwt>
<totfact> 0.23222763E+01</totfact>
</mgrwt>
</event>
<event>
 4    1  0.2202466E-008  0.8991681E+03  0.7818608E-02  0.9426622E-01
          2   -1    0    0  501    0  0.00000000000E+00  0.00000000000E+00  0.13710491307E+04  0.13710491307E+04  0.25500000000E-02 0. -1.
         -2   -1    0    0    0  501 -0.00000000000E+00 -0.00000000000E+00 -0.98261816982E+03  0.98261816982E+03  0.25500000000E-02 0.  1.
    8880022    1    1    2    0    0  0.11829973033E+03  0.87813254778E+03 -0.54996028249E+03  0.10540206654E+04  0.15294330000E+03 0.  0.
    8880022    1    1    2    0    0 -0.11829973033E+03 -0.87813254778E+03  0.93839124340E+03  0.12996466352E+04  0.15294330000E+03 0.  0.
<mgrwt>
<rscale>  0 0.89916809E+03</rscale>
<asrwt>0</asrwt>
<pdfrwt beam="1">  1        2 0.21093063E+00 0.89916809E+03</pdfrwt>
<pdfrwt beam="2">  1       -2 0.15117203E+00 0.89916809E+03</pdfrwt>
<totfact> 0.44291020E+00</totfact>
</mgrwt>
</event>
<event>
 4    1  0.2202466E-008  0.9604629E+03  0.7818608E-02  0.9353004E-01
         -2   -1    0    0    0  501 -0.00000000000E+00  0.00000000000E+00  0.54550944957E+03  0.54550944958E+03  0.25500000000E-02 0.  1.
          2   -1    0    0  501    0  0.00000000000E+00 -0.00000000000E+00 -0.26092211998E+04  0.26092211998E+04  0.25500000000E-02 0. -1.
    8880022    1    1    2    0    0 -0.13159746277E+03 -0.93903114612E+03 -0.19675553430E+04  0.21894663885E+04  0.15294330000E+03 0.  0.
    8880022    1    1    2    0    0  0.13159746277E+03  0.93903114612E+03 -0.96156407183E+02  0.96526426083E+03  0.15294330000E+03 0.  0.
<mgrwt>
<rscale>  0 0.96046293E+03</rscale>
<asrwt>0</asrwt>
<pdfrwt beam="1">  1        2 0.40141864E+00 0.96046293E+03</pdfrwt>
<pdfrwt beam="2">  1       -2 0.83924532E-01 0.96046293E+03</pdfrwt>
<totfact> 0.37941061E+00</totfact>
</mgrwt>
</event>
<event>
 4    1  0.2202466E-008  0.3849771E+03  0.7818608E-02  0.1049109E+00
         -2   -1    0    0    0  501 -0.00000000000E+00  0.00000000000E+00  0.37585752420E+03  0.37585752421E+03  0.25500000000E-02 0.  1.
          2   -1    0    0  501    0  0.00000000000E+00 -0.00000000000E+00 -0.16244754131E+04  0.16244754131E+04  0.25500000000E-02 0. -1.
    8880022    1    1    2    0    0  0.33774161199E+03 -0.10366437697E+03  0.24604535586E+03  0.45688693314E+03  0.15294330000E+03 0.  0.
    8880022    1    1    2    0    0 -0.33774161199E+03  0.10366437697E+03 -0.14946632448E+04  0.15434460042E+04  0.15294330000E+03 0. -1.
<mgrwt>
<rscale>  0 0.38497708E+03</rscale>
<asrwt>0</asrwt>
<pdfrwt beam="1">  1        2 0.24991929E+00 0.38497708E+03</pdfrwt>
<pdfrwt beam="2">  1       -2 0.57824235E-01 0.38497708E+03</pdfrwt>
<totfact> 0.32923878E+01</totfact>
</mgrwt>
</event>
<event>
 4    1  0.2202466E-008  0.3646091E+03  0.7818608E-02  0.1056774E+00
          2   -1    0    0  501    0  0.00000000000E+00  0.00000000000E+00  0.29109104960E+04  0.29109104960E+04  0.25500000000E-02 0. -1.
         -2   -1    0    0    0  501 -0.00000000000E+00 -0.00000000000E+00 -0.20897892499E+03  0.20897892501E+03  0.25500000000E-02 0.  1.
    8880022    1    1    2    0    0 -0.28640212748E+03  0.16589742316E+03 -0.28032110796E+02  0.36568509115E+03  0.15294330000E+03 0.  0.
    8880022    1    1    2    0    0  0.28640212748E+03 -0.16589742316E+03  0.27299636818E+04  0.27542043298E+04  0.15294330000E+03 0.  0.
<mgrwt>
<rscale>  0 0.36460909E+03</rscale>
<asrwt>0</asrwt>
<pdfrwt beam="1">  1        2 0.44783234E+00 0.36460909E+03</pdfrwt>
<pdfrwt beam="2">  1       -2 0.32150607E-01 0.36460909E+03</pdfrwt>
<totfact> 0.20607439E+01</totfact>
</mgrwt>
</event>
<event>
 4    1  0.2202466E-008  0.1025929E+04  0.7818608E-02  0.9280555E-01
         -2   -1    0    0    0  501 -0.00000000000E+00  0.00000000000E+00  0.41150520793E+03  0.41150520794E+03  0.25500000000E-02 0.  1.
          2   -1    0    0  501    0  0.00000000000E+00 -0.00000000000E+00 -0.45419198237E+04  0.45419198237E+04  0.25500000000E-02 0. -1.
    8880022    1    1    2    0    0 -0.46593316567E+03 -0.90113537516E+03 -0.42822298784E+03  0.11117127595E+04  0.15294330000E+03 0.  0.
    8880022    1    1    2    0    0  0.46593316567E+03  0.90113537516E+03 -0.37021916279E+04  0.38417122722E+04  0.15294330000E+03 0.  0.
<mgrwt>
<rscale>  0 0.10259290E+04</rscale>
<asrwt>0</asrwt>
<pdfrwt beam="1">  1        2 0.69875686E+00 0.10259290E+04</pdfrwt>
<pdfrwt beam="2">  1       -2 0.63308497E-01 0.10259290E+04</pdfrwt>
<totfact> 0.27706120E-01</totfact>
</mgrwt>
</event>
<event>
 4    1  0.2202466E-008  0.8642820E+03  0.7818608E-02  0.9471366E-01
         -2   -1    0    0    0  501 -0.00000000000E+00  0.00000000000E+00  0.39424958237E+03  0.39424958237E+03  0.25500000000E-02 0.  1.
          2   -1    0    0  501    0  0.00000000000E+00 -0.00000000000E+00 -0.19719804723E+04  0.19719804724E+04  0.25500000000E-02 0. -1.
    8880022    1    1    2    0    0 -0.84924246520E+03  0.48775126074E+02 -0.55464786996E+03  0.10269458069E+04  0.15294330000E+03 0.  0.
    8880022    1    1    2    0    0  0.84924246520E+03 -0.48775126074E+02 -0.10230830200E+04  0.13392842478E+04  0.15294330000E+03 0.  0.
<mgrwt>
<rscale>  0 0.86428203E+03</rscale>
<asrwt>0</asrwt>
<pdfrwt beam="1">  1        2 0.30338160E+00 0.86428203E+03</pdfrwt>
<pdfrwt beam="2">  1       -2 0.60653783E-01 0.86428203E+03</pdfrwt>
<totfact> 0.17852845E+01</totfact>
</mgrwt>
</event>
<event>
 4    1  0.2202466E-008  0.6447703E+03  0.7818608E-02  0.9816642E-01
          2   -1    0    0  501    0  0.00000000000E+00  0.00000000000E+00  0.17253696466E+04  0.17253696466E+04  0.25500000000E-02 0. -1.
         -2   -1    0    0    0  501 -0.00000000000E+00 -0.00000000000E+00 -0.50566168473E+03  0.50566168473E+03  0.25500000000E-02 0.  1.
    8880022    1    1    2    0    0 -0.59754274688E+03 -0.18782902808E+03 -0.19725424036E+03  0.67426846767E+03  0.15294330000E+03 0.  0.
    8880022    1    1    2    0    0  0.59754274688E+03  0.18782902808E+03  0.14169622023E+04  0.15567628637E+04  0.15294330000E+03 0.  0.
<mgrwt>
<rscale>  0 0.64477029E+03</rscale>
<asrwt>0</asrwt>
<pdfrwt beam="1">  1        2 0.26544148E+00 0.64477029E+03</pdfrwt>
<pdfrwt beam="2">  1       -2 0.77794106E-01 0.64477029E+03</pdfrwt>
<totfact> 0.14598563E+01</totfact>
</mgrwt>
</event>
<event>
 4    1  0.2202466E-008  0.1063405E+04  0.7818608E-02  0.9241613E-01
          2   -1    0    0  501    0  0.00000000000E+00  0.00000000000E+00  0.33152095419E+04  0.33152095419E+04  0.25500000000E-02 0. -1.
         -2   -1    0    0    0  501 -0.00000000000E+00 -0.00000000000E+00 -0.16168327620E+04  0.16168327620E+04  0.25500000000E-02 0.  1.
    8880022    1    1    2    0    0 -0.39035450264E+03  0.97727268030E+03 -0.13413127050E+04  0.17117096585E+04  0.15294330000E+03 0.  0.
    8880022    1    1    2    0    0  0.39035450264E+03 -0.97727268030E+03  0.30396894849E+04  0.32203326454E+04  0.15294330000E+03 0. -1.
<mgrwt>
<rscale>  0 0.10634050E+04</rscale>
<asrwt>0</asrwt>
<pdfrwt beam="1">  1        2 0.51003223E+00 0.10634050E+04</pdfrwt>
<pdfrwt beam="2">  1       -2 0.24874351E+00 0.10634050E+04</pdfrwt>
<totfact> 0.72370186E-02</totfact>
</mgrwt>
</event>
<event>
 4    1  0.2202466E-008  0.1187703E+04  0.7818608E-02  0.9123689E-01
          2   -1    0    0  501    0  0.00000000000E+00  0.00000000000E+00  0.91673810017E+03  0.91673810017E+03  0.25500000000E-02 0. -1.
         -2   -1    0    0    0  501 -0.00000000000E+00 -0.00000000000E+00 -0.21843466057E+04  0.21843466057E+04  0.25500000000E-02 0.  1.
    8880022    1    1    2    0    0  0.62938208246E+03 -0.99555271904E+03  0.20914332969E+03  0.12059766198E+04  0.15294330000E+03 0.  0.
    8880022    1    1    2    0    0 -0.62938208246E+03  0.99555271904E+03 -0.14767518352E+04  0.18951080861E+04  0.15294330000E+03 0.  0.
<mgrwt>
<rscale>  0 0.11877031E+04</rscale>
<asrwt>0</asrwt>
<pdfrwt beam="1">  1        2 0.14103663E+00 0.11877031E+04</pdfrwt>
<pdfrwt beam="2">  1       -2 0.33605332E+00 0.11877031E+04</pdfrwt>
<totfact> 0.53500143E-01</totfact>
</mgrwt>
</event>
<event>
 4    1  0.2202466E-008  0.7956706E+03  0.7818608E-02  0.9566305E-01
         -2   -1    0    0    0  501 -0.00000000000E+00  0.00000000000E+00  0.85803464538E+03  0.85803464538E+03  0.25500000000E-02 0.  1.
          2   -1    0    0  501    0  0.00000000000E+00 -0.00000000000E+00 -0.10938236960E+04  0.10938236960E+04  0.25500000000E-02 0. -1.
    8880022    1    1    2    0    0  0.54538850160E+02  0.77892593508E+03  0.43885527143E+03  0.90867249369E+03  0.15294330000E+03 0. -1.
    8880022    1    1    2    0    0 -0.54538850160E+02 -0.77892593508E+03 -0.67464432204E+03  0.10431858477E+04  0.15294330000E+03 0.  0.
<mgrwt>
<rscale>  0 0.79567063E+03</rscale>
<asrwt>0</asrwt>
<pdfrwt beam="1">  1        2 0.16828057E+00 0.79567063E+03</pdfrwt>
<pdfrwt beam="2">  1       -2 0.13200533E+00 0.79567063E+03</pdfrwt>
<totfact> 0.93017697E+00</totfact>
</mgrwt>
</event>
<event>
 4    1  0.2202466E-008  0.1528091E+04  0.7818608E-02  0.8865985E-01
          2   -1    0    0  501    0  0.00000000000E+00  0.00000000000E+00  0.32009031589E+04  0.32009031589E+04  0.25500000000E-02 0. -1.
         -2   -1    0    0    0  501 -0.00000000000E+00 -0.00000000000E+00 -0.19118614701E+04  0.19118614701E+04  0.25500000000E-02 0.  1.
    8880022    1    1    2    0    0 -0.92437822529E+03 -0.12071435556E+04  0.26548748031E+04  0.30632372648E+04  0.15294330000E+03 0.  0.
    8880022    1    1    2    0    0  0.92437822529E+03  0.12071435556E+04 -0.13658331144E+04  0.20495273642E+04  0.15294330000E+03 0.  0.
<mgrwt>
<rscale>  0 0.15280911E+04</rscale>
<asrwt>0</asrwt>
<pdfrwt beam="1">  1        2 0.49244663E+00 0.15280911E+04</pdfrwt>
<pdfrwt beam="2">  1       -2 0.29413254E+00 0.15280911E+04</pdfrwt>
<totfact> 0.41974433E-02</totfact>
</mgrwt>
</event>
<event>
 4    1  0.2202466E-008  0.7223597E+03  0.7818608E-02  0.9679740E-01
         -2   -1    0    0    0  501 -0.00000000000E+00  0.00000000000E+00  0.11282082068E+04  0.11282082068E+04  0.25500000000E-02 0.  1.
          2   -1    0    0  501    0  0.00000000000E+00 -0.00000000000E+00 -0.18134572383E+04  0.18134572383E+04  0.25500000000E-02 0. -1.
    8880022    1    1    2    0    0  0.69289867130E+03 -0.13528998884E+03 -0.16121148073E+04  0.17665553358E+04  0.15294330000E+03 0.  0.
    8880022    1    1    2    0    0 -0.69289867130E+03  0.13528998884E+03  0.92686577570E+03  0.11751101093E+04  0.15294330000E+03 0.  0.
<mgrwt>
<rscale>  0 0.72235975E+03</rscale>
<asrwt>0</asrwt>
<pdfrwt beam="1">  1        2 0.27899342E+00 0.72235975E+03</pdfrwt>
<pdfrwt beam="2">  1       -2 0.17357049E+00 0.72235975E+03</pdfrwt>
<totfact> 0.17753490E+00</totfact>
</mgrwt>
</event>
<event>
 4    1  0.2202466E-008  0.9537402E+03  0.7818608E-02  0.9360790E-01
          2   -1    0    0  501    0  0.00000000000E+00  0.00000000000E+00  0.34008337475E+04  0.34008337475E+04  0.25500000000E-02 0. -1.
         -2   -1    0    0    0  501 -0.00000000000E+00 -0.00000000000E+00 -0.70854014179E+03  0.70854014179E+03  0.25500000000E-02 0.  1.
    8880022    1    1    2    0    0  0.93151322884E+03 -0.13605815120E+03 -0.27498136838E+03  0.99259010774E+03  0.15294330000E+03 0.  0.
    8880022    1    1    2    0    0 -0.93151322884E+03  0.13605815120E+03  0.29672749741E+04  0.31167837815E+04  0.15294330000E+03 0.  0.
<mgrwt>
<rscale>  0 0.95374020E+03</rscale>
<asrwt>0</asrwt>
<pdfrwt beam="1">  1        2 0.52320518E+00 0.95374020E+03</pdfrwt>
<pdfrwt beam="2">  1       -2 0.10900618E+00 0.95374020E+03</pdfrwt>
<totfact> 0.66414605E-01</totfact>
</mgrwt>
</event>
<event>
 4    1  0.2202466E-008  0.1068617E+04  0.7818608E-02  0.9236332E-01
          2   -1    0    0  501    0  0.00000000000E+00  0.00000000000E+00  0.95845554179E+03  0.95845554179E+03  0.25500000000E-02 0. -1.
         -2   -1    0    0    0  501 -0.00000000000E+00 -0.00000000000E+00 -0.17197708625E+04  0.17197708625E+04  0.25500000000E-02 0.  1.
    8880022    1    1    2    0    0 -0.55751385167E+03  0.89873696599E+03  0.36156691018E+03  0.11281277022E+04  0.15294330000E+03 0.  0.
    8880022    1    1    2    0    0  0.55751385167E+03 -0.89873696599E+03 -0.11228822308E+04  0.15500987021E+04  0.15294330000E+03 0.  0.
<mgrwt>
<rscale>  0 0.10686166E+04</rscale>
<asrwt>0</asrwt>
<pdfrwt beam="1">  1        2 0.14745470E+00 0.10686166E+04</pdfrwt>
<pdfrwt beam="2">  1       -2 0.26458013E+00 0.10686166E+04</pdfrwt>
<totfact> 0.13884110E+00</totfact>
</mgrwt>
</event>
<event>
 4    1  0.2202466E-008  0.8523276E+03  0.7818608E-02  0.9487218E-01
         -2   -1    0    0    0  501 -0.00000000000E+00  0.00000000000E+00  0.22112350169E+04  0.22112350169E+04  0.25500000000E-02 0.  1.
          2   -1    0    0  501    0  0.00000000000E+00 -0.00000000000E+00 -0.56919763651E+03  0.56919763652E+03  0.25500000000E-02 0. -1.
    8880022    1    1    2    0    0 -0.81968288628E+03 -0.17660887548E+03  0.17249959535E+04  0.19240772909E+04  0.15294330000E+03 0.  0.
    8880022    1    1    2    0    0  0.81968288628E+03  0.17660887548E+03 -0.82958573112E+02  0.85635536246E+03  0.15294330000E+03 0.  0.
<mgrwt>
<rscale>  0 0.85232763E+03</rscale>
<asrwt>0</asrwt>
<pdfrwt beam="1">  1        2 0.87568866E-01 0.85232763E+03</pdfrwt>
<pdfrwt beam="2">  1       -2 0.34019001E+00 0.85232763E+03</pdfrwt>
<totfact> 0.98008116E-01</totfact>
</mgrwt>
</event>
<event>
 4    1  0.2202466E-008  0.1314173E+04  0.7818608E-02  0.9018401E-01
         -2   -1    0    0    0  501 -0.00000000000E+00  0.00000000000E+00  0.10421091763E+04  0.10421091763E+04  0.25500000000E-02 0.  1.
          2   -1    0    0  501    0  0.00000000000E+00 -0.00000000000E+00 -0.28862600005E+04  0.28862600005E+04  0.25500000000E-02 0. -1.
    8880022    1    1    2    0    0  0.13048912460E+04  0.30307252087E+02  0.35963403098E+03  0.13624932963E+04  0.15294330000E+03 0.  0.
    8880022    1    1    2    0    0 -0.13048912460E+04 -0.30307252087E+02 -0.22037848552E+04  0.25658758805E+04  0.15294330000E+03 0.  0.
<mgrwt>
<rscale>  0 0.13141733E+04</rscale>
<asrwt>0</asrwt>
<pdfrwt beam="1">  1        2 0.44404000E+00 0.13141733E+04</pdfrwt>
<pdfrwt beam="2">  1       -2 0.16032449E+00 0.13141733E+04</pdfrwt>
<totfact> 0.49628811E-01</totfact>
</mgrwt>
</event>
<event>
 4    1  0.2202466E-008  0.7654599E+03  0.7818608E-02  0.9611404E-01
          2   -1    0    0  501    0  0.00000000000E+00  0.00000000000E+00  0.75669132306E+03  0.75669132307E+03  0.25500000000E-02 0. -1.
         -2   -1    0    0    0  501 -0.00000000000E+00 -0.00000000000E+00 -0.15689560089E+04  0.15689560089E+04  0.25500000000E-02 0.  1.
    8880022    1    1    2    0    0 -0.26301294804E+03 -0.70239694365E+03  0.42140922269E+03  0.87379326117E+03  0.15294330000E+03 0. -1.
    8880022    1    1    2    0    0  0.26301294804E+03  0.70239694365E+03 -0.12336739085E+04  0.14518540708E+04  0.15294330000E+03 0.  0.
<mgrwt>
<rscale>  0 0.76545995E+03</rscale>
<asrwt>0</asrwt>
<pdfrwt beam="1">  1        2 0.11641405E+00 0.76545995E+03</pdfrwt>
<pdfrwt beam="2">  1       -2 0.24137785E+00 0.76545995E+03</pdfrwt>
<totfact> 0.27652294E+00</totfact>
</mgrwt>
</event>
<event>
 4    1  0.2202466E-008  0.1611536E+04  0.7818608E-02  0.8813492E-01
          2   -1    0    0  501    0  0.00000000000E+00  0.00000000000E+00  0.29124108857E+04  0.29124108857E+04  0.25500000000E-02 0. -1.
         -2   -1    0    0    0  501 -0.00000000000E+00 -0.00000000000E+00 -0.13444228927E+04  0.13444228927E+04  0.25500000000E-02 0.  1.
    8880022    1    1    2    0    0 -0.10160067083E+04 -0.12415255802E+04 -0.45109057547E+03  0.16734783410E+04  0.15294330000E+03 0.  0.
    8880022    1    1    2    0    0  0.10160067083E+04  0.12415255802E+04  0.20190785685E+04  0.25833554374E+04  0.15294330000E+03 0.  0.
<mgrwt>
<rscale>  0 0.16115356E+04</rscale>
<asrwt>0</asrwt>
<pdfrwt beam="1">  1        2 0.44806321E+00 0.16115356E+04</pdfrwt>
<pdfrwt beam="2">  1       -2 0.20683429E+00 0.16115356E+04</pdfrwt>
<totfact> 0.22012965E-01</totfact>
</mgrwt>
</event>
<event>
 4    1  0.2202466E-008  0.6716520E+03  0.7818608E-02  0.9766978E-01
         -2   -1    0    0    0  501 -0.00000000000E+00  0.00000000000E+00  0.47749975271E+03  0.47749975272E+03  0.25500000000E-02 0.  1.
          2   -1    0    0  501    0  0.00000000000E+00 -0.00000000000E+00 -0.15428122393E+04  0.15428122393E+04  0.25500000000E-02 0. -1.
    8880022    1    1    2    0    0  0.56018156078E+03 -0.33752234663E+03  0.96279471837E+02  0.67851757916E+03  0.15294330000E+03 0.  0.
    8880022    1    1    2    0    0 -0.56018156078E+03  0.33752234663E+03 -0.11615919585E+04  0.13417944129E+04  0.15294330000E+03 0.  0.
<mgrwt>
<rscale>  0 0.67165197E+03</rscale>
<asrwt>0</asrwt>
<pdfrwt beam="1">  1        2 0.23735573E+00 0.67165197E+03</pdfrwt>
<pdfrwt beam="2">  1       -2 0.73461501E-01 0.67165197E+03</pdfrwt>
<totfact> 0.20781319E+01</totfact>
</mgrwt>
</event>
<event>
 4    1  0.2202466E-008  0.8867936E+03  0.7818608E-02  0.9442242E-01
          2   -1    0    0  501    0  0.00000000000E+00  0.00000000000E+00  0.24083488182E+04  0.24083488182E+04  0.25500000000E-02 0. -1.
         -2   -1    0    0    0  501 -0.00000000000E+00 -0.00000000000E+00 -0.17260389375E+04  0.17260389375E+04  0.25500000000E-02 0.  1.
    8880022    1    1    2    0    0  0.45960991554E+03 -0.74281223388E+03  0.22025709484E+04  0.23743887056E+04  0.15294330000E+03 0.  0.
    8880022    1    1    2    0    0 -0.45960991554E+03  0.74281223388E+03 -0.15202610678E+04  0.17599990501E+04  0.15294330000E+03 0.  0.
<mgrwt>
<rscale>  0 0.88679363E+03</rscale>
<asrwt>0</asrwt>
<pdfrwt beam="1">  1        2 0.37051520E+00 0.88679363E+03</pdfrwt>
<pdfrwt beam="2">  1       -2 0.26554445E+00 0.88679363E+03</pdfrwt>
<totfact> 0.21004762E-01</totfact>
</mgrwt>
</event>
<event>
 4    1  0.2202466E-008  0.1845005E+03  0.7818608E-02  0.1163517E+00
          2   -1    0    0  501    0  0.00000000000E+00  0.00000000000E+00  0.38012057811E+04  0.38012057811E+04  0.25500000000E-02 0. -1.
         -2   -1    0    0    0  501 -0.00000000000E+00 -0.00000000000E+00 -0.61113446983E+02  0.61113447036E+02  0.25500000000E-02 0.  1.
    8880022    1    1    2    0    0  0.45642157859E+02 -0.92550454129E+02  0.85978196581E+02  0.20355023074E+03  0.15294330000E+03 0.  1.
    8880022    1    1    2    0    0 -0.45642157859E+02  0.92550454129E+02  0.36541141375E+04  0.36587689973E+04  0.15294330000E+03 0.  0.
<mgrwt>
<rscale>  0 0.18450053E+03</rscale>
<asrwt>0</asrwt>
<pdfrwt beam="1">  1        2 0.58480082E+00 0.18450053E+03</pdfrwt>
<pdfrwt beam="2">  1       -2 0.94020699E-02 0.18450053E+03</pdfrwt>
<totfact> 0.48503775E+01</totfact>
</mgrwt>
</event>
<event>
 4    1  0.2202466E-008  0.9647673E+03  0.7818608E-02  0.9348055E-01
         -2   -1    0    0    0  501 -0.00000000000E+00  0.00000000000E+00  0.87847810977E+03  0.87847810977E+03  0.25500000000E-02 0.  1.
          2   -1    0    0  501    0  0.00000000000E+00 -0.00000000000E+00 -0.26058998780E+04  0.26058998780E+04  0.25500000000E-02 0. -1.
    8880022    1    1    2    0    0 -0.95232584817E+03  0.21441094239E+02 -0.22057734932E+04  0.24075324708E+04  0.15294330000E+03 0.  0.
    8880022    1    1    2    0    0  0.95232584817E+03 -0.21441094239E+02  0.47835172497E+03  0.10768455170E+04  0.15294330000E+03 0.  0.
<mgrwt>
<rscale>  0 0.96476727E+03</rscale>
<asrwt>0</asrwt>
<pdfrwt beam="1">  1        2 0.40090767E+00 0.96476727E+03</pdfrwt>
<pdfrwt beam="2">  1       -2 0.13515048E+00 0.96476727E+03</pdfrwt>
<totfact> 0.12043386E+00</totfact>
</mgrwt>
</event>
<event>
 4    1  0.2202466E-008  0.9857011E+03  0.7818608E-02  0.9324368E-01
         -2   -1    0    0    0  501 -0.00000000000E+00  0.00000000000E+00  0.63500676971E+03  0.63500676971E+03  0.25500000000E-02 0.  1.
          2   -1    0    0  501    0  0.00000000000E+00 -0.00000000000E+00 -0.16679486685E+04  0.16679486685E+04  0.25500000000E-02 0. -1.
    8880022    1    1    2    0    0 -0.77124583125E+03 -0.59447027978E+03 -0.84753197008E+03  0.12999681300E+04  0.15294330000E+03 0.  0.
    8880022    1    1    2    0    0  0.77124583125E+03  0.59447027978E+03 -0.18540992874E+03  0.10029873082E+04  0.15294330000E+03 0.  0.
<mgrwt>
<rscale>  0 0.98570112E+03</rscale>
<asrwt>0</asrwt>
<pdfrwt beam="1">  1        2 0.25660748E+00 0.98570112E+03</pdfrwt>
<pdfrwt beam="2">  1       -2 0.97693350E-01 0.98570112E+03</pdfrwt>
<totfact> 0.89056616E+00</totfact>
</mgrwt>
</event>
<event>
 4    1  0.2202466E-008  0.1072611E+04  0.7818608E-02  0.9232306E-01
          2   -1    0    0  501    0  0.00000000000E+00  0.00000000000E+00  0.29000252255E+04  0.29000252255E+04  0.25500000000E-02 0. -1.
         -2   -1    0    0    0  501 -0.00000000000E+00 -0.00000000000E+00 -0.74490202494E+03  0.74490202495E+03  0.25500000000E-02 0.  1.
    8880022    1    1    2    0    0  0.66192943961E+03 -0.83003196233E+03  0.23235472724E+04  0.25591731519E+04  0.15294330000E+03 0.  0.
    8880022    1    1    2    0    0 -0.66192943961E+03  0.83003196233E+03 -0.16842407182E+03  0.10857540985E+04  0.15294330000E+03 0.  0.
<mgrwt>
<rscale>  0 0.10726114E+04</rscale>
<asrwt>0</asrwt>
<pdfrwt beam="1">  1        2 0.44615773E+00 0.10726114E+04</pdfrwt>
<pdfrwt beam="2">  1       -2 0.11460031E+00 0.10726114E+04</pdfrwt>
<totfact> 0.12002907E+00</totfact>
</mgrwt>
</event>
<event>
 4    1  0.2202466E-008  0.6199772E+03  0.7818608E-02  0.9864805E-01
         -2   -1    0    0    0  501 -0.00000000000E+00  0.00000000000E+00  0.37231641916E+03  0.37231641917E+03  0.25500000000E-02 0.  1.
          2   -1    0    0  501    0  0.00000000000E+00 -0.00000000000E+00 -0.17680746661E+04  0.17680746661E+04  0.25500000000E-02 0. -1.
    8880022    1    1    2    0    0  0.56498288173E+03  0.20438795207E+03 -0.13882172553E+04  0.15203680122E+04  0.15294330000E+03 0.  0.
    8880022    1    1    2    0    0 -0.56498288173E+03 -0.20438795207E+03 -0.75409916676E+01  0.62002307309E+03  0.15294330000E+03 0.  0.
<mgrwt>
<rscale>  0 0.61997721E+03</rscale>
<asrwt>0</asrwt>
<pdfrwt beam="1">  1        2 0.27201148E+00 0.61997721E+03</pdfrwt>
<pdfrwt beam="2">  1       -2 0.57279450E-01 0.61997721E+03</pdfrwt>
<totfact> 0.26880134E+01</totfact>
</mgrwt>
</event>
<event>
 4    1  0.2202466E-008  0.8768779E+03  0.7818608E-02  0.9454956E-01
         -2   -1    0    0    0  501 -0.00000000000E+00  0.00000000000E+00  0.98689978659E+03  0.98689978659E+03  0.25500000000E-02 0.  1.
          2   -1    0    0  501    0  0.00000000000E+00 -0.00000000000E+00 -0.12848567676E+04  0.12848567676E+04  0.25500000000E-02 0. -1.
    8880022    1    1    2    0    0 -0.45910528697E+00  0.86343677239E+03  0.56365465897E+03  0.10424113863E+04  0.15294330000E+03 0.  0.
    8880022    1    1    2    0    0  0.45910528697E+00 -0.86343677239E+03 -0.86161163999E+03  0.12293451679E+04  0.15294330000E+03 0.  0.
<mgrwt>
<rscale>  0 0.87687794E+03</rscale>
<asrwt>0</asrwt>
<pdfrwt beam="1">  1        2 0.19767027E+00 0.87687794E+03</pdfrwt>
<pdfrwt beam="2">  1       -2 0.15183074E+00 0.87687794E+03</pdfrwt>
<totfact> 0.49224060E+00</totfact>
</mgrwt>
</event>
<event>
 4    1  0.2202466E-008  0.8611560E+03  0.7818608E-02  0.9475485E-01
         -2   -1    0    0    0  501 -0.00000000000E+00  0.00000000000E+00  0.65779284301E+03  0.65779284302E+03  0.25500000000E-02 0.  1.
          2   -1    0    0  501    0  0.00000000000E+00 -0.00000000000E+00 -0.12404811875E+04  0.12404811875E+04  0.25500000000E-02 0. -1.
    8880022    1    1    2    0    0 -0.34844690358E+03  0.77251720284E+03 -0.57792444744E+03  0.10371048131E+04  0.15294330000E+03 0.  0.
    8880022    1    1    2    0    0  0.34844690358E+03 -0.77251720284E+03 -0.47638970013E+01  0.86116921742E+03  0.15294330000E+03 0.  0.
<mgrwt>
<rscale>  0 0.86115604E+03</rscale>
<asrwt>0</asrwt>
<pdfrwt beam="1">  1        2 0.19084326E+00 0.86115604E+03</pdfrwt>
<pdfrwt beam="2">  1       -2 0.10119890E+00 0.86115604E+03</pdfrwt>
<totfact> 0.14494061E+01</totfact>
</mgrwt>
</event>
<event>
 4    1  0.2202466E-008  0.1690536E+04  0.7818608E-02  0.8766781E-01
         -2   -1    0    0    0  501 -0.00000000000E+00  0.00000000000E+00  0.21183058958E+04  0.21183058958E+04  0.25500000000E-02 0.  1.
          2   -1    0    0  501    0  0.00000000000E+00 -0.00000000000E+00 -0.23056151463E+04  0.23056151463E+04  0.25500000000E-02 0. -1.
    8880022    1    1    2    0    0  0.16676733675E+04 -0.23105214598E+03 -0.15183390136E+04  0.22722817977E+04  0.15294330000E+03 0.  0.
    8880022    1    1    2    0    0 -0.16676733675E+04  0.23105214598E+03  0.13310297630E+04  0.21516392444E+04  0.15294330000E+03 0.  0.
<mgrwt>
<rscale>  0 0.16905358E+04</rscale>
<asrwt>0</asrwt>
<pdfrwt beam="1">  1        2 0.35471002E+00 0.16905358E+04</pdfrwt>
<pdfrwt beam="2">  1       -2 0.32589322E+00 0.16905358E+04</pdfrwt>
<totfact> 0.90801363E-02</totfact>
</mgrwt>
</event>
<event>
 4    1  0.2202466E-008  0.4894452E+03  0.7818608E-02  0.1016571E+00
         -2   -1    0    0    0  501 -0.00000000000E+00  0.00000000000E+00  0.59181993547E+03  0.59181993547E+03  0.25500000000E-02 0.  1.
          2   -1    0    0  501    0  0.00000000000E+00 -0.00000000000E+00 -0.14227325818E+04  0.14227325818E+04  0.25500000000E-02 0. -1.
    8880022    1    1    2    0    0  0.40466772452E+03  0.22893013379E+03  0.43656570329E+03  0.65585534970E+03  0.15294330000E+03 0.  0.
    8880022    1    1    2    0    0 -0.40466772452E+03 -0.22893013379E+03 -0.12674783496E+04  0.13586971676E+04  0.15294330000E+03 0.  0.
<mgrwt>
<rscale>  0 0.48944522E+03</rscale>
<asrwt>0</asrwt>
<pdfrwt beam="1">  1        2 0.21888193E+00 0.48944522E+03</pdfrwt>
<pdfrwt beam="2">  1       -2 0.91049221E-01 0.48944522E+03</pdfrwt>
<totfact> 0.15390225E+01</totfact>
</mgrwt>
</event>
<event>
 4    1  0.2202466E-008  0.7406354E+03  0.7818608E-02  0.9650158E-01
         -2   -1    0    0    0  501 -0.00000000000E+00  0.00000000000E+00  0.31505331681E+03  0.31505331682E+03  0.25500000000E-02 0.  1.
          2   -1    0    0  501    0  0.00000000000E+00 -0.00000000000E+00 -0.27866498776E+04  0.27866498776E+04  0.25500000000E-02 0. -1.
    8880022    1    1    2    0    0  0.61155506104E+03 -0.38877953475E+03 -0.21857476644E+04  0.23078201023E+04  0.15294330000E+03 0.  0.
    8880022    1    1    2    0    0 -0.61155506104E+03  0.38877953475E+03 -0.28584889643E+03  0.79388309210E+03  0.15294330000E+03 0.  0.
<mgrwt>
<rscale>  0 0.74063538E+03</rscale>
<asrwt>0</asrwt>
<pdfrwt beam="1">  1        2 0.42871535E+00 0.74063538E+03</pdfrwt>
<pdfrwt beam="2">  1       -2 0.48469743E-01 0.74063538E+03</pdfrwt>
<totfact> 0.10053412E+01</totfact>
</mgrwt>
</event>
<event>
 4    1  0.2202466E-008  0.5771381E+03  0.7818608E-02  0.9954006E-01
          2   -1    0    0  501    0  0.00000000000E+00  0.00000000000E+00  0.30501440735E+04  0.30501440735E+04  0.25500000000E-02 0. -1.
         -2   -1    0    0    0  501 -0.00000000000E+00 -0.00000000000E+00 -0.32034333483E+03  0.32034333484E+03  0.25500000000E-02 0.  1.
    8880022    1    1    2    0    0 -0.55627873915E+03 -0.15835214276E+02  0.27330678699E+04  0.27933400123E+04  0.15294330000E+03 0.  0.
    8880022    1    1    2    0    0  0.55627873915E+03  0.15835214276E+02 -0.32671312158E+01  0.57714739608E+03  0.15294330000E+03 0.  0.
<mgrwt>
<rscale>  0 0.57713815E+03</rscale>
<asrwt>0</asrwt>
<pdfrwt beam="1">  1        2 0.46925293E+00 0.57713815E+03</pdfrwt>
<pdfrwt beam="2">  1       -2 0.49283590E-01 0.57713815E+03</pdfrwt>
<totfact> 0.69867467E+00</totfact>
</mgrwt>
</event>
<event>
 4    1  0.2202466E-008  0.5901019E+03  0.7818608E-02  0.9926157E-01
         -2   -1    0    0    0  501 -0.00000000000E+00  0.00000000000E+00  0.14916609725E+03  0.14916609727E+03  0.25500000000E-02 0.  1.
          2   -1    0    0  501    0  0.00000000000E+00 -0.00000000000E+00 -0.40495317001E+04  0.40495317001E+04  0.25500000000E-02 0. -1.
    8880022    1    1    2    0    0 -0.51122081698E+03 -0.25195605483E+03 -0.33164168569E+04  0.33685072360E+04  0.15294330000E+03 0.  0.
    8880022    1    1    2    0    0  0.51122081698E+03  0.25195605483E+03 -0.58394874598E+03  0.83019056140E+03  0.15294330000E+03 0.  0.
<mgrwt>
<rscale>  0 0.59010188E+03</rscale>
<asrwt>0</asrwt>
<pdfrwt beam="1">  1        2 0.62300479E+00 0.59010188E+03</pdfrwt>
<pdfrwt beam="2">  1       -2 0.22948633E-01 0.59010188E+03</pdfrwt>
<totfact> 0.59946131E+00</totfact>
</mgrwt>
</event>
<event>
 4    1  0.2202466E-008  0.1234950E+04  0.7818608E-02  0.9082803E-01
         -2   -1    0    0    0  501 -0.00000000000E+00  0.00000000000E+00  0.15424683313E+04  0.15424683313E+04  0.25500000000E-02 0.  1.
          2   -1    0    0  501    0  0.00000000000E+00 -0.00000000000E+00 -0.26934019673E+04  0.26934019673E+04  0.25500000000E-02 0. -1.
    8880022    1    1    2    0    0 -0.80012708983E+03  0.92817398305E+03 -0.22603936920E+04  0.25757487453E+04  0.15294330000E+03 0.  0.
    8880022    1    1    2    0    0  0.80012708983E+03 -0.92817398305E+03  0.11094600560E+04  0.16601215533E+04  0.15294330000E+03 0.  0.
<mgrwt>
<rscale>  0 0.12349502E+04</rscale>
<asrwt>0</asrwt>
<pdfrwt beam="1">  1        2 0.41436953E+00 0.12349502E+04</pdfrwt>
<pdfrwt beam="2">  1       -2 0.23730282E+00 0.12349502E+04</pdfrwt>
<totfact> 0.20089050E-01</totfact>
</mgrwt>
</event>
<event>
 4    1  0.2202466E-008  0.1533454E+04  0.7818608E-02  0.8862506E-01
         -2   -1    0    0    0  501 -0.00000000000E+00  0.00000000000E+00  0.14348258591E+04  0.14348258591E+04  0.25500000000E-02 0.  1.
          2   -1    0    0  501    0  0.00000000000E+00 -0.00000000000E+00 -0.22915833561E+04  0.22915833561E+04  0.25500000000E-02 0. -1.
    8880022    1    1    2    0    0  0.14312249900E+04  0.52885174507E+03 -0.14227688966E+04  0.20918298512E+04  0.15294330000E+03 0.  0.
    8880022    1    1    2    0    0 -0.14312249900E+04 -0.52885174507E+03  0.56601139957E+03  0.16345793641E+04  0.15294330000E+03 0.  0.
<mgrwt>
<rscale>  0 0.15334539E+04</rscale>
<asrwt>0</asrwt>
<pdfrwt beam="1">  1        2 0.35255129E+00 0.15334539E+04</pdfrwt>
<pdfrwt beam="2">  1       -2 0.22074244E+00 0.15334539E+04</pdfrwt>
<totfact> 0.41885334E-01</totfact>
</mgrwt>
</event>
<event>
 4    1  0.2202466E-008  0.1166849E+04  0.7818608E-02  0.9142379E-01
         -2   -1    0    0    0  501 -0.00000000000E+00  0.00000000000E+00  0.15182665433E+04  0.15182665433E+04  0.25500000000E-02 0.  1.
          2   -1    0    0  501    0  0.00000000000E+00 -0.00000000000E+00 -0.15836196964E+04  0.15836196964E+04  0.25500000000E-02 0. -1.
    8880022    1    1    2    0    0  0.60628745770E+03 -0.98517012932E+03 -0.10540891248E+04  0.15724631001E+04  0.15294330000E+03 0.  0.
    8880022    1    1    2    0    0 -0.60628745770E+03  0.98517012932E+03  0.98873597174E+03  0.15294231396E+04  0.15294330000E+03 0.  0.
<mgrwt>
<rscale>  0 0.11668489E+04</rscale>
<asrwt>0</asrwt>
<pdfrwt beam="1">  1        2 0.24363380E+00 0.11668489E+04</pdfrwt>
<pdfrwt beam="2">  1       -2 0.23357947E+00 0.11668489E+04</pdfrwt>
<totfact> 0.90161316E-01</totfact>
</mgrwt>
</event>
<event>
 4    1  0.2202466E-008  0.3189799E+03  0.7818608E-02  0.1076120E+00
         -2   -1    0    0    0  501 -0.00000000000E+00  0.00000000000E+00  0.28745747455E+03  0.28745747456E+03  0.25500000000E-02 0.  1.
          2   -1    0    0  501    0  0.00000000000E+00 -0.00000000000E+00 -0.99738849091E+03  0.99738849091E+03  0.25500000000E-02 0. -1.
    8880022    1    1    2    0    0 -0.15169888086E+03  0.23525304871E+03  0.16102216588E+03  0.35731825912E+03  0.15294330000E+03 0.  0.
    8880022    1    1    2    0    0  0.15169888086E+03 -0.23525304871E+03 -0.87095318224E+03  0.92752770635E+03  0.15294330000E+03 0.  0.
<mgrwt>
<rscale>  0 0.31897994E+03</rscale>
<asrwt>0</asrwt>
<pdfrwt beam="1">  1        2 0.15344438E+00 0.31897994E+03</pdfrwt>
<pdfrwt beam="2">  1       -2 0.44224227E-01 0.31897994E+03</pdfrwt>
<totfact> 0.12966275E+02</totfact>
</mgrwt>
</event>
<event>
 4    1  0.2202466E-008  0.1431841E+04  0.7818608E-02  0.8931087E-01
          2   -1    0    0  501    0  0.00000000000E+00  0.00000000000E+00  0.18747275136E+04  0.18747275136E+04  0.25500000000E-02 0. -1.
         -2   -1    0    0    0  501 -0.00000000000E+00 -0.00000000000E+00 -0.16303989434E+04  0.16303989434E+04  0.25500000000E-02 0.  1.
    8880022    1    1    2    0    0 -0.42019086052E+03  0.13602267157E+04  0.11277978481E+04  0.18226619863E+04  0.15294330000E+03 0.  0.
    8880022    1    1    2    0    0  0.42019086052E+03 -0.13602267157E+04 -0.88346927788E+03  0.16824644707E+04  0.15294330000E+03 0.  0.
<mgrwt>
<rscale>  0 0.14318410E+04</rscale>
<asrwt>0</asrwt>
<pdfrwt beam="1">  1        2 0.28841962E+00 0.14318410E+04</pdfrwt>
<pdfrwt beam="2">  1       -2 0.25083061E+00 0.14318410E+04</pdfrwt>
<totfact> 0.47071466E-01</totfact>
</mgrwt>
</event>
<event>
 4    1  0.2202466E-008  0.6482472E+03  0.7818608E-02  0.9810074E-01
          2   -1    0    0  501    0  0.00000000000E+00  0.00000000000E+00  0.18041648118E+04  0.18041648118E+04  0.25500000000E-02 0. -1.
         -2   -1    0    0    0  501 -0.00000000000E+00 -0.00000000000E+00 -0.45041024025E+03  0.45041024026E+03  0.25500000000E-02 0.  1.
    8880022    1    1    2    0    0  0.55521381764E+03  0.29760788731E+03 -0.10646457031E+03  0.65693165218E+03  0.15294330000E+03 0.  0.
    8880022    1    1    2    0    0 -0.55521381764E+03 -0.29760788731E+03  0.14602191418E+04  0.15976433999E+04  0.15294330000E+03 0.  0.
<mgrwt>
<rscale>  0 0.64824725E+03</rscale>
<asrwt>0</asrwt>
<pdfrwt beam="1">  1        2 0.27756382E+00 0.64824725E+03</pdfrwt>
<pdfrwt beam="2">  1       -2 0.69293883E-01 0.64824725E+03</pdfrwt>
<totfact> 0.17056886E+01</totfact>
</mgrwt>
</event>
<event>
 4    1  0.2202466E-008  0.8060106E+03  0.7818608E-02  0.9551357E-01
          2   -1    0    0  501    0  0.00000000000E+00  0.00000000000E+00  0.18006380282E+04  0.18006380282E+04  0.25500000000E-02 0. -1.
         -2   -1    0    0    0  501 -0.00000000000E+00 -0.00000000000E+00 -0.48453121173E+03  0.48453121174E+03  0.25500000000E-02 0.  1.
    8880022    1    1    2    0    0  0.56027078887E+03 -0.55889007958E+03  0.12354626945E+04  0.14751342991E+04  0.15294330000E+03 0.  0.
    8880022    1    1    2    0    0 -0.56027078887E+03  0.55889007958E+03  0.80644121955E+02  0.81003494081E+03  0.15294330000E+03 0.  0.
<mgrwt>
<rscale>  0 0.80601063E+03</rscale>
<asrwt>0</asrwt>
<pdfrwt beam="1">  1        2 0.27702124E+00 0.80601063E+03</pdfrwt>
<pdfrwt beam="2">  1       -2 0.74543263E-01 0.80601063E+03</pdfrwt>
<totfact> 0.14271942E+01</totfact>
</mgrwt>
</event>
<event>
 4    1  0.2202466E-008  0.6244416E+03  0.7818608E-02  0.9855956E-01
         -2   -1    0    0    0  501 -0.00000000000E+00  0.00000000000E+00  0.95387350407E+03  0.95387350407E+03  0.25500000000E-02 0.  1.
          2   -1    0    0  501    0  0.00000000000E+00 -0.00000000000E+00 -0.71212369100E+03  0.71212369100E+03  0.25500000000E-02 0. -1.
    8880022    1    1    2    0    0 -0.68678496721E+02  0.60151384068E+03  0.66454053424E+03  0.91188892476E+03  0.15294330000E+03 0.  0.
    8880022    1    1    2    0    0  0.68678496721E+02 -0.60151384068E+03 -0.42279072117E+03  0.75410827031E+03  0.15294330000E+03 0.  0.
<mgrwt>
<rscale>  0 0.62444158E+03</rscale>
<asrwt>0</asrwt>
<pdfrwt beam="1">  1        2 0.10955749E+00 0.62444158E+03</pdfrwt>
<pdfrwt beam="2">  1       -2 0.14674977E+00 0.62444158E+03</pdfrwt>
<totfact> 0.13106795E+01</totfact>
</mgrwt>
</event>
<event>
 4    1  0.2202466E-008  0.7939694E+03  0.7818608E-02  0.9568787E-01
         -2   -1    0    0    0  501 -0.00000000000E+00  0.00000000000E+00  0.50128563647E+03  0.50128563648E+03  0.25500000000E-02 0.  1.
          2   -1    0    0  501    0  0.00000000000E+00 -0.00000000000E+00 -0.24246880724E+04  0.24246880724E+04  0.25500000000E-02 0. -1.
    8880022    1    1    2    0    0 -0.45802142834E+03 -0.63024770491E+03 -0.19767226211E+04  0.21302158980E+04  0.15294330000E+03 0.  0.
    8880022    1    1    2    0    0  0.45802142834E+03  0.63024770491E+03  0.53320185192E+02  0.79575781085E+03  0.15294330000E+03 0.  0.
<mgrwt>
<rscale>  0 0.79396943E+03</rscale>
<asrwt>0</asrwt>
<pdfrwt beam="1">  1        2 0.37302893E+00 0.79396943E+03</pdfrwt>
<pdfrwt beam="2">  1       -2 0.77120869E-01 0.79396943E+03</pdfrwt>
<totfact> 0.60033552E+00</totfact>
</mgrwt>
</event>
<event>
 4    1  0.2202466E-008  0.2125403E+04  0.7818608E-02  0.8550135E-01
         -2   -1    0    0    0  501 -0.00000000000E+00  0.00000000000E+00  0.19055095737E+04  0.19055095737E+04  0.25500000000E-02 0.  1.
          2   -1    0    0  501    0  0.00000000000E+00 -0.00000000000E+00 -0.24625061490E+04  0.24625061490E+04  0.25500000000E-02 0. -1.
    8880022    1    1    2    0    0 -0.21169902159E+04  0.11090502897E+03  0.14326273962E+03  0.21302261301E+04  0.15294330000E+03 0.  0.
    8880022    1    1    2    0    0  0.21169902159E+04 -0.11090502897E+03 -0.70025931495E+03  0.22377895926E+04  0.15294330000E+03 0.  0.
<mgrwt>
<rscale>  0 0.21254033E+04</rscale>
<asrwt>0</asrwt>
<pdfrwt beam="1">  1        2 0.37884710E+00 0.21254033E+04</pdfrwt>
<pdfrwt beam="2">  1       -2 0.29315532E+00 0.21254033E+04</pdfrwt>
<totfact> 0.11231965E-01</totfact>
</mgrwt>
</event>
<event>
 4    1  0.2202466E-008  0.1593156E+04  0.7818608E-02  0.8824764E-01
         -2   -1    0    0    0  501 -0.00000000000E+00  0.00000000000E+00  0.18880350402E+04  0.18880350402E+04  0.25500000000E-02 0.  1.
          2   -1    0    0  501    0  0.00000000000E+00 -0.00000000000E+00 -0.16835136226E+04  0.16835136226E+04  0.25500000000E-02 0. -1.
    8880022    1    1    2    0    0 -0.15773578717E+03  0.15779333779E+04 -0.69929626453E+03  0.17398739156E+04  0.15294330000E+03 0.  0.
    8880022    1    1    2    0    0  0.15773578717E+03 -0.15779333779E+04  0.90381768218E+03  0.18316747471E+04  0.15294330000E+03 0.  0.
<mgrwt>
<rscale>  0 0.15931560E+04</rscale>
<asrwt>0</asrwt>
<pdfrwt beam="1">  1        2 0.25900210E+00 0.15931560E+04</pdfrwt>
<pdfrwt beam="2">  1       -2 0.29046693E+00 0.15931560E+04</pdfrwt>
<totfact> 0.33860129E-01</totfact>
</mgrwt>
</event>
<event>
 4    1  0.2202466E-008  0.4069111E+03  0.7818608E-02  0.1041413E+00
          2   -1    0    0  501    0  0.00000000000E+00  0.00000000000E+00  0.28925317119E+04  0.28925317119E+04  0.25500000000E-02 0. -1.
         -2   -1    0    0    0  501 -0.00000000000E+00 -0.00000000000E+00 -0.12750874543E+03  0.12750874546E+03  0.25500000000E-02 0.  1.
    8880022    1    1    2    0    0 -0.25154368140E+03 -0.28091061001E+03  0.26156419544E+03  0.48372768767E+03  0.15294330000E+03 0.  0.
    8880022    1    1    2    0    0  0.25154368140E+03  0.28091061001E+03  0.25034587710E+04  0.25363127697E+04  0.15294330000E+03 0.  0.
<mgrwt>
<rscale>  0 0.40691111E+03</rscale>
<asrwt>0</asrwt>
<pdfrwt beam="1">  1        2 0.44500485E+00 0.40691111E+03</pdfrwt>
<pdfrwt beam="2">  1       -2 0.19616731E-01 0.40691111E+03</pdfrwt>
<totfact> 0.50410598E+01</totfact>
</mgrwt>
</event>
<event>
 4    1  0.2202466E-008  0.3776343E+03  0.7818608E-02  0.1051812E+00
          2   -1    0    0  501    0  0.00000000000E+00  0.00000000000E+00  0.78428008451E+03  0.78428008451E+03  0.25500000000E-02 0. -1.
         -2   -1    0    0    0  501 -0.00000000000E+00 -0.00000000000E+00 -0.10867251230E+04  0.10867251230E+04  0.25500000000E-02 0.  1.
    8880022    1    1    2    0    0  0.33996385377E+03 -0.60337501167E+02 -0.10048799916E+04  0.10734949867E+04  0.15294330000E+03 0.  0.
    8880022    1    1    2    0    0 -0.33996385377E+03  0.60337501167E+02  0.70243495312E+03  0.79751022081E+03  0.15294330000E+03 0.  0.
<mgrwt>
<rscale>  0 0.37763433E+03</rscale>
<asrwt>0</asrwt>
<pdfrwt beam="1">  1        2 0.12065847E+00 0.37763433E+03</pdfrwt>
<pdfrwt beam="2">  1       -2 0.16718848E+00 0.37763433E+03</pdfrwt>
<totfact> 0.85421313E+00</totfact>
</mgrwt>
</event>
<event>
 4    1  0.2202466E-008  0.1099428E+04  0.7818608E-02  0.9205750E-01
          2   -1    0    0  501    0  0.00000000000E+00  0.00000000000E+00  0.31420903681E+04  0.31420903681E+04  0.25500000000E-02 0. -1.
         -2   -1    0    0    0  501 -0.00000000000E+00 -0.00000000000E+00 -0.11356666773E+04  0.11356666773E+04  0.25500000000E-02 0.  1.
    8880022    1    1    2    0    0 -0.12507110576E+03 -0.10815297955E+04 -0.73608194650E+03  0.13230864541E+04  0.15294330000E+03 0.  0.
    8880022    1    1    2    0    0  0.12507110576E+03  0.10815297955E+04  0.27425056373E+04  0.29546705913E+04  0.15294330000E+03 0.  0.
<mgrwt>
<rscale>  0 0.10994276E+04</rscale>
<asrwt>0</asrwt>
<pdfrwt beam="1">  1        2 0.48339852E+00 0.10994276E+04</pdfrwt>
<pdfrwt beam="2">  1       -2 0.17471795E+00 0.10994276E+04</pdfrwt>
<totfact> 0.27971784E-01</totfact>
</mgrwt>
</event>
<event>
 4    1  0.2202466E-008  0.1224579E+04  0.7818608E-02  0.9091611E-01
          2   -1    0    0  501    0  0.00000000000E+00  0.00000000000E+00  0.18305618907E+04  0.18305618907E+04  0.25500000000E-02 0. -1.
         -2   -1    0    0    0  501 -0.00000000000E+00 -0.00000000000E+00 -0.18674908597E+04  0.18674908597E+04  0.25500000000E-02 0.  1.
    8880022    1    1    2    0    0  0.49070801571E+03  0.11114884199E+04  0.13668717428E+04  0.18351923274E+04  0.15294330000E+03 0.  0.
    8880022    1    1    2    0    0 -0.49070801571E+03 -0.11114884199E+04 -0.14038007118E+04  0.18628604230E+04  0.15294330000E+03 0.  0.
<mgrwt>
<rscale>  0 0.12245785E+04</rscale>
<asrwt>0</asrwt>
<pdfrwt beam="1">  1        2 0.28162491E+00 0.12245785E+04</pdfrwt>
<pdfrwt beam="2">  1       -2 0.28730629E+00 0.12245785E+04</pdfrwt>
<totfact> 0.30638383E-01</totfact>
</mgrwt>
</event>
<event>
 4    1  0.2202466E-008  0.9533327E+03  0.7818608E-02  0.9361264E-01
         -2   -1    0    0    0  501 -0.00000000000E+00  0.00000000000E+00  0.61799916697E+03  0.61799916698E+03  0.25500000000E-02 0.  1.
          2   -1    0    0  501    0  0.00000000000E+00 -0.00000000000E+00 -0.21469986128E+04  0.21469986128E+04  0.25500000000E-02 0. -1.
    8880022    1    1    2    0    0  0.81517522083E+03 -0.47004345968E+03 -0.15404666524E+04  0.18115961622E+04  0.15294330000E+03 0.  0.
    8880022    1    1    2    0    0 -0.81517522083E+03  0.47004345968E+03  0.11467206549E+02  0.95340161762E+03  0.15294330000E+03 0.  0.
<mgrwt>
<rscale>  0 0.95333265E+03</rscale>
<asrwt>0</asrwt>
<pdfrwt beam="1">  1        2 0.33030747E+00 0.95333265E+03</pdfrwt>
<pdfrwt beam="2">  1       -2 0.95076796E-01 0.95333265E+03</pdfrwt>
<totfact> 0.51907734E+00</totfact>
</mgrwt>
</event>
<event>
 4    1  0.2202466E-008  0.1268336E+04  0.7818608E-02  0.9055059E-01
          2   -1    0    0  501    0  0.00000000000E+00  0.00000000000E+00  0.14147004970E+04  0.14147004970E+04  0.25500000000E-02 0. -1.
         -2   -1    0    0    0  501 -0.00000000000E+00 -0.00000000000E+00 -0.17550034162E+04  0.17550034162E+04  0.25500000000E-02 0.  1.
    8880022    1    1    2    0    0  0.12459532621E+04 -0.18134014294E+03  0.77023241246E+03  0.14838913037E+04  0.15294330000E+03 0.  0.
    8880022    1    1    2    0    0 -0.12459532621E+04  0.18134014294E+03 -0.11105353316E+04  0.16858126096E+04  0.15294330000E+03 0.  0.
<mgrwt>
<rscale>  0 0.12683357E+04</rscale>
<asrwt>0</asrwt>
<pdfrwt beam="1">  1        2 0.21764623E+00 0.12683357E+04</pdfrwt>
<pdfrwt beam="2">  1       -2 0.27000053E+00 0.12683357E+04</pdfrwt>
<totfact> 0.66387160E-01</totfact>
</mgrwt>
</event>
<event>
 4    1  0.2202466E-008  0.3828405E+03  0.7818608E-02  0.1049889E+00
         -2   -1    0    0    0  501 -0.00000000000E+00  0.00000000000E+00  0.11913858304E+04  0.11913858304E+04  0.25500000000E-02 0.  1.
          2   -1    0    0  501    0  0.00000000000E+00 -0.00000000000E+00 -0.11202796927E+04  0.11202796927E+04  0.25500000000E-02 0. -1.
    8880022    1    1    2    0    0 -0.32546250453E+03 -0.13133682191E+03  0.11260775803E+04  0.11893769682E+04  0.15294330000E+03 0.  0.
    8880022    1    1    2    0    0  0.32546250453E+03  0.13133682191E+03 -0.10549714427E+04  0.11222885549E+04  0.15294330000E+03 0. -1.
<mgrwt>
<rscale>  0 0.38284051E+03</rscale>
<asrwt>0</asrwt>
<pdfrwt beam="1">  1        2 0.17235072E+00 0.38284051E+03</pdfrwt>
<pdfrwt beam="2">  1       -2 0.18329013E+00 0.38284051E+03</pdfrwt>
<totfact> 0.40224610E+00</totfact>
</mgrwt>
</event>
<event>
 4    1  0.2202466E-008  0.2368148E+04  0.7818608E-02  0.8451526E-01
          2   -1    0    0  501    0  0.00000000000E+00  0.00000000000E+00  0.46080486879E+04  0.46080486879E+04  0.25500000000E-02 0. -1.
         -2   -1    0    0    0  501 -0.00000000000E+00 -0.00000000000E+00 -0.15585303755E+04  0.15585303755E+04  0.25500000000E-02 0.  1.
    8880022    1    1    2    0    0 -0.22103115742E+04  0.83621440437E+03  0.81468987422E+02  0.23695486140E+04  0.15294330000E+03 0.  0.
    8880022    1    1    2    0    0  0.22103115742E+04 -0.83621440437E+03  0.29680493250E+04  0.37970304494E+04  0.15294330000E+03 0.  0.
<mgrwt>
<rscale>  0 0.23681477E+04</rscale>
<asrwt>0</asrwt>
<pdfrwt beam="1">  1        2 0.70893055E+00 0.23681477E+04</pdfrwt>
<pdfrwt beam="2">  1       -2 0.23977391E+00 0.23681477E+04</pdfrwt>
<totfact> 0.61118782E-03</totfact>
</mgrwt>
</event>
<event>
 4    1  0.2202466E-008  0.4026614E+03  0.7818608E-02  0.1042862E+00
          2   -1    0    0  501    0  0.00000000000E+00  0.00000000000E+00  0.79628183048E+03  0.79628183048E+03  0.25500000000E-02 0. -1.
         -2   -1    0    0    0  501 -0.00000000000E+00 -0.00000000000E+00 -0.10396756221E+04  0.10396756221E+04  0.25500000000E-02 0.  1.
    8880022    1    1    2    0    0  0.19886599676E+03  0.31495536488E+03  0.70149701349E+03  0.80884750076E+03  0.15294330000E+03 0.  0.
    8880022    1    1    2    0    0 -0.19886599676E+03 -0.31495536488E+03 -0.94489080516E+03  0.10271099519E+04  0.15294330000E+03 0.  0.
<mgrwt>
<rscale>  0 0.40266142E+03</rscale>
<asrwt>0</asrwt>
<pdfrwt beam="1">  1        2 0.12250490E+00 0.40266142E+03</pdfrwt>
<pdfrwt beam="2">  1       -2 0.15995010E+00 0.40266142E+03</pdfrwt>
<totfact> 0.93839068E+00</totfact>
</mgrwt>
</event>
<event>
 4    1  0.2202466E-008  0.3670019E+03  0.7818608E-02  0.1055845E+00
         -2   -1    0    0    0  501 -0.00000000000E+00  0.00000000000E+00  0.19052549534E+03  0.19052549536E+03  0.25500000000E-02 0.  1.
          2   -1    0    0  501    0  0.00000000000E+00 -0.00000000000E+00 -0.81577267304E+03  0.81577267304E+03  0.25500000000E-02 0. -1.
    8880022    1    1    2    0    0 -0.33193566502E+03 -0.33428837336E+02 -0.49639937068E+03  0.61733520967E+03  0.15294330000E+03 0.  0.
    8880022    1    1    2    0    0  0.33193566502E+03  0.33428837336E+02 -0.12884780702E+03  0.38896295873E+03  0.15294330000E+03 0.  0.
<mgrwt>
<rscale>  0 0.36700194E+03</rscale>
<asrwt>0</asrwt>
<pdfrwt beam="1">  1        2 0.12550349E+00 0.36700194E+03</pdfrwt>
<pdfrwt beam="2">  1       -2 0.29311615E-01 0.36700194E+03</pdfrwt>
<totfact> 0.36886376E+02</totfact>
</mgrwt>
</event>
<event>
 4    1  0.2202466E-008  0.2621311E+03  0.7818608E-02  0.1105870E+00
          2   -1    0    0  501    0  0.00000000000E+00  0.00000000000E+00  0.81219817822E+03  0.81219817822E+03  0.25500000000E-02 0. -1.
         -2   -1    0    0    0  501 -0.00000000000E+00 -0.00000000000E+00 -0.23641526783E+03  0.23641526784E+03  0.25500000000E-02 0.  1.
    8880022    1    1    2    0    0 -0.17383306847E+03 -0.12289484304E+03 -0.13225823135E+03  0.29360683049E+03  0.15294330000E+03 0.  0.
    8880022    1    1    2    0    0  0.17383306847E+03  0.12289484304E+03  0.70804114175E+03  0.75500661557E+03  0.15294330000E+03 0. -1.
<mgrwt>
<rscale>  0 0.26213113E+03</rscale>
<asrwt>0</asrwt>
<pdfrwt beam="1">  1        2 0.12495356E+00 0.26213113E+03</pdfrwt>
<pdfrwt beam="2">  1       -2 0.36371580E-01 0.26213113E+03</pdfrwt>
<totfact> 0.25105051E+02</totfact>
</mgrwt>
</event>
<event>
 4    1  0.2202466E-008  0.6566474E+03  0.7818608E-02  0.9794385E-01
         -2   -1    0    0    0  501 -0.00000000000E+00  0.00000000000E+00  0.93202295691E+03  0.93202295692E+03  0.25500000000E-02 0.  1.
          2   -1    0    0  501    0  0.00000000000E+00 -0.00000000000E+00 -0.19686275874E+04  0.19686275874E+04  0.25500000000E-02 0. -1.
    8880022    1    1    2    0    0  0.57277664676E+03 -0.28234924188E+03  0.75021132695E+03  0.99699692555E+03  0.15294330000E+03 0.  0.
    8880022    1    1    2    0    0 -0.57277664676E+03  0.28234924188E+03 -0.17868159574E+04  0.19036536188E+04  0.15294330000E+03 0.  0.
<mgrwt>
<rscale>  0 0.65664742E+03</rscale>
<asrwt>0</asrwt>
<pdfrwt beam="1">  1        2 0.30286578E+00 0.65664742E+03</pdfrwt>
<pdfrwt beam="2">  1       -2 0.14338815E+00 0.65664742E+03</pdfrwt>
<totfact> 0.24774140E+00</totfact>
</mgrwt>
</event>
<event>
 4    1  0.2202466E-008  0.3415636E+03  0.7818608E-02  0.1066132E+00
         -2   -1    0    0    0  501 -0.00000000000E+00  0.00000000000E+00  0.25011740355E+03  0.25011740356E+03  0.25500000000E-02 0.  1.
          2   -1    0    0  501    0  0.00000000000E+00 -0.00000000000E+00 -0.56315911958E+03  0.56315911959E+03  0.25500000000E-02 0. -1.
    8880022    1    1    2    0    0 -0.30540106178E+03 -0.20574471055E+01 -0.32503659821E+03  0.47150236989E+03  0.15294330000E+03 0.  0.
    8880022    1    1    2    0    0  0.30540106178E+03  0.20574471055E+01  0.11994882177E+02  0.34177415326E+03  0.15294330000E+03 0.  0.
<mgrwt>
<rscale>  0 0.34156360E+03</rscale>
<asrwt>0</asrwt>
<pdfrwt beam="1">  1        2 0.86639865E-01 0.34156360E+03</pdfrwt>
<pdfrwt beam="2">  1       -2 0.38479600E-01 0.34156360E+03</pdfrwt>
<totfact> 0.34969696E+02</totfact>
</mgrwt>
</event>
<event>
 4    1  0.2202466E-008  0.9249927E+03  0.7818608E-02  0.9394867E-01
          2   -1    0    0  501    0  0.00000000000E+00  0.00000000000E+00  0.31738581800E+04  0.31738581800E+04  0.25500000000E-02 0. -1.
         -2   -1    0    0    0  501 -0.00000000000E+00 -0.00000000000E+00 -0.83742132296E+03  0.83742132296E+03  0.25500000000E-02 0.  1.
    8880022    1    1    2    0    0 -0.29127208642E+03 -0.86451169943E+03 -0.48334049219E+03  0.10436616268E+04  0.15294330000E+03 0.  0.
    8880022    1    1    2    0    0  0.29127208642E+03  0.86451169943E+03  0.28197773492E+04  0.29676178762E+04  0.15294330000E+03 0.  0.
<mgrwt>
<rscale>  0 0.92499273E+03</rscale>
<asrwt>0</asrwt>
<pdfrwt beam="1">  1        2 0.48828587E+00 0.92499273E+03</pdfrwt>
<pdfrwt beam="2">  1       -2 0.12883405E+00 0.92499273E+03</pdfrwt>
<totfact> 0.62089157E-01</totfact>
</mgrwt>
</event>
<event>
 4    1  0.2202466E-008  0.8568326E+03  0.7818608E-02  0.9481212E-01
          2   -1    0    0  501    0  0.00000000000E+00  0.00000000000E+00  0.27715718377E+04  0.27715718377E+04  0.25500000000E-02 0. -1.
         -2   -1    0    0    0  501 -0.00000000000E+00 -0.00000000000E+00 -0.32022573701E+03  0.32022573702E+03  0.25500000000E-02 0.  1.
    8880022    1    1    2    0    0  0.32734371920E+03  0.77692764132E+03  0.18682943834E+04  0.20554041029E+04  0.15294330000E+03 0.  0.
    8880022    1    1    2    0    0 -0.32734371920E+03 -0.77692764132E+03  0.58305171735E+03  0.10363934718E+04  0.15294330000E+03 0.  0.
<mgrwt>
<rscale>  0 0.85683261E+03</rscale>
<asrwt>0</asrwt>
<pdfrwt beam="1">  1        2 0.42639565E+00 0.85683261E+03</pdfrwt>
<pdfrwt beam="2">  1       -2 0.49265500E-01 0.85683261E+03</pdfrwt>
<totfact> 0.97414945E+00</totfact>
</mgrwt>
</event>
<event>
 4    1  0.2202466E-008  0.1196152E+04  0.7818608E-02  0.9116231E-01
          2   -1    0    0  501    0  0.00000000000E+00  0.00000000000E+00  0.15338948991E+04  0.15338948991E+04  0.25500000000E-02 0. -1.
         -2   -1    0    0    0  501 -0.00000000000E+00 -0.00000000000E+00 -0.12677152404E+04  0.12677152404E+04  0.25500000000E-02 0.  1.
    8880022    1    1    2    0    0 -0.12648088497E+03  0.11795722091E+04 -0.58693944508E+03  0.13323954278E+04  0.15294330000E+03 0.  0.
    8880022    1    1    2    0    0  0.12648088497E+03 -0.11795722091E+04  0.85311910383E+03  0.14692147117E+04  0.15294330000E+03 0.  0.
<mgrwt>
<rscale>  0 0.11961520E+04</rscale>
<asrwt>0</asrwt>
<pdfrwt beam="1">  1        2 0.23598383E+00 0.11961520E+04</pdfrwt>
<pdfrwt beam="2">  1       -2 0.19503311E+00 0.11961520E+04</pdfrwt>
<totfact> 0.16910177E+00</totfact>
</mgrwt>
</event>
<event>
 4    1  0.2202466E-008  0.4233292E+03  0.7818608E-02  0.1035988E+00
          2   -1    0    0  501    0  0.00000000000E+00  0.00000000000E+00  0.14589895448E+04  0.14589895448E+04  0.25500000000E-02 0. -1.
         -2   -1    0    0    0  501 -0.00000000000E+00 -0.00000000000E+00 -0.26070349749E+03  0.26070349750E+03  0.25500000000E-02 0.  1.
    8880022    1    1    2    0    0 -0.21086904304E+03 -0.33369175567E+03  0.12244424136E+04  0.12955565670E+04  0.15294330000E+03 0.  0.
    8880022    1    1    2    0    0  0.21086904304E+03  0.33369175567E+03 -0.26156366322E+02  0.42413647524E+03  0.15294330000E+03 0.  0.
<mgrwt>
<rscale>  0 0.42332918E+03</rscale>
<asrwt>0</asrwt>
<pdfrwt beam="1">  1        2 0.22445993E+00 0.42332918E+03</pdfrwt>
<pdfrwt beam="2">  1       -2 0.40108230E-01 0.42332918E+03</pdfrwt>
<totfact> 0.83568757E+01</totfact>
</mgrwt>
</event>
<event>
 4    1  0.2202466E-008  0.1176194E+04  0.7818608E-02  0.9133953E-01
          2   -1    0    0  501    0  0.00000000000E+00  0.00000000000E+00  0.10729723116E+04  0.10729723116E+04  0.25500000000E-02 0. -1.
         -2   -1    0    0    0  501 -0.00000000000E+00 -0.00000000000E+00 -0.13633213090E+04  0.13633213090E+04  0.25500000000E-02 0.  1.
    8880022    1    1    2    0    0  0.10658043769E+03  0.11613275216E+04  0.13858058406E+03  0.11843298668E+04  0.15294330000E+03 0.  0.
    8880022    1    1    2    0    0 -0.10658043769E+03 -0.11613275216E+04 -0.42892958137E+03  0.12519637538E+04  0.15294330000E+03 0.  0.
<mgrwt>
<rscale>  0 0.11761941E+04</rscale>
<asrwt>0</asrwt>
<pdfrwt beam="1">  1        2 0.16507266E+00 0.11761941E+04</pdfrwt>
<pdfrwt beam="2">  1       -2 0.20974174E+00 0.11761941E+04</pdfrwt>
<totfact> 0.25360381E+00</totfact>
</mgrwt>
</event>
<event>
 4    1  0.2202466E-008  0.1092674E+04  0.7818608E-02  0.9212362E-01
         -2   -1    0    0    0  501 -0.00000000000E+00  0.00000000000E+00  0.56002796632E+03  0.56002796633E+03  0.25500000000E-02 0.  1.
          2   -1    0    0  501    0  0.00000000000E+00 -0.00000000000E+00 -0.41390097217E+04  0.41390097217E+04  0.25500000000E-02 0. -1.
    8880022    1    1    2    0    0  0.49367218819E+03  0.96272164312E+03 -0.34256054473E+04  0.35956514744E+04  0.15294330000E+03 0.  0.
    8880022    1    1    2    0    0 -0.49367218819E+03 -0.96272164312E+03 -0.15337630804E+03  0.11033862136E+04  0.15294330000E+03 0.  0.
<mgrwt>
<rscale>  0 0.10926742E+04</rscale>
<asrwt>0</asrwt>
<pdfrwt beam="1">  1        2 0.63677071E+00 0.10926742E+04</pdfrwt>
<pdfrwt beam="2">  1       -2 0.86158151E-01 0.10926742E+04</pdfrwt>
<totfact> 0.31847338E-01</totfact>
</mgrwt>
</event>
<event>
 4    1  0.2202466E-008  0.3431144E+03  0.7818608E-02  0.1065477E+00
         -2   -1    0    0    0  501 -0.00000000000E+00  0.00000000000E+00  0.13870062173E+04  0.13870062173E+04  0.25500000000E-02 0.  1.
          2   -1    0    0  501    0  0.00000000000E+00 -0.00000000000E+00 -0.85151219161E+03  0.85151219161E+03  0.25500000000E-02 0. -1.
    8880022    1    1    2    0    0  0.14290400732E+03  0.27187179070E+03 -0.79426417968E+03  0.86520694983E+03  0.15294330000E+03 0. -1.
    8880022    1    1    2    0    0 -0.14290400732E+03 -0.27187179070E+03  0.13297582053E+04  0.13733114590E+04  0.15294330000E+03 0.  0.
<mgrwt>
<rscale>  0 0.34311438E+03</rscale>
<asrwt>0</asrwt>
<pdfrwt beam="1">  1        2 0.13100188E+00 0.34311438E+03</pdfrwt>
<pdfrwt beam="2">  1       -2 0.21338557E+00 0.34311438E+03</pdfrwt>
<totfact> 0.38495410E+00</totfact>
</mgrwt>
</event>
<event>
 4    1  0.2202466E-008  0.5514474E+03  0.7818608E-02  0.1001159E+00
          2   -1    0    0  501    0  0.00000000000E+00  0.00000000000E+00  0.27112439171E+04  0.27112439171E+04  0.25500000000E-02 0. -1.
         -2   -1    0    0    0  501 -0.00000000000E+00 -0.00000000000E+00 -0.29085537899E+03  0.29085537900E+03  0.25500000000E-02 0.  1.
    8880022    1    1    2    0    0 -0.22069551455E+03  0.48165967069E+03  0.23867504840E+04  0.24496269256E+04  0.15294330000E+03 0.  0.
    8880022    1    1    2    0    0  0.22069551455E+03 -0.48165967069E+03  0.33638054112E+02  0.55247237054E+03  0.15294330000E+03 0.  0.
<mgrwt>
<rscale>  0 0.55144737E+03</rscale>
<asrwt>0</asrwt>
<pdfrwt beam="1">  1        2 0.41711443E+00 0.55144737E+03</pdfrwt>
<pdfrwt beam="2">  1       -2 0.44746983E-01 0.55144737E+03</pdfrwt>
<totfact> 0.13563105E+01</totfact>
</mgrwt>
</event>
<event>
 4    1  0.2202466E-008  0.5619333E+03  0.7818608E-02  0.9987690E-01
         -2   -1    0    0    0  501 -0.00000000000E+00  0.00000000000E+00  0.78883365240E+03  0.78883365240E+03  0.25500000000E-02 0.  1.
          2   -1    0    0  501    0  0.00000000000E+00 -0.00000000000E+00 -0.16194430150E+04  0.16194430150E+04  0.25500000000E-02 0. -1.
    8880022    1    1    2    0    0 -0.17915391328E+03 -0.51017764551E+03  0.62946635308E+03  0.84379908586E+03  0.15294330000E+03 0.  0.
    8880022    1    1    2    0    0  0.17915391328E+03  0.51017764551E+03 -0.14600757157E+04  0.15644775816E+04  0.15294330000E+03 0. -1.
<mgrwt>
<rscale>  0 0.56193328E+03</rscale>
<asrwt>0</asrwt>
<pdfrwt beam="1">  1        2 0.24914508E+00 0.56193328E+03</pdfrwt>
<pdfrwt beam="2">  1       -2 0.12135902E+00 0.56193328E+03</pdfrwt>
<totfact> 0.59632696E+00</totfact>
</mgrwt>
</event>
<event>
 4    1  0.2202466E-008  0.1374085E+04  0.7818608E-02  0.8972794E-01
         -2   -1    0    0    0  501 -0.00000000000E+00  0.00000000000E+00  0.16989086234E+04  0.16989086234E+04  0.25500000000E-02 0.  1.
          2   -1    0    0  501    0  0.00000000000E+00 -0.00000000000E+00 -0.39026191529E+04  0.39026191529E+04  0.25500000000E-02 0. -1.
    8880022    1    1    2    0    0 -0.10155206225E+04  0.91292688426E+03 -0.34704896282E+04  0.37326140361E+04  0.15294330000E+03 0.  0.
    8880022    1    1    2    0    0  0.10155206225E+04 -0.91292688426E+03  0.12667790987E+04  0.18689137402E+04  0.15294330000E+03 0.  0.
<mgrwt>
<rscale>  0 0.13740849E+04</rscale>
<asrwt>0</asrwt>
<pdfrwt beam="1">  1        2 0.60040294E+00 0.13740849E+04</pdfrwt>
<pdfrwt beam="2">  1       -2 0.26137056E+00 0.13740849E+04</pdfrwt>
<totfact> 0.21778716E-02</totfact>
</mgrwt>
</event>
<event>
 4    1  0.2202466E-008  0.5483432E+03  0.7818608E-02  0.1001878E+00
         -2   -1    0    0    0  501 -0.00000000000E+00  0.00000000000E+00  0.91059408210E+03  0.91059408210E+03  0.25500000000E-02 0.  1.
          2   -1    0    0  501    0  0.00000000000E+00 -0.00000000000E+00 -0.88526920021E+03  0.88526920021E+03  0.25500000000E-02 0. -1.
    8880022    1    1    2    0    0 -0.40678624692E+03 -0.33438528022E+03  0.72367665148E+03  0.90795821227E+03  0.15294330000E+03 0.  0.
    8880022    1    1    2    0    0  0.40678624692E+03  0.33438528022E+03 -0.69835176959E+03  0.88790507005E+03  0.15294330000E+03 0.  0.
<mgrwt>
<rscale>  0 0.54834316E+03</rscale>
<asrwt>0</asrwt>
<pdfrwt beam="1">  1        2 0.13619526E+00 0.54834316E+03</pdfrwt>
<pdfrwt beam="2">  1       -2 0.14009140E+00 0.54834316E+03</pdfrwt>
<totfact> 0.11232701E+01</totfact>
</mgrwt>
</event>
<event>
 4    1  0.2202466E-008  0.6335331E+03  0.7818608E-02  0.9838178E-01
          2   -1    0    0  501    0  0.00000000000E+00  0.00000000000E+00  0.10177501519E+04  0.10177501519E+04  0.25500000000E-02 0. -1.
         -2   -1    0    0    0  501 -0.00000000000E+00 -0.00000000000E+00 -0.15834762263E+04  0.15834762263E+04  0.25500000000E-02 0.  1.
    8880022    1    1    2    0    0  0.37819363447E+02  0.61363040456E+03 -0.14099404973E+04  0.15457349180E+04  0.15294330000E+03 0.  0.
    8880022    1    1    2    0    0 -0.37819363447E+02 -0.61363040456E+03  0.84421442292E+03  0.10554914602E+04  0.15294330000E+03 0.  0.
<mgrwt>
<rscale>  0 0.63353313E+03</rscale>
<asrwt>0</asrwt>
<pdfrwt beam="1">  1        2 0.15657695E+00 0.63353313E+03</pdfrwt>
<pdfrwt beam="2">  1       -2 0.24361173E+00 0.63353313E+03</pdfrwt>
<totfact> 0.18219318E+00</totfact>
</mgrwt>
</event>
<event>
 4    1  0.2202466E-008  0.5316100E+03  0.7818608E-02  0.1005842E+00
         -2   -1    0    0    0  501 -0.00000000000E+00  0.00000000000E+00  0.80891561495E+03  0.80891561496E+03  0.25500000000E-02 0.  1.
          2   -1    0    0  501    0  0.00000000000E+00 -0.00000000000E+00 -0.19244390887E+04  0.19244390887E+04  0.25500000000E-02 0. -1.
    8880022    1    1    2    0    0 -0.26598464979E+03 -0.43413097572E+03 -0.17941759800E+04  0.18712767401E+04  0.15294330000E+03 0.  0.
    8880022    1    1    2    0    0  0.26598464979E+03  0.43413097572E+03  0.67865250622E+03  0.86207796354E+03  0.15294330000E+03 0.  0.
<mgrwt>
<rscale>  0 0.53161000E+03</rscale>
<asrwt>0</asrwt>
<pdfrwt beam="1">  1        2 0.29606755E+00 0.53161000E+03</pdfrwt>
<pdfrwt beam="2">  1       -2 0.12444856E+00 0.53161000E+03</pdfrwt>
<totfact> 0.38588174E+00</totfact>
</mgrwt>
</event>
<event>
 4    1  0.2202466E-008  0.1060612E+04  0.7818608E-02  0.9244456E-01
          2   -1    0    0  501    0  0.00000000000E+00  0.00000000000E+00  0.11475438434E+04  0.11475438434E+04  0.25500000000E-02 0. -1.
         -2   -1    0    0    0  501 -0.00000000000E+00 -0.00000000000E+00 -0.14578167716E+04  0.14578167716E+04  0.25500000000E-02 0.  1.
    8880022    1    1    2    0    0 -0.94099015234E+03 -0.46480438572E+03  0.59044746674E+03  0.12138885648E+04  0.15294330000E+03 0.  0.
    8880022    1    1    2    0    0  0.94099015234E+03  0.46480438572E+03 -0.90072039488E+03  0.13914720502E+04  0.15294330000E+03 0.  0.
<mgrwt>
<rscale>  0 0.10606117E+04</rscale>
<asrwt>0</asrwt>
<pdfrwt beam="1">  1        2 0.17654521E+00 0.10606117E+04</pdfrwt>
<pdfrwt beam="2">  1       -2 0.22427950E+00 0.10606117E+04</pdfrwt>
<totfact> 0.18668775E+00</totfact>
</mgrwt>
</event>
<event>
 4    1  0.2202466E-008  0.4139685E+03  0.7818608E-02  0.1039047E+00
          2   -1    0    0  501    0  0.00000000000E+00  0.00000000000E+00  0.23273781918E+04  0.23273781918E+04  0.25500000000E-02 0. -1.
         -2   -1    0    0    0  501 -0.00000000000E+00 -0.00000000000E+00 -0.21900138116E+03  0.21900138118E+03  0.25500000000E-02 0.  1.
    8880022    1    1    2    0    0  0.36496624461E+03 -0.12156454452E+03  0.16884751953E+02  0.41431273942E+03  0.15294330000E+03 0.  0.
    8880022    1    1    2    0    0 -0.36496624461E+03  0.12156454452E+03  0.20914920587E+04  0.21320668336E+04  0.15294330000E+03 0.  0.
<mgrwt>
<rscale>  0 0.41396854E+03</rscale>
<asrwt>0</asrwt>
<pdfrwt beam="1">  1        2 0.35805818E+00 0.41396854E+03</pdfrwt>
<pdfrwt beam="2">  1       -2 0.33692520E-01 0.41396854E+03</pdfrwt>
<totfact> 0.39753252E+01</totfact>
</mgrwt>
</event>
<event>
 4    1  0.2202466E-008  0.1580180E+04  0.7818608E-02  0.8832818E-01
         -2   -1    0    0    0  501 -0.00000000000E+00  0.00000000000E+00  0.13686746110E+04  0.13686746110E+04  0.25500000000E-02 0.  1.
          2   -1    0    0  501    0  0.00000000000E+00 -0.00000000000E+00 -0.27509384300E+04  0.27509384300E+04  0.25500000000E-02 0. -1.
    8880022    1    1    2    0    0  0.62469867367E+03  0.14433739127E+04  0.50429998615E+03  0.16587003387E+04  0.15294330000E+03 0.  0.
    8880022    1    1    2    0    0 -0.62469867367E+03 -0.14433739127E+04 -0.18865638051E+04  0.24609127023E+04  0.15294330000E+03 0.  0.
<mgrwt>
<rscale>  0 0.15801798E+04</rscale>
<asrwt>0</asrwt>
<pdfrwt beam="1">  1        2 0.42322130E+00 0.15801798E+04</pdfrwt>
<pdfrwt beam="2">  1       -2 0.21056533E+00 0.15801798E+04</pdfrwt>
<totfact> 0.26182231E-01</totfact>
</mgrwt>
</event>
<event>
 4    1  0.2202466E-008  0.8596720E+03  0.7818608E-02  0.9477447E-01
          2   -1    0    0  501    0  0.00000000000E+00  0.00000000000E+00  0.47528824476E+03  0.47528824477E+03  0.25500000000E-02 0. -1.
         -2   -1    0    0    0  501 -0.00000000000E+00 -0.00000000000E+00 -0.17327328682E+04  0.17327328682E+04  0.25500000000E-02 0.  1.
    8880022    1    1    2    0    0  0.77366899789E+03 -0.34217037994E+03 -0.27506136532E+03  0.90260439557E+03  0.15294330000E+03 0.  0.
    8880022    1    1    2    0    0 -0.77366899789E+03  0.34217037994E+03 -0.98238325811E+03  0.13054167174E+04  0.15294330000E+03 0.  0.
<mgrwt>
<rscale>  0 0.85967200E+03</rscale>
<asrwt>0</asrwt>
<pdfrwt beam="1">  1        2 0.73121269E-01 0.85967200E+03</pdfrwt>
<pdfrwt beam="2">  1       -2 0.26657428E+00 0.85967200E+03</pdfrwt>
<totfact> 0.33823931E+00</totfact>
</mgrwt>
</event>
<event>
 4    1  0.2202466E-008  0.5563828E+03  0.7818608E-02  0.1000027E+00
          2   -1    0    0  501    0  0.00000000000E+00  0.00000000000E+00  0.33158507328E+04  0.33158507328E+04  0.25500000000E-02 0. -1.
         -2   -1    0    0    0  501 -0.00000000000E+00 -0.00000000000E+00 -0.38226171655E+03  0.38226171656E+03  0.25500000000E-02 0.  1.
    8880022    1    1    2    0    0  0.48774670091E+03 -0.21971183461E+03 -0.14068758525E+03  0.57389440159E+03  0.15294330000E+03 0.  0.
    8880022    1    1    2    0    0 -0.48774670091E+03  0.21971183461E+03  0.30742766015E+04  0.31242180477E+04  0.15294330000E+03 0.  0.
<mgrwt>
<rscale>  0 0.55638277E+03</rscale>
<asrwt>0</asrwt>
<pdfrwt beam="1">  1        2 0.51013090E+00 0.55638277E+03</pdfrwt>
<pdfrwt beam="2">  1       -2 0.58809493E-01 0.55638277E+03</pdfrwt>
<totfact> 0.33231486E+00</totfact>
</mgrwt>
</event>
<event>
 4    1  0.2202466E-008  0.5585708E+03  0.7818608E-02  0.9995294E-01
          2   -1    0    0  501    0  0.00000000000E+00  0.00000000000E+00  0.11067479776E+04  0.11067479776E+04  0.25500000000E-02 0. -1.
         -2   -1    0    0    0  501 -0.00000000000E+00 -0.00000000000E+00 -0.64614554051E+03  0.64614554052E+03  0.25500000000E-02 0.  1.
    8880022    1    1    2    0    0  0.50869792136E+03  0.17273123039E+03  0.88834169768E+03  0.10493580314E+04  0.15294330000E+03 0.  0.
    8880022    1    1    2    0    0 -0.50869792136E+03 -0.17273123039E+03 -0.42773926055E+03  0.70353548679E+03  0.15294330000E+03 0.  0.
<mgrwt>
<rscale>  0 0.55857077E+03</rscale>
<asrwt>0</asrwt>
<pdfrwt beam="1">  1        2 0.17026892E+00 0.55857077E+03</pdfrwt>
<pdfrwt beam="2">  1       -2 0.99407008E-01 0.55857077E+03</pdfrwt>
<totfact> 0.18855317E+01</totfact>
</mgrwt>
</event>
<event>
 4    1  0.2202466E-008  0.8794916E+03  0.7818608E-02  0.9451587E-01
         -2   -1    0    0    0  501 -0.00000000000E+00  0.00000000000E+00  0.21629222592E+04  0.21629222592E+04  0.25500000000E-02 0.  1.
          2   -1    0    0  501    0  0.00000000000E+00 -0.00000000000E+00 -0.41517229554E+03  0.41517229555E+03  0.25500000000E-02 0. -1.
    8880022    1    1    2    0    0 -0.86259908304E+03 -0.77695564740E+02  0.13538116602E+04  0.16144074588E+04  0.15294330000E+03 0.  0.
    8880022    1    1    2    0    0  0.86259908304E+03  0.77695564740E+02  0.39393830342E+03  0.96368709588E+03  0.15294330000E+03 0.  0.
<mgrwt>
<rscale>  0 0.87949158E+03</rscale>
<asrwt>0</asrwt>
<pdfrwt beam="1">  1        2 0.63872662E-01 0.87949158E+03</pdfrwt>
<pdfrwt beam="2">  1       -2 0.33275727E+00 0.87949158E+03</pdfrwt>
<totfact> 0.15653229E+00</totfact>
</mgrwt>
</event>
<event>
 4    1  0.2202466E-008  0.9117092E+03  0.7818608E-02  0.9411062E-01
          2   -1    0    0  501    0  0.00000000000E+00  0.00000000000E+00  0.83591740547E+03  0.83591740547E+03  0.25500000000E-02 0. -1.
         -2   -1    0    0    0  501 -0.00000000000E+00 -0.00000000000E+00 -0.22150507694E+04  0.22150507694E+04  0.25500000000E-02 0.  1.
    8880022    1    1    2    0    0  0.53864389379E+03  0.71950318440E+03  0.44287631496E+03  0.10135843132E+04  0.15294330000E+03 0. -1.
    8880022    1    1    2    0    0 -0.53864389379E+03 -0.71950318440E+03 -0.18220096789E+04  0.20373838616E+04  0.15294330000E+03 0.  0.
<mgrwt>
<rscale>  0 0.91170924E+03</rscale>
<asrwt>0</asrwt>
<pdfrwt beam="1">  1        2 0.12860268E+00 0.91170924E+03</pdfrwt>
<pdfrwt beam="2">  1       -2 0.34077704E+00 0.91170924E+03</pdfrwt>
<totfact> 0.59146917E-01</totfact>
</mgrwt>
</event>
<event>
 4    1  0.2202466E-008  0.9071196E+03  0.7818608E-02  0.9416725E-01
          2   -1    0    0  501    0  0.00000000000E+00  0.00000000000E+00  0.21160642146E+04  0.21160642146E+04  0.25500000000E-02 0. -1.
         -2   -1    0    0    0  501 -0.00000000000E+00 -0.00000000000E+00 -0.39947354671E+03  0.39947354672E+03  0.25500000000E-02 0.  1.
    8880022    1    1    2    0    0  0.87392465677E+03 -0.18902400118E+03  0.65334036240E+03  0.11179086103E+04  0.15294330000E+03 0.  0.
    8880022    1    1    2    0    0 -0.87392465677E+03  0.18902400118E+03  0.10632503054E+04  0.13976291510E+04  0.15294330000E+03 0.  0.
<mgrwt>
<rscale>  0 0.90711963E+03</rscale>
<asrwt>0</asrwt>
<pdfrwt beam="1">  1        2 0.32554835E+00 0.90711963E+03</pdfrwt>
<pdfrwt beam="2">  1       -2 0.61457468E-01 0.90711963E+03</pdfrwt>
<totfact> 0.14392362E+01</totfact>
</mgrwt>
</event>
<event>
 4    1  0.2202466E-008  0.6661823E+03  0.7818608E-02  0.9776879E-01
          2   -1    0    0  501    0  0.00000000000E+00  0.00000000000E+00  0.17115832750E+04  0.17115832750E+04  0.25500000000E-02 0. -1.
         -2   -1    0    0    0  501 -0.00000000000E+00 -0.00000000000E+00 -0.51838933549E+03  0.51838933549E+03  0.25500000000E-02 0.  1.
    8880022    1    1    2    0    0  0.63048925561E+03  0.15129605929E+03  0.13848641888E+04  0.15367653281E+04  0.15294330000E+03 0.  0.
    8880022    1    1    2    0    0 -0.63048925561E+03 -0.15129605929E+03 -0.19167024928E+03  0.69320728247E+03  0.15294330000E+03 0.  0.
<mgrwt>
<rscale>  0 0.66618230E+03</rscale>
<asrwt>0</asrwt>
<pdfrwt beam="1">  1        2 0.26332051E+00 0.66618230E+03</pdfrwt>
<pdfrwt beam="2">  1       -2 0.79752203E-01 0.66618230E+03</pdfrwt>
<totfact> 0.14002724E+01</totfact>
</mgrwt>
</event>
<event>
 4    1  0.2202466E-008  0.8687375E+03  0.7818608E-02  0.9465528E-01
          2   -1    0    0  501    0  0.00000000000E+00  0.00000000000E+00  0.14190629443E+04  0.14190629443E+04  0.25500000000E-02 0. -1.
         -2   -1    0    0    0  501 -0.00000000000E+00 -0.00000000000E+00 -0.69240804703E+03  0.69240804704E+03  0.25500000000E-02 0.  1.
    8880022    1    1    2    0    0 -0.53686154172E+03  0.66565224770E+03  0.87173587166E+03  0.12307023656E+04  0.15294330000E+03 0.  0.
    8880022    1    1    2    0    0  0.53686154172E+03 -0.66565224770E+03 -0.14508097441E+03  0.88076862568E+03  0.15294330000E+03 0.  0.
<mgrwt>
<rscale>  0 0.86873752E+03</rscale>
<asrwt>0</asrwt>
<pdfrwt beam="1">  1        2 0.21831737E+00 0.86873752E+03</pdfrwt>
<pdfrwt beam="2">  1       -2 0.10652432E+00 0.86873752E+03</pdfrwt>
<totfact> 0.10103641E+01</totfact>
</mgrwt>
</event>
<event>
 4    1  0.2757082E-008  0.1198254E+04  0.7818608E-02  0.9114386E-01
          2   -1    0    0  501    0  0.00000000000E+00  0.00000000000E+00  0.21889369476E+04  0.21889369476E+04  0.25500000000E-02 0. -1.
         -2   -1    0    0    0  501 -0.00000000000E+00 -0.00000000000E+00 -0.22668417512E+04  0.22668417512E+04  0.25500000000E-02 0.  1.
    8880022    1    1    2    0    0 -0.11618619038E+04  0.24999764581E+03  0.18391419370E+04  0.21950527611E+04  0.15294330000E+03 0.  0.
    8880022    1    1    2    0    0  0.11618619038E+04 -0.24999764581E+03 -0.19170467407E+04  0.22607259377E+04  0.15294330000E+03 0.  0.
<mgrwt>
<rscale>  0 0.11982544E+04</rscale>
<asrwt>0</asrwt>
<pdfrwt beam="1">  1        2 0.33675953E+00 0.11982544E+04</pdfrwt>
<pdfrwt beam="2">  1       -2 0.34874488E+00 0.11982544E+04</pdfrwt>
<totfact> 0.81590768E-02</totfact>
</mgrwt>
</event>
<event>
 4    1  0.2202466E-008  0.8536156E+03  0.7818608E-02  0.9485497E-01
          2   -1    0    0  501    0  0.00000000000E+00  0.00000000000E+00  0.10675239278E+04  0.10675239278E+04  0.25500000000E-02 0. -1.
         -2   -1    0    0    0  501 -0.00000000000E+00 -0.00000000000E+00 -0.78571084716E+03  0.78571084716E+03  0.25500000000E-02 0.  1.
    8880022    1    1    2    0    0 -0.49418749671E+03  0.67900416820E+03 -0.19481935147E+03  0.87556506044E+03  0.15294330000E+03 0.  0.
    8880022    1    1    2    0    0  0.49418749671E+03 -0.67900416820E+03  0.47663243210E+03  0.97766971451E+03  0.15294330000E+03 0.  0.
<mgrwt>
<rscale>  0 0.85361560E+03</rscale>
<asrwt>0</asrwt>
<pdfrwt beam="1">  1        2 0.16423445E+00 0.85361560E+03</pdfrwt>
<pdfrwt beam="2">  1       -2 0.12087859E+00 0.85361560E+03</pdfrwt>
<totfact> 0.11976318E+01</totfact>
</mgrwt>
</event>
<event>
 4    1  0.2202466E-008  0.5336311E+03  0.7818608E-02  0.1005355E+00
          2   -1    0    0  501    0  0.00000000000E+00  0.00000000000E+00  0.10242229979E+04  0.10242229979E+04  0.25500000000E-02 0. -1.
         -2   -1    0    0    0  501 -0.00000000000E+00 -0.00000000000E+00 -0.90495070780E+03  0.90495070781E+03  0.25500000000E-02 0.  1.
    8880022    1    1    2    0    0  0.32516013730E+03  0.39451405655E+03  0.86248920505E+03  0.10142237118E+04  0.15294330000E+03 0.  0.
    8880022    1    1    2    0    0 -0.32516013730E+03 -0.39451405655E+03 -0.74321691495E+03  0.91494999393E+03  0.15294330000E+03 0.  1.
<mgrwt>
<rscale>  0 0.53363106E+03</rscale>
<asrwt>0</asrwt>
<pdfrwt beam="1">  1        2 0.15757277E+00 0.53363106E+03</pdfrwt>
<pdfrwt beam="2">  1       -2 0.13922319E+00 0.53363106E+03</pdfrwt>
<totfact> 0.93048118E+00</totfact>
</mgrwt>
</event>
<event>
 4    1  0.2202466E-008  0.7822485E+03  0.7818608E-02  0.9586073E-01
          2   -1    0    0  501    0  0.00000000000E+00  0.00000000000E+00  0.16377814881E+04  0.16377814881E+04  0.25500000000E-02 0. -1.
         -2   -1    0    0    0  501 -0.00000000000E+00 -0.00000000000E+00 -0.54586161450E+03  0.54586161450E+03  0.25500000000E-02 0.  1.
    8880022    1    1    2    0    0 -0.59646523148E+03  0.48244204655E+03  0.11592638102E+04  0.13985011031E+04  0.15294330000E+03 0.  0.
    8880022    1    1    2    0    0  0.59646523148E+03 -0.48244204655E+03 -0.67343936585E+02  0.78514199955E+03  0.15294330000E+03 0.  0.
<mgrwt>
<rscale>  0 0.78224852E+03</rscale>
<asrwt>0</asrwt>
<pdfrwt beam="1">  1        2 0.25196638E+00 0.78224852E+03</pdfrwt>
<pdfrwt beam="2">  1       -2 0.83978709E-01 0.78224852E+03</pdfrwt>
<totfact> 0.13454791E+01</totfact>
</mgrwt>
</event>
<event>
 4    1  0.2202466E-008  0.3732082E+03  0.7818608E-02  0.1053473E+00
         -2   -1    0    0    0  501 -0.00000000000E+00  0.00000000000E+00  0.61581958005E+03  0.61581958005E+03  0.25500000000E-02 0.  1.
          2   -1    0    0  501    0  0.00000000000E+00 -0.00000000000E+00 -0.17851493278E+04  0.17851493278E+04  0.25500000000E-02 0. -1.
    8880022    1    1    2    0    0  0.14637399504E+03 -0.30735543770E+03 -0.17065242881E+04  0.17468570377E+04  0.15294330000E+03 0.  0.
    8880022    1    1    2    0    0 -0.14637399504E+03  0.30735543770E+03  0.53719454030E+03  0.65411187013E+03  0.15294330000E+03 0.  0.
<mgrwt>
<rscale>  0 0.37320821E+03</rscale>
<asrwt>0</asrwt>
<pdfrwt beam="1">  1        2 0.27463836E+00 0.37320821E+03</pdfrwt>
<pdfrwt beam="2">  1       -2 0.94741474E-01 0.37320821E+03</pdfrwt>
<totfact> 0.91978621E+00</totfact>
</mgrwt>
</event>
<event>
 4    1  0.2202466E-008  0.6974536E+03  0.7818608E-02  0.9721597E-01
         -2   -1    0    0    0  501 -0.00000000000E+00  0.00000000000E+00  0.84422365239E+03  0.84422365239E+03  0.25500000000E-02 0.  1.
          2   -1    0    0  501    0  0.00000000000E+00 -0.00000000000E+00 -0.15649597025E+04  0.15649597025E+04  0.25500000000E-02 0. -1.
    8880022    1    1    2    0    0 -0.56899140325E+03  0.37322736808E+03 -0.13178568012E+04  0.14910359106E+04  0.15294330000E+03 0.  0.
    8880022    1    1    2    0    0  0.56899140325E+03 -0.37322736808E+03  0.59712075102E+03  0.91814744435E+03  0.15294330000E+03 0.  0.
<mgrwt>
<rscale>  0 0.69745361E+03</rscale>
<asrwt>0</asrwt>
<pdfrwt beam="1">  1        2 0.24076303E+00 0.69745361E+03</pdfrwt>
<pdfrwt beam="2">  1       -2 0.12988056E+00 0.69745361E+03</pdfrwt>
<totfact> 0.52584920E+00</totfact>
</mgrwt>
</event>
<event>
 4    1  0.2202466E-008  0.5399921E+03  0.7818608E-02  0.1003837E+00
          2   -1    0    0  501    0  0.00000000000E+00  0.00000000000E+00  0.13976832435E+04  0.13976832435E+04  0.25500000000E-02 0. -1.
         -2   -1    0    0    0  501 -0.00000000000E+00 -0.00000000000E+00 -0.22630636578E+03  0.22630636579E+03  0.25500000000E-02 0.  1.
    8880022    1    1    2    0    0 -0.27848835193E+03 -0.43662802345E+03  0.35872039828E+03  0.64828371118E+03  0.15294330000E+03 0.  0.
    8880022    1    1    2    0    0  0.27848835193E+03  0.43662802345E+03  0.81265647939E+03  0.97570589807E+03  0.15294330000E+03 0. -1.
<mgrwt>
<rscale>  0 0.53999208E+03</rscale>
<asrwt>0</asrwt>
<pdfrwt beam="1">  1        2 0.21502820E+00 0.53999208E+03</pdfrwt>
<pdfrwt beam="2">  1       -2 0.34816363E-01 0.53999208E+03</pdfrwt>
<totfact> 0.11654277E+02</totfact>
</mgrwt>
</event>
<event>
 4    1  0.2202466E-008  0.2716591E+03  0.7818608E-02  0.1100334E+00
          2   -1    0    0  501    0  0.00000000000E+00  0.00000000000E+00  0.41165532824E+03  0.41165532825E+03  0.25500000000E-02 0. -1.
         -2   -1    0    0    0  501 -0.00000000000E+00 -0.00000000000E+00 -0.26163554762E+03  0.26163554763E+03  0.25500000000E-02 0.  1.
    8880022    1    1    2    0    0 -0.18589142304E+03 -0.12590228074E+03 -0.11387160773E+03  0.29455967395E+03  0.15294330000E+03 0.  0.
    8880022    1    1    2    0    0  0.18589142304E+03  0.12590228074E+03  0.26389138835E+03  0.37873120193E+03  0.15294330000E+03 0.  0.
<mgrwt>
<rscale>  0 0.27165909E+03</rscale>
<asrwt>0</asrwt>
<pdfrwt beam="1">  1        2 0.63331589E-01 0.27165909E+03</pdfrwt>
<pdfrwt beam="2">  1       -2 0.40251623E-01 0.27165909E+03</pdfrwt>
<totfact> 0.45773030E+02</totfact>
</mgrwt>
</event>
<event>
 4    1  0.2202466E-008  0.1233694E+04  0.7818608E-02  0.9083865E-01
          2   -1    0    0  501    0  0.00000000000E+00  0.00000000000E+00  0.25312393142E+04  0.25312393142E+04  0.25500000000E-02 0. -1.
         -2   -1    0    0    0  501 -0.00000000000E+00 -0.00000000000E+00 -0.72966080190E+03  0.72966080190E+03  0.25500000000E-02 0.  1.
    8880022    1    1    2    0    0 -0.94442482374E+03 -0.77889041655E+03  0.15846787581E+04  0.20082845785E+04  0.15294330000E+03 0.  0.
    8880022    1    1    2    0    0  0.94442482374E+03  0.77889041655E+03  0.21689975415E+03  0.12526155376E+04  0.15294330000E+03 0.  0.
<mgrwt>
<rscale>  0 0.12336937E+04</rscale>
<asrwt>0</asrwt>
<pdfrwt beam="1">  1        2 0.38942143E+00 0.12336937E+04</pdfrwt>
<pdfrwt beam="2">  1       -2 0.11225551E+00 0.12336937E+04</pdfrwt>
<totfact> 0.20424423E+00</totfact>
</mgrwt>
</event>
<event>
 4    1  0.2202466E-008  0.1094777E+04  0.7818608E-02  0.9210298E-01
          2   -1    0    0  501    0  0.00000000000E+00  0.00000000000E+00  0.32494144144E+04  0.32494144144E+04  0.25500000000E-02 0. -1.
         -2   -1    0    0    0  501 -0.00000000000E+00 -0.00000000000E+00 -0.37562008447E+03  0.37562008448E+03  0.25500000000E-02 0.  1.
    8880022    1    1    2    0    0 -0.87679689280E+03  0.63747261212E+03  0.16802916260E+04  0.20054714468E+04  0.15294330000E+03 0.  0.
    8880022    1    1    2    0    0  0.87679689280E+03 -0.63747261212E+03  0.11935027040E+04  0.16195630521E+04  0.15294330000E+03 0.  0.
<mgrwt>
<rscale>  0 0.10947766E+04</rscale>
<asrwt>0</asrwt>
<pdfrwt beam="1">  1        2 0.49990990E+00 0.10947766E+04</pdfrwt>
<pdfrwt beam="2">  1       -2 0.57787706E-01 0.10947766E+04</pdfrwt>
<totfact> 0.34257658E+00</totfact>
</mgrwt>
</event>
<event>
 4    1  0.2202466E-008  0.1052841E+04  0.7818608E-02  0.9252416E-01
         -2   -1    0    0    0  501 -0.00000000000E+00  0.00000000000E+00  0.10553860860E+04  0.10553860860E+04  0.25500000000E-02 0.  1.
          2   -1    0    0  501    0  0.00000000000E+00 -0.00000000000E+00 -0.12086510782E+04  0.12086510783E+04  0.25500000000E-02 0. -1.
    8880022    1    1    2    0    0 -0.40780776218E+03  0.95852779362E+03  0.33310956189E+03  0.11042809132E+04  0.15294330000E+03 0.  0.
    8880022    1    1    2    0    0  0.40780776218E+03 -0.95852779362E+03 -0.48637455410E+03  0.11597562511E+04  0.15294330000E+03 0.  0.
<mgrwt>
<rscale>  0 0.10528411E+04</rscale>
<asrwt>0</asrwt>
<pdfrwt beam="1">  1        2 0.18594632E+00 0.10528411E+04</pdfrwt>
<pdfrwt beam="2">  1       -2 0.16236709E+00 0.10528411E+04</pdfrwt>
<totfact> 0.44646603E+00</totfact>
</mgrwt>
</event>
<event>
 4    1  0.2276655E-008  0.8312738E+03  0.7818608E-02  0.9515821E-01
         -2   -1    0    0    0  501 -0.00000000000E+00  0.00000000000E+00  0.14811972314E+04  0.14811972315E+04  0.25500000000E-02 0.  1.
          2   -1    0    0  501    0  0.00000000000E+00 -0.00000000000E+00 -0.19384552316E+04  0.19384552316E+04  0.25500000000E-02 0. -1.
    8880022    1    1    2    0    0  0.41672055072E+03  0.70282887584E+03 -0.17185651060E+04  0.19090526768E+04  0.15294330000E+03 0.  0.
    8880022    1    1    2    0    0 -0.41672055072E+03 -0.70282887584E+03  0.12613071058E+04  0.15105997863E+04  0.15294330000E+03 0.  0.
<mgrwt>
<rscale>  0 0.83127378E+03</rscale>
<asrwt>0</asrwt>
<pdfrwt beam="1">  1        2 0.29822388E+00 0.83127378E+03</pdfrwt>
<pdfrwt beam="2">  1       -2 0.22787650E+00 0.83127378E+03</pdfrwt>
<totfact> 0.65649647E-01</totfact>
</mgrwt>
</event>
<event>
 4    1  0.2202466E-008  0.1772038E+04  0.7818608E-02  0.8721312E-01
         -2   -1    0    0    0  501 -0.00000000000E+00  0.00000000000E+00  0.15628478406E+04  0.15628478406E+04  0.25500000000E-02 0.  1.
          2   -1    0    0  501    0  0.00000000000E+00 -0.00000000000E+00 -0.30845216522E+04  0.30845216522E+04  0.25500000000E-02 0. -1.
    8880022    1    1    2    0    0 -0.14946479589E+04 -0.93955044919E+03  0.61113946740E+03  0.18744627681E+04  0.15294330000E+03 0.  0.
    8880022    1    1    2    0    0  0.14946479589E+04  0.93955044919E+03 -0.21328132790E+04  0.27729067247E+04  0.15294330000E+03 0.  0.
<mgrwt>
<rscale>  0 0.17720382E+04</rscale>
<asrwt>0</asrwt>
<pdfrwt beam="1">  1        2 0.47454179E+00 0.17720382E+04</pdfrwt>
<pdfrwt beam="2">  1       -2 0.24043813E+00 0.17720382E+04</pdfrwt>
<totfact> 0.10319271E-01</totfact>
</mgrwt>
</event>
<event>
 4    1  0.2202466E-008  0.1116699E+04  0.7818608E-02  0.9189067E-01
         -2   -1    0    0    0  501 -0.00000000000E+00  0.00000000000E+00  0.75619988835E+03  0.75619988835E+03  0.25500000000E-02 0.  1.
          2   -1    0    0  501    0  0.00000000000E+00 -0.00000000000E+00 -0.38725601079E+04  0.38725601079E+04  0.25500000000E-02 0. -1.
    8880022    1    1    2    0    0  0.11025114446E+04 -0.89958865691E+02  0.19551697889E+03  0.11336854171E+04  0.15294330000E+03 0.  0.
    8880022    1    1    2    0    0 -0.11025114446E+04  0.89958865691E+02 -0.33118771985E+04  0.34950745791E+04  0.15294330000E+03 0.  0.
<mgrwt>
<rscale>  0 0.11166986E+04</rscale>
<asrwt>0</asrwt>
<pdfrwt beam="1">  1        2 0.59577847E+00 0.11166986E+04</pdfrwt>
<pdfrwt beam="2">  1       -2 0.11633845E+00 0.11166986E+04</pdfrwt>
<totfact> 0.25304278E-01</totfact>
</mgrwt>
</event>
<event>
 4    1  0.2202466E-008  0.1572051E+04  0.7818608E-02  0.8837905E-01
         -2   -1    0    0    0  501 -0.00000000000E+00  0.00000000000E+00  0.34629526858E+04  0.34629526858E+04  0.25500000000E-02 0.  1.
          2   -1    0    0  501    0  0.00000000000E+00 -0.00000000000E+00 -0.13459149487E+04  0.13459149487E+04  0.25500000000E-02 0. -1.
    8880022    1    1    2    0    0 -0.12799659693E+04  0.89979952089E+03  0.27065022410E+04  0.31299357971E+04  0.15294330000E+03 0.  0.
    8880022    1    1    2    0    0  0.12799659693E+04 -0.89979952089E+03 -0.58946450392E+03  0.16789318374E+04  0.15294330000E+03 0.  0.
<mgrwt>
<rscale>  0 0.15720508E+04</rscale>
<asrwt>0</asrwt>
<pdfrwt beam="1">  1        2 0.20706384E+00 0.15720508E+04</pdfrwt>
<pdfrwt beam="2">  1       -2 0.53276195E+00 0.15720508E+04</pdfrwt>
<totfact> 0.15096180E-02</totfact>
</mgrwt>
</event>
<event>
 4    1  0.2202466E-008  0.4536084E+03  0.7818608E-02  0.1026651E+00
          2   -1    0    0  501    0  0.00000000000E+00  0.00000000000E+00  0.16982680799E+04  0.16982680799E+04  0.25500000000E-02 0. -1.
         -2   -1    0    0    0  501 -0.00000000000E+00 -0.00000000000E+00 -0.41886928372E+03  0.41886928373E+03  0.25500000000E-02 0.  1.
    8880022    1    1    2    0    0 -0.23533678854E+03  0.35635027046E+03  0.15321345229E+04  0.15978725758E+04  0.15294330000E+03 0.  0.
    8880022    1    1    2    0    0  0.23533678854E+03 -0.35635027046E+03 -0.25273572671E+03  0.51926478782E+03  0.15294330000E+03 0.  0.
<mgrwt>
<rscale>  0 0.45360839E+03</rscale>
<asrwt>0</asrwt>
<pdfrwt beam="1">  1        2 0.26127201E+00 0.45360839E+03</pdfrwt>
<pdfrwt beam="2">  1       -2 0.64441429E-01 0.45360839E+03</pdfrwt>
<totfact> 0.23569027E+01</totfact>
</mgrwt>
</event>
<event>
 4    1  0.2202466E-008  0.1037813E+04  0.7818608E-02  0.9268018E-01
         -2   -1    0    0    0  501 -0.00000000000E+00  0.00000000000E+00  0.11614482683E+04  0.11614482683E+04  0.25500000000E-02 0.  1.
          2   -1    0    0  501    0  0.00000000000E+00 -0.00000000000E+00 -0.16535105242E+04  0.16535105243E+04  0.25500000000E-02 0. -1.
    8880022    1    1    2    0    0  0.19502723918E+03  0.10077837737E+04  0.68670413107E+03  0.12444348015E+04  0.15294330000E+03 0.  0.
    8880022    1    1    2    0    0 -0.19502723918E+03 -0.10077837737E+04 -0.11787663870E+04  0.15705239911E+04  0.15294330000E+03 0.  0.
<mgrwt>
<rscale>  0 0.10378128E+04</rscale>
<asrwt>0</asrwt>
<pdfrwt beam="1">  1        2 0.25438623E+00 0.10378128E+04</pdfrwt>
<pdfrwt beam="2">  1       -2 0.17868435E+00 0.10378128E+04</pdfrwt>
<totfact> 0.19065244E+00</totfact>
</mgrwt>
</event>
<event>
 4    1  0.2202466E-008  0.3576286E+03  0.7818608E-02  0.1059527E+00
          2   -1    0    0  501    0  0.00000000000E+00  0.00000000000E+00  0.23611585904E+04  0.23611585904E+04  0.25500000000E-02 0. -1.
         -2   -1    0    0    0  501 -0.00000000000E+00 -0.00000000000E+00 -0.10054056134E+03  0.10054056137E+03  0.25500000000E-02 0.  1.
    8880022    1    1    2    0    0 -0.24991717198E+03  0.20505593240E+03  0.29438468321E+03  0.46320678211E+03  0.15294330000E+03 0.  1.
    8880022    1    1    2    0    0  0.24991717198E+03 -0.20505593240E+03  0.19662333458E+04  0.19984923696E+04  0.15294330000E+03 0. -1.
<mgrwt>
<rscale>  0 0.35762855E+03</rscale>
<asrwt>0</asrwt>
<pdfrwt beam="1">  1        2 0.36325513E+00 0.35762855E+03</pdfrwt>
<pdfrwt beam="2">  1       -2 0.15467780E-01 0.35762855E+03</pdfrwt>
<totfact> 0.15257334E+02</totfact>
</mgrwt>
</event>
<event>
 4    1  0.2202466E-008  0.8715759E+03  0.7818608E-02  0.9461827E-01
         -2   -1    0    0    0  501 -0.00000000000E+00  0.00000000000E+00  0.50446121163E+03  0.50446121164E+03  0.25500000000E-02 0.  1.
          2   -1    0    0  501    0  0.00000000000E+00 -0.00000000000E+00 -0.21434865009E+04  0.21434865009E+04  0.25500000000E-02 0. -1.
    8880022    1    1    2    0    0 -0.53640271270E+03 -0.66972017455E+03 -0.97400819540E+02  0.87700145670E+03  0.15294330000E+03 0.  0.
    8880022    1    1    2    0    0  0.53640271270E+03  0.66972017455E+03 -0.15416244697E+04  0.17709462558E+04  0.15294330000E+03 0.  0.
<mgrwt>
<rscale>  0 0.87157595E+03</rscale>
<asrwt>0</asrwt>
<pdfrwt beam="1">  1        2 0.32976715E+00 0.87157595E+03</pdfrwt>
<pdfrwt beam="2">  1       -2 0.77609418E-01 0.87157595E+03</pdfrwt>
<totfact> 0.83908113E+00</totfact>
</mgrwt>
</event>
<event>
 4    1  0.2202466E-008  0.2111672E+03  0.7818608E-02  0.1140645E+00
          2   -1    0    0  501    0  0.00000000000E+00  0.00000000000E+00  0.71768873138E+03  0.71768873139E+03  0.25500000000E-02 0. -1.
         -2   -1    0    0    0  501 -0.00000000000E+00 -0.00000000000E+00 -0.93928983284E+02  0.93928983319E+02  0.25500000000E-02 0.  1.
    8880022    1    1    2    0    0  0.13692399396E+03 -0.49515014533E+02  0.75770407591E+02  0.22434955865E+03  0.15294330000E+03 0.  0.
    8880022    1    1    2    0    0 -0.13692399396E+03  0.49515014533E+02  0.54798934051E+03  0.58726815605E+03  0.15294330000E+03 0. -1.
<mgrwt>
<rscale>  0 0.21116716E+03</rscale>
<asrwt>0</asrwt>
<pdfrwt beam="1">  1        2 0.11041365E+00 0.21116716E+03</pdfrwt>
<pdfrwt beam="2">  1       -2 0.14450613E-01 0.21116716E+03</pdfrwt>
<totfact> 0.14787476E+03</totfact>
</mgrwt>
</event>
<event>
 4    1  0.2202466E-008  0.5976254E+03  0.7818608E-02  0.9910345E-01
         -2   -1    0    0    0  501 -0.00000000000E+00  0.00000000000E+00  0.76890296857E+03  0.76890296857E+03  0.25500000000E-02 0.  1.
          2   -1    0    0  501    0  0.00000000000E+00 -0.00000000000E+00 -0.61827434779E+03  0.61827434779E+03  0.25500000000E-02 0. -1.
    8880022    1    1    2    0    0  0.80864597565E+02 -0.57203614201E+03  0.42121554544E+03  0.73114883549E+03  0.15294330000E+03 0.  0.
    8880022    1    1    2    0    0 -0.80864597565E+02  0.57203614201E+03 -0.27058692466E+03  0.65602848087E+03  0.15294330000E+03 0.  0.
<mgrwt>
<rscale>  0 0.59762537E+03</rscale>
<asrwt>0</asrwt>
<pdfrwt beam="1">  1        2 0.95119131E-01 0.59762537E+03</pdfrwt>
<pdfrwt beam="2">  1       -2 0.11829276E+00 0.59762537E+03</pdfrwt>
<totfact> 0.27039131E+01</totfact>
</mgrwt>
</event>
<event>
 4    1  0.2202466E-008  0.8146069E+03  0.7818608E-02  0.9539112E-01
          2   -1    0    0  501    0  0.00000000000E+00  0.00000000000E+00  0.14936520774E+04  0.14936520774E+04  0.25500000000E-02 0. -1.
         -2   -1    0    0    0  501 -0.00000000000E+00 -0.00000000000E+00 -0.88857479676E+03  0.88857479676E+03  0.25500000000E-02 0.  1.
    8880022    1    1    2    0    0  0.77897727643E+03  0.18272151096E+03 -0.53972249795E+03  0.97718205856E+03  0.15294330000E+03 0.  0.
    8880022    1    1    2    0    0 -0.77897727643E+03 -0.18272151096E+03  0.11447997786E+04  0.14050448156E+04  0.15294330000E+03 0.  0.
<mgrwt>
<rscale>  0 0.81460690E+03</rscale>
<asrwt>0</asrwt>
<pdfrwt beam="1">  1        2 0.22979262E+00 0.81460690E+03</pdfrwt>
<pdfrwt beam="2">  1       -2 0.13670382E+00 0.81460690E+03</pdfrwt>
<totfact> 0.49687308E+00</totfact>
</mgrwt>
</event>
<event>
 4    1  0.2202466E-008  0.8962177E+03  0.7818608E-02  0.9430322E-01
          2   -1    0    0  501    0  0.00000000000E+00  0.00000000000E+00  0.24993983741E+04  0.24993983741E+04  0.25500000000E-02 0. -1.
         -2   -1    0    0    0  501 -0.00000000000E+00 -0.00000000000E+00 -0.90494002103E+03  0.90494002103E+03  0.25500000000E-02 0.  1.
    8880022    1    1    2    0    0  0.67831016321E+03  0.56542890971E+03 -0.56969085703E+03  0.10619575580E+04  0.15294330000E+03 0.  0.
    8880022    1    1    2    0    0 -0.67831016321E+03 -0.56542890971E+03  0.21641492101E+04  0.23423808371E+04  0.15294330000E+03 0.  0.
<mgrwt>
<rscale>  0 0.89621771E+03</rscale>
<asrwt>0</asrwt>
<pdfrwt beam="1">  1        2 0.38452282E+00 0.89621771E+03</pdfrwt>
<pdfrwt beam="2">  1       -2 0.13922154E+00 0.89621771E+03</pdfrwt>
<totfact> 0.12988947E+00</totfact>
</mgrwt>
</event>
<event>
 4    1  0.2202466E-008  0.5536879E+03  0.7818608E-02  0.1000644E+00
          2   -1    0    0  501    0  0.00000000000E+00  0.00000000000E+00  0.32811812567E+04  0.32811812567E+04  0.25500000000E-02 0. -1.
         -2   -1    0    0    0  501 -0.00000000000E+00 -0.00000000000E+00 -0.18150225668E+03  0.18150225670E+03  0.25500000000E-02 0.  1.
    8880022    1    1    2    0    0 -0.49662315570E+03  0.19116518394E+03  0.27558585185E+04  0.28109298308E+04  0.15294330000E+03 0.  0.
    8880022    1    1    2    0    0  0.49662315570E+03 -0.19116518394E+03  0.34382048151E+03  0.65175368265E+03  0.15294330000E+03 0.  0.
<mgrwt>
<rscale>  0 0.55368794E+03</rscale>
<asrwt>0</asrwt>
<pdfrwt beam="1">  1        2 0.50479708E+00 0.55368794E+03</pdfrwt>
<pdfrwt beam="2">  1       -2 0.27923426E-01 0.55368794E+03</pdfrwt>
<totfact> 0.14969294E+01</totfact>
</mgrwt>
</event>
<event>
 4    1  0.2202466E-008  0.4241258E+03  0.7818608E-02  0.1035732E+00
          2   -1    0    0  501    0  0.00000000000E+00  0.00000000000E+00  0.19875349911E+04  0.19875349911E+04  0.25500000000E-02 0. -1.
         -2   -1    0    0    0  501 -0.00000000000E+00 -0.00000000000E+00 -0.19738793875E+03  0.19738793877E+03  0.25500000000E-02 0.  1.
    8880022    1    1    2    0    0 -0.16425544459E+03  0.35987665218E+03  0.16989681801E+04  0.17511069601E+04  0.15294330000E+03 0.  0.
    8880022    1    1    2    0    0  0.16425544459E+03 -0.35987665218E+03  0.91178872293E+02  0.43381596977E+03  0.15294330000E+03 0.  0.
<mgrwt>
<rscale>  0 0.42412582E+03</rscale>
<asrwt>0</asrwt>
<pdfrwt beam="1">  1        2 0.30577461E+00 0.42412582E+03</pdfrwt>
<pdfrwt beam="2">  1       -2 0.30367376E-01 0.42412582E+03</pdfrwt>
<totfact> 0.73382922E+01</totfact>
</mgrwt>
</event>
<event>
 4    1  0.2202466E-008  0.1215203E+04  0.7818608E-02  0.9099652E-01
         -2   -1    0    0    0  501 -0.00000000000E+00  0.00000000000E+00  0.10023764053E+04  0.10023764053E+04  0.25500000000E-02 0.  1.
          2   -1    0    0  501    0  0.00000000000E+00 -0.00000000000E+00 -0.15314010988E+04  0.15314010988E+04  0.25500000000E-02 0. -1.
    8880022    1    1    2    0    0 -0.93263060934E+03 -0.76388991788E+03 -0.51145216471E+03  0.13184470524E+04  0.15294330000E+03 0.  0.
    8880022    1    1    2    0    0  0.93263060934E+03  0.76388991788E+03 -0.17572528847E+02  0.12153304517E+04  0.15294330000E+03 0.  0.
<mgrwt>
<rscale>  0 0.12152034E+04</rscale>
<asrwt>0</asrwt>
<pdfrwt beam="1">  1        2 0.23560017E+00 0.12152034E+04</pdfrwt>
<pdfrwt beam="2">  1       -2 0.15421175E+00 0.12152034E+04</pdfrwt>
<totfact> 0.32906035E+00</totfact>
</mgrwt>
</event>
<event>
 4    1  0.2202466E-008  0.1009920E+04  0.7818608E-02  0.9297732E-01
          2   -1    0    0  501    0  0.00000000000E+00  0.00000000000E+00  0.39553945675E+04  0.39553945675E+04  0.25500000000E-02 0. -1.
         -2   -1    0    0    0  501 -0.00000000000E+00 -0.00000000000E+00 -0.66771827091E+03  0.66771827092E+03  0.25500000000E-02 0.  1.
    8880022    1    1    2    0    0  0.46986233794E+03  0.88078102788E+03 -0.16718830464E+03  0.10236646999E+04  0.15294330000E+03 0.  0.
    8880022    1    1    2    0    0 -0.46986233794E+03 -0.88078102788E+03  0.34548646012E+04  0.35994481385E+04  0.15294330000E+03 0.  0.
<mgrwt>
<rscale>  0 0.10099195E+04</rscale>
<asrwt>0</asrwt>
<pdfrwt beam="1">  1        2 0.60852223E+00 0.10099195E+04</pdfrwt>
<pdfrwt beam="2">  1       -2 0.10272589E+00 0.10099195E+04</pdfrwt>
<totfact> 0.30142533E-01</totfact>
</mgrwt>
</event>
<event>
 4    1  0.2202466E-008  0.4774171E+03  0.7818608E-02  0.1019847E+00
          2   -1    0    0  501    0  0.00000000000E+00  0.00000000000E+00  0.15780146281E+04  0.15780146281E+04  0.25500000000E-02 0. -1.
         -2   -1    0    0    0  501 -0.00000000000E+00 -0.00000000000E+00 -0.27875365424E+03  0.27875365425E+03  0.25500000000E-02 0.  1.
    8880022    1    1    2    0    0  0.45223681471E+03  0.41597914288E+01  0.51958373531E+01  0.47744537926E+03  0.15294330000E+03 0.  0.
    8880022    1    1    2    0    0 -0.45223681471E+03 -0.41597914288E+01  0.12940651365E+04  0.13793229030E+04  0.15294330000E+03 0.  0.
<mgrwt>
<rscale>  0 0.47741711E+03</rscale>
<asrwt>0</asrwt>
<pdfrwt beam="1">  1        2 0.24277148E+00 0.47741711E+03</pdfrwt>
<pdfrwt beam="2">  1       -2 0.42885178E-01 0.47741711E+03</pdfrwt>
<totfact> 0.62601266E+01</totfact>
</mgrwt>
</event>
<event>
 4    1  0.2202466E-008  0.8121271E+03  0.7818608E-02  0.9542628E-01
          2   -1    0    0  501    0  0.00000000000E+00  0.00000000000E+00  0.19610516380E+04  0.19610516380E+04  0.25500000000E-02 0. -1.
         -2   -1    0    0    0  501 -0.00000000000E+00 -0.00000000000E+00 -0.79135801210E+03  0.79135801210E+03  0.25500000000E-02 0.  1.
    8880022    1    1    2    0    0  0.73998401526E+03 -0.29762801208E+03 -0.45871478934E+03  0.93272165590E+03  0.15294330000E+03 0.  0.
    8880022    1    1    2    0    0 -0.73998401526E+03  0.29762801208E+03  0.16284084152E+04  0.18196879942E+04  0.15294330000E+03 0.  0.
<mgrwt>
<rscale>  0 0.81212710E+03</rscale>
<asrwt>0</asrwt>
<pdfrwt beam="1">  1        2 0.30170025E+00 0.81212710E+03</pdfrwt>
<pdfrwt beam="2">  1       -2 0.12174739E+00 0.81212710E+03</pdfrwt>
<totfact> 0.36874401E+00</totfact>
</mgrwt>
</event>
<event>
 4    1  0.2202466E-008  0.9437580E+03  0.7818608E-02  0.9372476E-01
         -2   -1    0    0    0  501 -0.00000000000E+00  0.00000000000E+00  0.70205869147E+03  0.70205869147E+03  0.25500000000E-02 0.  1.
          2   -1    0    0  501    0  0.00000000000E+00 -0.00000000000E+00 -0.23689393948E+04  0.23689393948E+04  0.25500000000E-02 0. -1.
    8880022    1    1    2    0    0 -0.27961719825E+03  0.88831397003E+03  0.21301946917E+03  0.96750009518E+03  0.15294330000E+03 0.  0.
    8880022    1    1    2    0    0  0.27961719825E+03 -0.88831397003E+03 -0.18799001725E+04  0.21034979911E+04  0.15294330000E+03 0.  0.
<mgrwt>
<rscale>  0 0.94375799E+03</rscale>
<asrwt>0</asrwt>
<pdfrwt beam="1">  1        2 0.36445221E+00 0.94375799E+03</pdfrwt>
<pdfrwt beam="2">  1       -2 0.10800903E+00 0.94375799E+03</pdfrwt>
<totfact> 0.28829565E+00</totfact>
</mgrwt>
</event>
<event>
 4    1  0.2202466E-008  0.2019476E+03  0.7818608E-02  0.1148106E+00
         -2   -1    0    0    0  501 -0.00000000000E+00  0.00000000000E+00  0.41246568309E+03  0.41246568310E+03  0.25500000000E-02 0.  1.
          2   -1    0    0  501    0  0.00000000000E+00 -0.00000000000E+00 -0.11264265269E+04  0.11264265269E+04  0.25500000000E-02 0. -1.
    8880022    1    1    2    0    0 -0.24752883699E+02 -0.12953170692E+03 -0.10918807367E+04  0.11103991915E+04  0.15294330000E+03 0.  0.
    8880022    1    1    2    0    0  0.24752883699E+02  0.12953170692E+03  0.37791989294E+03  0.42849301843E+03  0.15294330000E+03 0.  1.
<mgrwt>
<rscale>  0 0.20194757E+03</rscale>
<asrwt>0</asrwt>
<pdfrwt beam="1">  1        2 0.17329639E+00 0.20194757E+03</pdfrwt>
<pdfrwt beam="2">  1       -2 0.63456259E-01 0.20194757E+03</pdfrwt>
<totfact> 0.53691438E+01</totfact>
</mgrwt>
</event>
<event>
 4    1  0.2202466E-008  0.5634945E+03  0.7818608E-02  0.9984179E-01
          2   -1    0    0  501    0  0.00000000000E+00  0.00000000000E+00  0.30978381375E+04  0.30978381375E+04  0.25500000000E-02 0. -1.
         -2   -1    0    0    0  501 -0.00000000000E+00 -0.00000000000E+00 -0.14946170479E+03  0.14946170481E+03  0.25500000000E-02 0.  1.
    8880022    1    1    2    0    0  0.11515465102E+03  0.52997526240E+03  0.56405929556E+03  0.79730101864E+03  0.15294330000E+03 0.  0.
    8880022    1    1    2    0    0 -0.11515465102E+03 -0.52997526240E+03  0.23843171372E+04  0.24499988237E+04  0.15294330000E+03 0.  0.
<mgrwt>
<rscale>  0 0.56349448E+03</rscale>
<asrwt>0</asrwt>
<pdfrwt beam="1">  1        2 0.47659047E+00 0.56349448E+03</pdfrwt>
<pdfrwt beam="2">  1       -2 0.22994109E-01 0.56349448E+03</pdfrwt>
<totfact> 0.27635913E+01</totfact>
</mgrwt>
</event>
<event>
 4    1  0.2202466E-008  0.8268211E+03  0.7818608E-02  0.9521986E-01
         -2   -1    0    0    0  501 -0.00000000000E+00  0.00000000000E+00  0.47694994840E+03  0.47694994841E+03  0.25500000000E-02 0.  1.
          2   -1    0    0  501    0  0.00000000000E+00 -0.00000000000E+00 -0.19114990518E+04  0.19114990518E+04  0.25500000000E-02 0. -1.
    8880022    1    1    2    0    0 -0.79030120466E+03  0.18885302704E+03 -0.11998690827E+03  0.83548187957E+03  0.15294330000E+03 0.  0.
    8880022    1    1    2    0    0  0.79030120466E+03 -0.18885302704E+03 -0.13145621952E+04  0.15529671207E+04  0.15294330000E+03 0.  0.
<mgrwt>
<rscale>  0 0.82682109E+03</rscale>
<asrwt>0</asrwt>
<pdfrwt beam="1">  1        2 0.29407677E+00 0.82682109E+03</pdfrwt>
<pdfrwt beam="2">  1       -2 0.73376916E-01 0.82682109E+03</pdfrwt>
<totfact> 0.12819528E+01</totfact>
</mgrwt>
</event>
<event>
 4    1  0.2202466E-008  0.1096530E+04  0.7818608E-02  0.9208581E-01
         -2   -1    0    0    0  501 -0.00000000000E+00  0.00000000000E+00  0.82571579753E+03  0.82571579753E+03  0.25500000000E-02 0.  1.
          2   -1    0    0  501    0  0.00000000000E+00 -0.00000000000E+00 -0.21036790623E+04  0.21036790623E+04  0.25500000000E-02 0. -1.
    8880022    1    1    2    0    0 -0.55514438073E+03 -0.93316717633E+03 -0.14515931889E+04  0.18192033150E+04  0.15294330000E+03 0.  0.
    8880022    1    1    2    0    0  0.55514438073E+03  0.93316717633E+03  0.17362992416E+03  0.11101915447E+04  0.15294330000E+03 0.  0.
<mgrwt>
<rscale>  0 0.10965299E+04</rscale>
<asrwt>0</asrwt>
<pdfrwt beam="1">  1        2 0.32364293E+00 0.10965299E+04</pdfrwt>
<pdfrwt beam="2">  1       -2 0.12703320E+00 0.10965299E+04</pdfrwt>
<totfact> 0.26598654E+00</totfact>
</mgrwt>
</event>
<event>
 4    1  0.2202466E-008  0.8404077E+03  0.7818608E-02  0.9503303E-01
          2   -1    0    0  501    0  0.00000000000E+00  0.00000000000E+00  0.29046844099E+04  0.29046844100E+04  0.25500000000E-02 0. -1.
         -2   -1    0    0    0  501 -0.00000000000E+00 -0.00000000000E+00 -0.33922126870E+03  0.33922126871E+03  0.25500000000E-02 0.  1.
    8880022    1    1    2    0    0  0.49522926163E+03  0.66154471180E+03  0.41958442820E+03  0.93932751088E+03  0.15294330000E+03 0.  0.
    8880022    1    1    2    0    0 -0.49522926163E+03 -0.66154471180E+03  0.21458787130E+04  0.23045781678E+04  0.15294330000E+03 0.  0.
<mgrwt>
<rscale>  0 0.84040769E+03</rscale>
<asrwt>0</asrwt>
<pdfrwt beam="1">  1        2 0.44687452E+00 0.84040769E+03</pdfrwt>
<pdfrwt beam="2">  1       -2 0.52187888E-01 0.84040769E+03</pdfrwt>
<totfact> 0.72296255E+00</totfact>
</mgrwt>
</event>
<event>
 4    1  0.2202466E-008  0.9533418E+03  0.7818608E-02  0.9361253E-01
          2   -1    0    0  501    0  0.00000000000E+00  0.00000000000E+00  0.24348570640E+04  0.24348570640E+04  0.25500000000E-02 0. -1.
         -2   -1    0    0    0  501 -0.00000000000E+00 -0.00000000000E+00 -0.68958309872E+03  0.68958309873E+03  0.25500000000E-02 0.  1.
    8880022    1    1    2    0    0 -0.14101219977E+03  0.93036793732E+03  0.19306891431E+04  0.21532350451E+04  0.15294330000E+03 0.  0.
    8880022    1    1    2    0    0  0.14101219977E+03 -0.93036793732E+03 -0.18541517781E+03  0.97120511760E+03  0.15294330000E+03 0.  0.
<mgrwt>
<rscale>  0 0.95334180E+03</rscale>
<asrwt>0</asrwt>
<pdfrwt beam="1">  1        2 0.37459339E+00 0.95334180E+03</pdfrwt>
<pdfrwt beam="2">  1       -2 0.10608971E+00 0.95334180E+03</pdfrwt>
<totfact> 0.27594098E+00</totfact>
</mgrwt>
</event>
<event>
 4    1  0.2202466E-008  0.6589225E+03  0.7818608E-02  0.9790179E-01
          2   -1    0    0  501    0  0.00000000000E+00  0.00000000000E+00  0.21161821306E+04  0.21161821306E+04  0.25500000000E-02 0. -1.
         -2   -1    0    0    0  501 -0.00000000000E+00 -0.00000000000E+00 -0.70933850444E+03  0.70933850444E+03  0.25500000000E-02 0.  1.
    8880022    1    1    2    0    0 -0.25784555926E+03  0.58677324179E+03  0.18944697000E+04  0.20057901852E+04  0.15294330000E+03 0.  0.
    8880022    1    1    2    0    0  0.25784555926E+03 -0.58677324179E+03 -0.48762607377E+03  0.81973044993E+03  0.15294330000E+03 0.  0.
<mgrwt>
<rscale>  0 0.65892247E+03</rscale>
<asrwt>0</asrwt>
<pdfrwt beam="1">  1        2 0.32556648E+00 0.65892247E+03</pdfrwt>
<pdfrwt beam="2">  1       -2 0.10912900E+00 0.65892247E+03</pdfrwt>
<totfact> 0.40740049E+00</totfact>
</mgrwt>
</event>
<event>
 4    1  0.2202466E-008  0.5757166E+03  0.7818608E-02  0.9957108E-01
          2   -1    0    0  501    0  0.00000000000E+00  0.00000000000E+00  0.12857897756E+04  0.12857897756E+04  0.25500000000E-02 0. -1.
         -2   -1    0    0    0  501 -0.00000000000E+00 -0.00000000000E+00 -0.49380904648E+03  0.49380904648E+03  0.25500000000E-02 0.  1.
    8880022    1    1    2    0    0  0.34241990661E+03 -0.43681409668E+03 -0.21918118278E+03  0.61602758980E+03  0.15294330000E+03 0.  0.
    8880022    1    1    2    0    0 -0.34241990661E+03  0.43681409668E+03  0.10111619120E+04  0.11635712323E+04  0.15294330000E+03 0.  0.
<mgrwt>
<rscale>  0 0.57571660E+03</rscale>
<asrwt>0</asrwt>
<pdfrwt beam="1">  1        2 0.19781381E+00 0.57571660E+03</pdfrwt>
<pdfrwt beam="2">  1       -2 0.75970623E-01 0.57571660E+03</pdfrwt>
<totfact> 0.27260560E+01</totfact>
</mgrwt>
</event>
<event>
 4    1  0.2202466E-008  0.5689779E+03  0.7818608E-02  0.9971943E-01
          2   -1    0    0  501    0  0.00000000000E+00  0.00000000000E+00  0.23546036988E+04  0.23546036988E+04  0.25500000000E-02 0. -1.
         -2   -1    0    0    0  501 -0.00000000000E+00 -0.00000000000E+00 -0.39090275680E+03  0.39090275681E+03  0.25500000000E-02 0.  1.
    8880022    1    1    2    0    0  0.13118738293E+03  0.53210339451E+03 -0.12342836748E+03  0.58221161686E+03  0.15294330000E+03 0.  0.
    8880022    1    1    2    0    0 -0.13118738293E+03 -0.53210339451E+03  0.20871293095E+04  0.21632948388E+04  0.15294330000E+03 0.  0.
<mgrwt>
<rscale>  0 0.56897786E+03</rscale>
<asrwt>0</asrwt>
<pdfrwt beam="1">  1        2 0.36224672E+00 0.56897786E+03</pdfrwt>
<pdfrwt beam="2">  1       -2 0.60138887E-01 0.56897786E+03</pdfrwt>
<totfact> 0.11743560E+01</totfact>
</mgrwt>
</event>
<event>
 4    1  0.2202466E-008  0.1397734E+04  0.7818608E-02  0.8955460E-01
         -2   -1    0    0    0  501 -0.00000000000E+00  0.00000000000E+00  0.13213919843E+04  0.13213919843E+04  0.25500000000E-02 0.  1.
          2   -1    0    0  501    0  0.00000000000E+00 -0.00000000000E+00 -0.21741233872E+04  0.21741233872E+04  0.25500000000E-02 0. -1.
    8880022    1    1    2    0    0 -0.68141201826E+03  0.12107632803E+04  0.56225584930E+03  0.15065833374E+04  0.15294330000E+03 0.  0.
    8880022    1    1    2    0    0  0.68141201826E+03 -0.12107632803E+04 -0.14149872522E+04  0.19889320341E+04  0.15294330000E+03 0.  0.
<mgrwt>
<rscale>  0 0.13977345E+04</rscale>
<asrwt>0</asrwt>
<pdfrwt beam="1">  1        2 0.33448052E+00 0.13977345E+04</pdfrwt>
<pdfrwt beam="2">  1       -2 0.20329107E+00 0.13977345E+04</pdfrwt>
<totfact> 0.64165881E-01</totfact>
</mgrwt>
</event>
<event>
 4    1  0.2202466E-008  0.1283211E+04  0.7818608E-02  0.9042986E-01
          2   -1    0    0  501    0  0.00000000000E+00  0.00000000000E+00  0.29781850310E+04  0.29781850310E+04  0.25500000000E-02 0. -1.
         -2   -1    0    0    0  501 -0.00000000000E+00 -0.00000000000E+00 -0.88489497727E+03  0.88489497728E+03  0.25500000000E-02 0.  1.
    8880022    1    1    2    0    0 -0.10360492947E+04  0.74151308689E+03 -0.13646503415E+03  0.12904472704E+04  0.15294330000E+03 0.  0.
    8880022    1    1    2    0    0  0.10360492947E+04 -0.74151308689E+03  0.22297550879E+04  0.25726327379E+04  0.15294330000E+03 0.  0.
<mgrwt>
<rscale>  0 0.12832114E+04</rscale>
<asrwt>0</asrwt>
<pdfrwt beam="1">  1        2 0.45818233E+00 0.12832114E+04</pdfrwt>
<pdfrwt beam="2">  1       -2 0.13613768E+00 0.12832114E+04</pdfrwt>
<totfact> 0.67621562E-01</totfact>
</mgrwt>
</event>
<event>
 4    1  0.2202466E-008  0.1123303E+04  0.7818608E-02  0.9182772E-01
         -2   -1    0    0    0  501 -0.00000000000E+00  0.00000000000E+00  0.65004413661E+03  0.65004413662E+03  0.25500000000E-02 0.  1.
          2   -1    0    0  501    0  0.00000000000E+00 -0.00000000000E+00 -0.33525388630E+04  0.33525388630E+04  0.25500000000E-02 0. -1.
    8880022    1    1    2    0    0 -0.21964475056E+03  0.10909507978E+04 -0.26497788313E+04  0.28780439482E+04  0.15294330000E+03 0.  0.
    8880022    1    1    2    0    0  0.21964475056E+03 -0.10909507978E+04 -0.52715895140E+02  0.11245390515E+04  0.15294330000E+03 0.  0.
<mgrwt>
<rscale>  0 0.11233028E+04</rscale>
<asrwt>0</asrwt>
<pdfrwt beam="1">  1        2 0.51577520E+00 0.11233028E+04</pdfrwt>
<pdfrwt beam="2">  1       -2 0.10000679E+00 0.11233028E+04</pdfrwt>
<totfact> 0.85543579E-01</totfact>
</mgrwt>
</event>
<event>
 4    1  0.2202466E-008  0.3382007E+03  0.7818608E-02  0.1067565E+00
          2   -1    0    0  501    0  0.00000000000E+00  0.00000000000E+00  0.22723533379E+04  0.22723533379E+04  0.25500000000E-02 0. -1.
         -2   -1    0    0    0  501 -0.00000000000E+00 -0.00000000000E+00 -0.38507961265E+03  0.38507961265E+03  0.25500000000E-02 0.  1.
    8880022    1    1    2    0    0 -0.29193007443E+03  0.75927048757E+02  0.21824722921E+04  0.22085210082E+04  0.15294330000E+03 0. -1.
    8880022    1    1    2    0    0  0.29193007443E+03 -0.75927048757E+02 -0.29519856683E+03  0.44891194232E+03  0.15294330000E+03 0.  0.
<mgrwt>
<rscale>  0 0.33820074E+03</rscale>
<asrwt>0</asrwt>
<pdfrwt beam="1">  1        2 0.34959281E+00 0.33820074E+03</pdfrwt>
<pdfrwt beam="2">  1       -2 0.59243019E-01 0.33820074E+03</pdfrwt>
<totfact> 0.14313127E+01</totfact>
</mgrwt>
</event>
<event>
 4    1  0.2202466E-008  0.1054081E+04  0.7818608E-02  0.9251141E-01
         -2   -1    0    0    0  501 -0.00000000000E+00  0.00000000000E+00  0.10359532979E+04  0.10359532979E+04  0.25500000000E-02 0.  1.
          2   -1    0    0  501    0  0.00000000000E+00 -0.00000000000E+00 -0.13132708386E+04  0.13132708386E+04  0.25500000000E-02 0. -1.
    8880022    1    1    2    0    0 -0.93964213801E+03 -0.45251167356E+03 -0.64157621326E+03  0.12339796808E+04  0.15294330000E+03 0.  0.
    8880022    1    1    2    0    0  0.93964213801E+03  0.45251167356E+03  0.36425867254E+03  0.11152444556E+04  0.15294330000E+03 0.  0.
<mgrwt>
<rscale>  0 0.10540806E+04</rscale>
<asrwt>0</asrwt>
<pdfrwt beam="1">  1        2 0.20204167E+00 0.10540806E+04</pdfrwt>
<pdfrwt beam="2">  1       -2 0.15937743E+00 0.10540806E+04</pdfrwt>
<totfact> 0.40755163E+00</totfact>
</mgrwt>
</event>
<event>
 4    1  0.2202466E-008  0.1415611E+04  0.7818608E-02  0.8942595E-01
         -2   -1    0    0    0  501 -0.00000000000E+00  0.00000000000E+00  0.25450664250E+04  0.25450664250E+04  0.25500000000E-02 0.  1.
          2   -1    0    0  501    0  0.00000000000E+00 -0.00000000000E+00 -0.10255669636E+04  0.10255669636E+04  0.25500000000E-02 0. -1.
    8880022    1    1    2    0    0  0.75497896808E+03  0.11876745010E+04  0.16201185241E+04  0.21514505915E+04  0.15294330000E+03 0.  0.
    8880022    1    1    2    0    0 -0.75497896808E+03 -0.11876745010E+04 -0.10061906274E+03  0.14191827970E+04  0.15294330000E+03 0.  0.
<mgrwt>
<rscale>  0 0.14156114E+04</rscale>
<asrwt>0</asrwt>
<pdfrwt beam="1">  1        2 0.15777953E+00 0.14156114E+04</pdfrwt>
<pdfrwt beam="2">  1       -2 0.39154868E+00 0.14156114E+04</pdfrwt>
<totfact> 0.19595095E-01</totfact>
</mgrwt>
</event>
<event>
 4    1  0.2202466E-008  0.1181566E+04  0.7818608E-02  0.9129147E-01
          2   -1    0    0  501    0  0.00000000000E+00  0.00000000000E+00  0.12042112452E+04  0.12042112452E+04  0.25500000000E-02 0. -1.
         -2   -1    0    0    0  501 -0.00000000000E+00 -0.00000000000E+00 -0.15257316891E+04  0.15257316891E+04  0.25500000000E-02 0.  1.
    8880022    1    1    2    0    0 -0.96184613626E+03 -0.66899805393E+03 -0.82964832368E+03  0.14437501100E+04  0.15294330000E+03 0.  0.
    8880022    1    1    2    0    0  0.96184613626E+03  0.66899805393E+03  0.50812787983E+03  0.12861928243E+04  0.15294330000E+03 0.  0.
<mgrwt>
<rscale>  0 0.11815659E+04</rscale>
<asrwt>0</asrwt>
<pdfrwt beam="1">  1        2 0.18526327E+00 0.11815659E+04</pdfrwt>
<pdfrwt beam="2">  1       -2 0.23472795E+00 0.11815659E+04</pdfrwt>
<totfact> 0.14648069E+00</totfact>
</mgrwt>
</event>
<event>
 4    1  0.2202466E-008  0.1383582E+04  0.7818608E-02  0.8965790E-01
         -2   -1    0    0    0  501 -0.00000000000E+00  0.00000000000E+00  0.63488886874E+03  0.63488886874E+03  0.25500000000E-02 0.  1.
          2   -1    0    0  501    0  0.00000000000E+00 -0.00000000000E+00 -0.36024853454E+04  0.36024853454E+04  0.25500000000E-02 0. -1.
    8880022    1    1    2    0    0  0.13707482721E+04  0.10934045902E+03 -0.23392616099E+04  0.27178010770E+04  0.15294330000E+03 0.  0.
    8880022    1    1    2    0    0 -0.13707482721E+04 -0.10934045902E+03 -0.62833486669E+03  0.15195731371E+04  0.15294330000E+03 0.  0.
<mgrwt>
<rscale>  0 0.13835815E+04</rscale>
<asrwt>0</asrwt>
<pdfrwt beam="1">  1        2 0.55422850E+00 0.13835815E+04</pdfrwt>
<pdfrwt beam="2">  1       -2 0.97675213E-01 0.13835815E+04</pdfrwt>
<totfact> 0.58713901E-01</totfact>
</mgrwt>
</event>
<event>
 4    1  0.2202466E-008  0.8536373E+03  0.7818608E-02  0.9485468E-01
          2   -1    0    0  501    0  0.00000000000E+00  0.00000000000E+00  0.15602259851E+04  0.15602259851E+04  0.25500000000E-02 0. -1.
         -2   -1    0    0    0  501 -0.00000000000E+00 -0.00000000000E+00 -0.14846462404E+04  0.14846462404E+04  0.25500000000E-02 0.  1.
    8880022    1    1    2    0    0  0.77681200377E+03 -0.31916784505E+03 -0.12226329983E+04  0.14911499268E+04  0.15294330000E+03 0.  0.
    8880022    1    1    2    0    0 -0.77681200377E+03  0.31916784505E+03  0.12982127430E+04  0.15537222987E+04  0.15294330000E+03 0.  0.
<mgrwt>
<rscale>  0 0.85363731E+03</rscale>
<asrwt>0</asrwt>
<pdfrwt beam="1">  1        2 0.24003477E+00 0.85363731E+03</pdfrwt>
<pdfrwt beam="2">  1       -2 0.22840711E+00 0.85363731E+03</pdfrwt>
<totfact> 0.10469291E+00</totfact>
</mgrwt>
</event>
<event>
 4    1  0.2202466E-008  0.1146447E+04  0.7818608E-02  0.9161068E-01
          2   -1    0    0  501    0  0.00000000000E+00  0.00000000000E+00  0.38758090832E+04  0.38758090832E+04  0.25500000000E-02 0. -1.
         -2   -1    0    0    0  501 -0.00000000000E+00 -0.00000000000E+00 -0.70293897152E+03  0.70293897153E+03  0.25500000000E-02 0.  1.
    8880022    1    1    2    0    0  0.11234462550E+04 -0.16975582178E+03 -0.60605668944E+02  0.11480475718E+04  0.15294330000E+03 0.  0.
    8880022    1    1    2    0    0 -0.11234462550E+04  0.16975582178E+03  0.32334757806E+04  0.34307004829E+04  0.15294330000E+03 0.  0.
<mgrwt>
<rscale>  0 0.11464468E+04</rscale>
<asrwt>0</asrwt>
<pdfrwt beam="1">  1        2 0.59627832E+00 0.11464468E+04</pdfrwt>
<pdfrwt beam="2">  1       -2 0.10814446E+00 0.11464468E+04</pdfrwt>
<totfact> 0.29924484E-01</totfact>
</mgrwt>
</event>
<event>
 4    1  0.2202466E-008  0.1835824E+03  0.7818608E-02  0.1164380E+00
          2   -1    0    0  501    0  0.00000000000E+00  0.00000000000E+00  0.40741032977E+03  0.40741032977E+03  0.25500000000E-02 0. -1.
         -2   -1    0    0    0  501 -0.00000000000E+00 -0.00000000000E+00 -0.13419683436E+03  0.13419683439E+03  0.25500000000E-02 0.  1.
    8880022    1    1    2    0    0  0.26839923077E+02  0.97930894914E+02  0.30432237355E+03  0.35540765567E+03  0.15294330000E+03 0. -1.
    8880022    1    1    2    0    0 -0.26839923077E+02 -0.97930894914E+02 -0.31108878147E+02  0.18619950850E+03  0.15294330000E+03 0.  1.
<mgrwt>
<rscale>  0 0.18358239E+03</rscale>
<asrwt>0</asrwt>
<pdfrwt beam="1">  1        2 0.62678512E-01 0.18358239E+03</pdfrwt>
<pdfrwt beam="2">  1       -2 0.20645667E-01 0.18358239E+03</pdfrwt>
<totfact> 0.15438665E+03</totfact>
</mgrwt>
</event>
<event>
 4    1  0.2202466E-008  0.6505643E+03  0.7818608E-02  0.9805721E-01
         -2   -1    0    0    0  501 -0.00000000000E+00  0.00000000000E+00  0.70658240552E+03  0.70658240552E+03  0.25500000000E-02 0.  1.
          2   -1    0    0  501    0  0.00000000000E+00 -0.00000000000E+00 -0.76950644546E+03  0.76950644547E+03  0.25500000000E-02 0. -1.
    8880022    1    1    2    0    0  0.32053572895E+03 -0.54506799117E+03 -0.37888847536E+03  0.75285483216E+03  0.15294330000E+03 0.  0.
    8880022    1    1    2    0    0 -0.32053572895E+03  0.54506799117E+03  0.31596443541E+03  0.72323401883E+03  0.15294330000E+03 0.  0.
<mgrwt>
<rscale>  0 0.65056431E+03</rscale>
<asrwt>0</asrwt>
<pdfrwt beam="1">  1        2 0.11838561E+00 0.65056431E+03</pdfrwt>
<pdfrwt beam="2">  1       -2 0.10870498E+00 0.65056431E+03</pdfrwt>
<totfact> 0.25109403E+01</totfact>
</mgrwt>
</event>
<event>
 4    1  0.2202466E-008  0.6442391E+03  0.7818608E-02  0.9817649E-01
         -2   -1    0    0    0  501 -0.00000000000E+00  0.00000000000E+00  0.28958284678E+03  0.28958284679E+03  0.25500000000E-02 0.  1.
          2   -1    0    0  501    0  0.00000000000E+00 -0.00000000000E+00 -0.23295664721E+04  0.23295664721E+04  0.25500000000E-02 0. -1.
    8880022    1    1    2    0    0  0.23289480108E+03  0.58087211164E+03 -0.20767794090E+03  0.67688564662E+03  0.15294330000E+03 0.  1.
    8880022    1    1    2    0    0 -0.23289480108E+03 -0.58087211164E+03 -0.18323056845E+04  0.19422636723E+04  0.15294330000E+03 0.  0.
<mgrwt>
<rscale>  0 0.64423913E+03</rscale>
<asrwt>0</asrwt>
<pdfrwt beam="1">  1        2 0.35839483E+00 0.64423913E+03</pdfrwt>
<pdfrwt beam="2">  1       -2 0.44551209E-01 0.64423913E+03</pdfrwt>
<totfact> 0.22064926E+01</totfact>
</mgrwt>
</event>
<event>
 4    1  0.2202466E-008  0.6556583E+03  0.7818608E-02  0.9796219E-01
          2   -1    0    0  501    0  0.00000000000E+00  0.00000000000E+00  0.15127205110E+04  0.15127205110E+04  0.25500000000E-02 0. -1.
         -2   -1    0    0    0  501 -0.00000000000E+00 -0.00000000000E+00 -0.62934443250E+03  0.62934443251E+03  0.25500000000E-02 0.  1.
    8880022    1    1    2    0    0  0.13297955168E+03  0.62354843720E+03 -0.35148917824E+03  0.74393044711E+03  0.15294330000E+03 0.  0.
    8880022    1    1    2    0    0 -0.13297955168E+03 -0.62354843720E+03  0.12348652568E+04  0.13981344964E+04  0.15294330000E+03 0.  0.
<mgrwt>
<rscale>  0 0.65565835E+03</rscale>
<asrwt>0</asrwt>
<pdfrwt beam="1">  1        2 0.23272623E+00 0.65565835E+03</pdfrwt>
<pdfrwt beam="2">  1       -2 0.96822221E-01 0.65565835E+03</pdfrwt>
<totfact> 0.11560711E+01</totfact>
</mgrwt>
</event>
<event>
 4    1  0.2202466E-008  0.1045270E+04  0.7818608E-02  0.9260242E-01
          2   -1    0    0  501    0  0.00000000000E+00  0.00000000000E+00  0.18249076773E+04  0.18249076773E+04  0.25500000000E-02 0. -1.
         -2   -1    0    0    0  501 -0.00000000000E+00 -0.00000000000E+00 -0.15966980598E+04  0.15966980598E+04  0.25500000000E-02 0.  1.
    8880022    1    1    2    0    0 -0.70250526617E+03 -0.75873791547E+03  0.14666490389E+04  0.18010130287E+04  0.15294330000E+03 0.  0.
    8880022    1    1    2    0    0  0.70250526617E+03  0.75873791547E+03 -0.12384394213E+04  0.16205927084E+04  0.15294330000E+03 0.  0.
<mgrwt>
<rscale>  0 0.10452696E+04</rscale>
<asrwt>0</asrwt>
<pdfrwt beam="1">  1        2 0.28075503E+00 0.10452696E+04</pdfrwt>
<pdfrwt beam="2">  1       -2 0.24564585E+00 0.10452696E+04</pdfrwt>
<totfact> 0.56762905E-01</totfact>
</mgrwt>
</event>
<event>
 4    1  0.2202466E-008  0.8742299E+03  0.7818608E-02  0.9458381E-01
          2   -1    0    0  501    0  0.00000000000E+00  0.00000000000E+00  0.14265372377E+04  0.14265372377E+04  0.25500000000E-02 0. -1.
         -2   -1    0    0    0  501 -0.00000000000E+00 -0.00000000000E+00 -0.75843395910E+03  0.75843395911E+03  0.25500000000E-02 0.  1.
    8880022    1    1    2    0    0  0.30472141145E+03  0.80500383655E+03  0.92601390914E+03  0.12734911576E+04  0.15294330000E+03 0.  0.
    8880022    1    1    2    0    0 -0.30472141145E+03 -0.80500383655E+03 -0.25791063059E+03  0.91148003919E+03  0.15294330000E+03 0.  0.
<mgrwt>
<rscale>  0 0.87422993E+03</rscale>
<asrwt>0</asrwt>
<pdfrwt beam="1">  1        2 0.21946727E+00 0.87422993E+03</pdfrwt>
<pdfrwt beam="2">  1       -2 0.11668215E+00 0.87422993E+03</pdfrwt>
<totfact> 0.80117795E+00</totfact>
</mgrwt>
</event>
<event>
 4    1  0.2202466E-008  0.5487232E+03  0.7818608E-02  0.1001790E+00
         -2   -1    0    0    0  501 -0.00000000000E+00  0.00000000000E+00  0.30786895238E+03  0.30786895240E+03  0.25500000000E-02 0.  1.
          2   -1    0    0  501    0  0.00000000000E+00 -0.00000000000E+00 -0.16159513938E+04  0.16159513938E+04  0.25500000000E-02 0. -1.
    8880022    1    1    2    0    0 -0.47448562553E+03 -0.22927911548E+03 -0.49657600462E+02  0.55096556328E+03  0.15294330000E+03 0.  0.
    8880022    1    1    2    0    0  0.47448562553E+03  0.22927911548E+03 -0.12584248409E+04  0.13728547829E+04  0.15294330000E+03 0.  0.
<mgrwt>
<rscale>  0 0.54872322E+03</rscale>
<asrwt>0</asrwt>
<pdfrwt beam="1">  1        2 0.24860790E+00 0.54872322E+03</pdfrwt>
<pdfrwt beam="2">  1       -2 0.47364455E-01 0.54872322E+03</pdfrwt>
<totfact> 0.48478750E+01</totfact>
</mgrwt>
</event>
<event>
 4    1  0.2202466E-008  0.8069758E+03  0.7818608E-02  0.9549974E-01
          2   -1    0    0  501    0  0.00000000000E+00  0.00000000000E+00  0.45821166986E+04  0.45821166986E+04  0.25500000000E-02 0. -1.
         -2   -1    0    0    0  501 -0.00000000000E+00 -0.00000000000E+00 -0.16116994238E+03  0.16116994240E+03  0.25500000000E-02 0.  1.
    8880022    1    1    2    0    0 -0.51652128758E+03 -0.60085282718E+03  0.30258442764E+04  0.31316039977E+04  0.15294330000E+03 0.  0.
    8880022    1    1    2    0    0  0.51652128758E+03  0.60085282718E+03  0.13951024798E+04  0.16116826433E+04  0.15294330000E+03 0.  0.
<mgrwt>
<rscale>  0 0.80697584E+03</rscale>
<asrwt>0</asrwt>
<pdfrwt beam="1">  1        2 0.70494109E+00 0.80697584E+03</pdfrwt>
<pdfrwt beam="2">  1       -2 0.24795374E-01 0.80697584E+03</pdfrwt>
<totfact> 0.16675290E+00</totfact>
</mgrwt>
</event>
<event>
 4    1  0.2202466E-008  0.1061701E+04  0.7818608E-02  0.9243346E-01
          2   -1    0    0  501    0  0.00000000000E+00  0.00000000000E+00  0.20687594755E+04  0.20687594755E+04  0.25500000000E-02 0. -1.
         -2   -1    0    0    0  501 -0.00000000000E+00 -0.00000000000E+00 -0.69311191159E+03  0.69311191160E+03  0.25500000000E-02 0.  1.
    8880022    1    1    2    0    0 -0.66315781632E+03 -0.81488596099E+03  0.49186340096E+02  0.10628397658E+04  0.15294330000E+03 0.  0.
    8880022    1    1    2    0    0  0.66315781632E+03  0.81488596099E+03  0.13264612238E+04  0.16990316213E+04  0.15294330000E+03 0.  0.
<mgrwt>
<rscale>  0 0.10617010E+04</rscale>
<asrwt>0</asrwt>
<pdfrwt beam="1">  1        2 0.31827069E+00 0.10617010E+04</pdfrwt>
<pdfrwt beam="2">  1       -2 0.10663260E+00 0.10617010E+04</pdfrwt>
<totfact> 0.43041097E+00</totfact>
</mgrwt>
</event>
<event>
 4    1  0.2202466E-008  0.1406100E+04  0.7818608E-02  0.8949415E-01
          2   -1    0    0  501    0  0.00000000000E+00  0.00000000000E+00  0.18496862708E+04  0.18496862708E+04  0.25500000000E-02 0. -1.
         -2   -1    0    0    0  501 -0.00000000000E+00 -0.00000000000E+00 -0.14159974179E+04  0.14159974179E+04  0.25500000000E-02 0.  1.
    8880022    1    1    2    0    0  0.12963739629E+04  0.52262694589E+03  0.10252758585E+04  0.17402030385E+04  0.15294330000E+03 0.  0.
    8880022    1    1    2    0    0 -0.12963739629E+04 -0.52262694589E+03 -0.59158700557E+03  0.15254806503E+04  0.15294330000E+03 0.  0.
<mgrwt>
<rscale>  0 0.14060996E+04</rscale>
<asrwt>0</asrwt>
<pdfrwt beam="1">  1        2 0.28456712E+00 0.14060996E+04</pdfrwt>
<pdfrwt beam="2">  1       -2 0.21784576E+00 0.14060996E+04</pdfrwt>
<totfact> 0.78305784E-01</totfact>
</mgrwt>
</event>
<event>
 4    1  0.2202466E-008  0.1987878E+04  0.7818608E-02  0.8612309E-01
          2   -1    0    0  501    0  0.00000000000E+00  0.00000000000E+00  0.34888071606E+04  0.34888071606E+04  0.25500000000E-02 0. -1.
         -2   -1    0    0    0  501 -0.00000000000E+00 -0.00000000000E+00 -0.12719395888E+04  0.12719395888E+04  0.25500000000E-02 0.  1.
    8880022    1    1    2    0    0 -0.52921724676E+03  0.19100247656E+04  0.18961041061E+04  0.27471563359E+04  0.15294330000E+03 0.  0.
    8880022    1    1    2    0    0  0.52921724676E+03 -0.19100247656E+04  0.32076346567E+03  0.20135904135E+04  0.15294330000E+03 0.  0.
<mgrwt>
<rscale>  0 0.19878775E+04</rscale>
<asrwt>0</asrwt>
<pdfrwt beam="1">  1        2 0.53673956E+00 0.19878775E+04</pdfrwt>
<pdfrwt beam="2">  1       -2 0.19568301E+00 0.19878775E+04</pdfrwt>
<totfact> 0.10531332E-01</totfact>
</mgrwt>
</event>
<event>
 4    1  0.2202466E-008  0.1412698E+04  0.7818608E-02  0.8944678E-01
         -2   -1    0    0    0  501 -0.00000000000E+00  0.00000000000E+00  0.74608849898E+03  0.74608849898E+03  0.25500000000E-02 0.  1.
          2   -1    0    0  501    0  0.00000000000E+00 -0.00000000000E+00 -0.34966627854E+04  0.34966627854E+04  0.25500000000E-02 0. -1.
    8880022    1    1    2    0    0  0.10044322831E+04 -0.98154986094E+03 -0.24036883253E+04  0.27880877962E+04  0.15294330000E+03 0.  0.
    8880022    1    1    2    0    0 -0.10044322831E+04  0.98154986094E+03 -0.34688596104E+03  0.14546634882E+04  0.15294330000E+03 0.  0.
<mgrwt>
<rscale>  0 0.14126981E+04</rscale>
<asrwt>0</asrwt>
<pdfrwt beam="1">  1        2 0.53794812E+00 0.14126981E+04</pdfrwt>
<pdfrwt beam="2">  1       -2 0.11478285E+00 0.14126981E+04</pdfrwt>
<totfact> 0.46938171E-01</totfact>
</mgrwt>
</event>
<event>
 4    1  0.2202466E-008  0.1148671E+04  0.7818608E-02  0.9159010E-01
          2   -1    0    0  501    0  0.00000000000E+00  0.00000000000E+00  0.20851315456E+04  0.20851315456E+04  0.25500000000E-02 0. -1.
         -2   -1    0    0    0  501 -0.00000000000E+00 -0.00000000000E+00 -0.20890995684E+04  0.20890995684E+04  0.25500000000E-02 0.  1.
    8880022    1    1    2    0    0  0.68381709431E+03  0.91019153793E+03 -0.17445694609E+04  0.20887720582E+04  0.15294330000E+03 0.  0.
    8880022    1    1    2    0    0 -0.68381709431E+03 -0.91019153793E+03  0.17406014381E+04  0.20854590558E+04  0.15294330000E+03 0.  0.
<mgrwt>
<rscale>  0 0.11486715E+04</rscale>
<asrwt>0</asrwt>
<pdfrwt beam="1">  1        2 0.32078947E+00 0.11486715E+04</pdfrwt>
<pdfrwt beam="2">  1       -2 0.32139994E+00 0.11486715E+04</pdfrwt>
<totfact> 0.13887070E-01</totfact>
</mgrwt>
</event>
<event>
 4    1  0.2202466E-008  0.1317445E+04  0.7818608E-02  0.9015844E-01
          2   -1    0    0  501    0  0.00000000000E+00  0.00000000000E+00  0.86987469405E+03  0.86987469405E+03  0.25500000000E-02 0. -1.
         -2   -1    0    0    0  501 -0.00000000000E+00 -0.00000000000E+00 -0.22934232967E+04  0.22934232967E+04  0.25500000000E-02 0.  1.
    8880022    1    1    2    0    0 -0.46817713805E+03  0.12219166150E+04 -0.12820243780E+04  0.18382731586E+04  0.15294330000E+03 0.  0.
    8880022    1    1    2    0    0  0.46817713805E+03 -0.12219166150E+04 -0.14152422461E+03  0.13250248322E+04  0.15294330000E+03 0.  0.
<mgrwt>
<rscale>  0 0.13174451E+04</rscale>
<asrwt>0</asrwt>
<pdfrwt beam="1">  1        2 0.13382688E+00 0.13174451E+04</pdfrwt>
<pdfrwt beam="2">  1       -2 0.35283435E+00 0.13174451E+04</pdfrwt>
<totfact> 0.44560677E-01</totfact>
</mgrwt>
</event>
<event>
 4    1  0.2202466E-008  0.5906611E+03  0.7818608E-02  0.9924973E-01
         -2   -1    0    0    0  501 -0.00000000000E+00  0.00000000000E+00  0.44536958906E+03  0.44536958907E+03  0.25500000000E-02 0.  1.
          2   -1    0    0  501    0  0.00000000000E+00 -0.00000000000E+00 -0.10811604968E+04  0.10811604968E+04  0.25500000000E-02 0. -1.
    8880022    1    1    2    0    0  0.29515051691E+03 -0.48823664525E+03  0.82694361849E+02  0.59642171313E+03  0.15294330000E+03 0.  0.
    8880022    1    1    2    0    0 -0.29515051691E+03  0.48823664525E+03 -0.71848526958E+03  0.93010837273E+03  0.15294330000E+03 0.  0.
<mgrwt>
<rscale>  0 0.59066107E+03</rscale>
<asrwt>0</asrwt>
<pdfrwt beam="1">  1        2 0.16633238E+00 0.59066107E+03</pdfrwt>
<pdfrwt beam="2">  1       -2 0.68518399E-01 0.59066107E+03</pdfrwt>
<totfact> 0.45051062E+01</totfact>
</mgrwt>
</event>
<event>
 4    1  0.2202466E-008  0.3887346E+03  0.7818608E-02  0.1047752E+00
          2   -1    0    0  501    0  0.00000000000E+00  0.00000000000E+00  0.33995619937E+04  0.33995619937E+04  0.25500000000E-02 0. -1.
         -2   -1    0    0    0  501 -0.00000000000E+00 -0.00000000000E+00 -0.20814155287E+03  0.20814155289E+03  0.25500000000E-02 0.  1.
    8880022    1    1    2    0    0  0.35594948491E+03  0.31982382171E+02 -0.39694069007E+01  0.38875482991E+03  0.15294330000E+03 0.  0.
    8880022    1    1    2    0    0 -0.35594948491E+03 -0.31982382171E+02  0.31953898477E+04  0.32189487167E+04  0.15294330000E+03 0.  0.
<mgrwt>
<rscale>  0 0.38873456E+03</rscale>
<asrwt>0</asrwt>
<pdfrwt beam="1">  1        2 0.52300948E+00 0.38873456E+03</pdfrwt>
<pdfrwt beam="2">  1       -2 0.32021781E-01 0.38873456E+03</pdfrwt>
<totfact> 0.10255476E+01</totfact>
</mgrwt>
</event>
<event>
 4    1  0.2202466E-008  0.9948210E+03  0.7818608E-02  0.9314243E-01
         -2   -1    0    0    0  501 -0.00000000000E+00  0.00000000000E+00  0.14356344262E+04  0.14356344262E+04  0.25500000000E-02 0.  1.
          2   -1    0    0  501    0  0.00000000000E+00 -0.00000000000E+00 -0.72905894904E+03  0.72905894904E+03  0.25500000000E-02 0. -1.
    8880022    1    1    2    0    0 -0.92805884557E+03  0.32401227944E+03  0.10072166065E+03  0.99990683767E+03  0.15294330000E+03 0.  0.
    8880022    1    1    2    0    0  0.92805884557E+03 -0.32401227944E+03  0.60585381648E+03  0.11647865375E+04  0.15294330000E+03 0.  0.
<mgrwt>
<rscale>  0 0.99482100E+03</rscale>
<asrwt>0</asrwt>
<pdfrwt beam="1">  1        2 0.11216292E+00 0.99482100E+03</pdfrwt>
<pdfrwt beam="2">  1       -2 0.22086683E+00 0.99482100E+03</pdfrwt>
<totfact> 0.37786609E+00</totfact>
</mgrwt>
</event>
<event>
 4    1  0.2202466E-008  0.7778152E+03  0.7818608E-02  0.9592696E-01
         -2   -1    0    0    0  501 -0.00000000000E+00  0.00000000000E+00  0.68136989813E+03  0.68136989814E+03  0.25500000000E-02 0.  1.
          2   -1    0    0  501    0  0.00000000000E+00 -0.00000000000E+00 -0.16912966415E+04  0.16912966415E+04  0.25500000000E-02 0. -1.
    8880022    1    1    2    0    0 -0.74593636915E+03 -0.15869411740E+03  0.31266991909E+03  0.83830723547E+03  0.15294330000E+03 0.  0.
    8880022    1    1    2    0    0  0.74593636915E+03  0.15869411740E+03 -0.13225966624E+04  0.15343593041E+04  0.15294330000E+03 0.  0.
<mgrwt>
<rscale>  0 0.77781524E+03</rscale>
<asrwt>0</asrwt>
<pdfrwt beam="1">  1        2 0.26019948E+00 0.77781524E+03</pdfrwt>
<pdfrwt beam="2">  1       -2 0.10482614E+00 0.77781524E+03</pdfrwt>
<totfact> 0.74987916E+00</totfact>
</mgrwt>
</event>
<event>
 4    1  0.2202466E-008  0.1566695E+04  0.7818608E-02  0.8841274E-01
          2   -1    0    0  501    0  0.00000000000E+00  0.00000000000E+00  0.13730652235E+04  0.13730652235E+04  0.25500000000E-02 0. -1.
         -2   -1    0    0    0  501 -0.00000000000E+00 -0.00000000000E+00 -0.23950116661E+04  0.23950116661E+04  0.25500000000E-02 0.  1.
    8880022    1    1    2    0    0 -0.18586083387E+03  0.15480946646E+04 -0.14597557462E+04  0.21413593420E+04  0.15294330000E+03 0.  0.
    8880022    1    1    2    0    0  0.18586083387E+03 -0.15480946646E+04  0.43780930359E+03  0.16267175475E+04  0.15294330000E+03 0.  0.
<mgrwt>
<rscale>  0 0.15666949E+04</rscale>
<asrwt>0</asrwt>
<pdfrwt beam="1">  1        2 0.21124080E+00 0.15666949E+04</pdfrwt>
<pdfrwt beam="2">  1       -2 0.36846333E+00 0.15666949E+04</pdfrwt>
<totfact> 0.16682565E-01</totfact>
</mgrwt>
</event>
<event>
 4    1  0.2202466E-008  0.2396985E+03  0.7818608E-02  0.1119994E+00
          2   -1    0    0  501    0  0.00000000000E+00  0.00000000000E+00  0.35009656516E+03  0.35009656517E+03  0.25500000000E-02 0. -1.
         -2   -1    0    0    0  501 -0.00000000000E+00 -0.00000000000E+00 -0.79584680808E+03  0.79584680808E+03  0.25500000000E-02 0.  1.
    8880022    1    1    2    0    0 -0.14922265451E+03  0.10861078118E+03 -0.73336310493E+03  0.77154183237E+03  0.15294330000E+03 0.  1.
    8880022    1    1    2    0    0  0.14922265451E+03 -0.10861078118E+03  0.28761286201E+03  0.37440154089E+03  0.15294330000E+03 0.  0.
<mgrwt>
<rscale>  0 0.23969847E+03</rscale>
<asrwt>0</asrwt>
<pdfrwt beam="1">  1        2 0.53861010E-01 0.23969847E+03</pdfrwt>
<pdfrwt beam="2">  1       -2 0.12243797E+00 0.23969847E+03</pdfrwt>
<totfact> 0.49613041E+01</totfact>
</mgrwt>
</event>
<event>
 4    1  0.2202466E-008  0.5063373E+03  0.7818608E-02  0.1012138E+00
         -2   -1    0    0    0  501 -0.00000000000E+00  0.00000000000E+00  0.19544112183E+03  0.19544112185E+03  0.25500000000E-02 0.  1.
          2   -1    0    0  501    0  0.00000000000E+00 -0.00000000000E+00 -0.26013775545E+04  0.26013775545E+04  0.25500000000E-02 0. -1.
    8880022    1    1    2    0    0 -0.13564640120E+03  0.46323412967E+03 -0.21875646402E+04  0.22453989653E+04  0.15294330000E+03 0.  0.
    8880022    1    1    2    0    0  0.13564640120E+03 -0.46323412967E+03 -0.21837179247E+03  0.55141971112E+03  0.15294330000E+03 0.  0.
<mgrwt>
<rscale>  0 0.50633730E+03</rscale>
<asrwt>0</asrwt>
<pdfrwt beam="1">  1        2 0.40021191E+00 0.50633730E+03</pdfrwt>
<pdfrwt beam="2">  1       -2 0.30067867E-01 0.50633730E+03</pdfrwt>
<totfact> 0.33847928E+01</totfact>
</mgrwt>
</event>
<event>
 4    1  0.2202466E-008  0.1198824E+04  0.7818608E-02  0.9113886E-01
          2   -1    0    0  501    0  0.00000000000E+00  0.00000000000E+00  0.16457225986E+04  0.16457225986E+04  0.25500000000E-02 0. -1.
         -2   -1    0    0    0  501 -0.00000000000E+00 -0.00000000000E+00 -0.13688200294E+04  0.13688200294E+04  0.25500000000E-02 0.  1.
    8880022    1    1    2    0    0 -0.54219445319E+02 -0.11877914246E+04 -0.76844321299E+03  0.14239679916E+04  0.15294330000E+03 0.  0.
    8880022    1    1    2    0    0  0.54219445319E+02  0.11877914246E+04  0.10453457822E+04  0.15905746364E+04  0.15294330000E+03 0.  0.
<mgrwt>
<rscale>  0 0.11988244E+04</rscale>
<asrwt>0</asrwt>
<pdfrwt beam="1">  1        2 0.25318809E+00 0.11988244E+04</pdfrwt>
<pdfrwt beam="2">  1       -2 0.21058770E+00 0.11988244E+04</pdfrwt>
<totfact> 0.11581233E+00</totfact>
</mgrwt>
</event>
<event>
 4    1  0.2202466E-008  0.2650692E+03  0.7818608E-02  0.1104135E+00
          2   -1    0    0  501    0  0.00000000000E+00  0.00000000000E+00  0.73205376427E+03  0.73205376428E+03  0.25500000000E-02 0. -1.
         -2   -1    0    0    0  501 -0.00000000000E+00 -0.00000000000E+00 -0.47868170962E+03  0.47868170963E+03  0.25500000000E-02 0.  1.
    8880022    1    1    2    0    0 -0.77993428021E+02  0.20195799385E+03  0.66797193879E+03  0.71864328434E+03  0.15294330000E+03 0.  0.
    8880022    1    1    2    0    0  0.77993428021E+02 -0.20195799385E+03 -0.41459988414E+03  0.49209218957E+03  0.15294330000E+03 0.  0.
<mgrwt>
<rscale>  0 0.26506916E+03</rscale>
<asrwt>0</asrwt>
<pdfrwt beam="1">  1        2 0.11262366E+00 0.26506916E+03</pdfrwt>
<pdfrwt beam="2">  1       -2 0.73643340E-01 0.26506916E+03</pdfrwt>
<totfact> 0.68814008E+01</totfact>
</mgrwt>
</event>
<event>
 4    1  0.3073674E-008  0.1657189E+04  0.7818608E-02  0.8786165E-01
          2   -1    0    0  501    0  0.00000000000E+00  0.00000000000E+00  0.20795444549E+04  0.20795444549E+04  0.25500000000E-02 0. -1.
         -2   -1    0    0    0  501 -0.00000000000E+00 -0.00000000000E+00 -0.20013866452E+04  0.20013866452E+04  0.25500000000E-02 0.  1.
    8880022    1    1    2    0    0  0.11224871998E+04 -0.12095071761E+04 -0.11509694926E+04  0.20176737964E+04  0.15294330000E+03 0.  0.
    8880022    1    1    2    0    0 -0.11224871998E+04  0.12095071761E+04  0.12291273024E+04  0.20632573037E+04  0.15294330000E+03 0.  0.
<mgrwt>
<rscale>  0 0.16571894E+04</rscale>
<asrwt>0</asrwt>
<pdfrwt beam="1">  1        2 0.31992992E+00 0.16571894E+04</pdfrwt>
<pdfrwt beam="2">  1       -2 0.30790564E+00 0.16571894E+04</pdfrwt>
<totfact> 0.15792197E-01</totfact>
</mgrwt>
</event>
<event>
 4    1  0.2202466E-008  0.4625563E+03  0.7818608E-02  0.1024042E+00
         -2   -1    0    0    0  501 -0.00000000000E+00  0.00000000000E+00  0.33194298090E+03  0.33194298091E+03  0.25500000000E-02 0.  1.
          2   -1    0    0  501    0  0.00000000000E+00 -0.00000000000E+00 -0.13295559250E+04  0.13295559250E+04  0.25500000000E-02 0. -1.
    8880022    1    1    2    0    0 -0.33829640258E+03  0.27590252224E+03  0.97486459793E+02  0.47271759078E+03  0.15294330000E+03 0.  0.
    8880022    1    1    2    0    0  0.33829640258E+03 -0.27590252224E+03 -0.10950994039E+04  0.11887813151E+04  0.15294330000E+03 0.  0.
<mgrwt>
<rscale>  0 0.46255628E+03</rscale>
<asrwt>0</asrwt>
<pdfrwt beam="1">  1        2 0.20454706E+00 0.46255628E+03</pdfrwt>
<pdfrwt beam="2">  1       -2 0.51068152E-01 0.46255628E+03</pdfrwt>
<totfact> 0.60738346E+01</totfact>
</mgrwt>
</event>
<event>
 4    1  0.2202466E-008  0.1345850E+04  0.7818608E-02  0.8993976E-01
          2   -1    0    0  501    0  0.00000000000E+00  0.00000000000E+00  0.37285130470E+04  0.37285130470E+04  0.25500000000E-02 0. -1.
         -2   -1    0    0    0  501 -0.00000000000E+00 -0.00000000000E+00 -0.12871263547E+04  0.12871263547E+04  0.25500000000E-02 0.  1.
    8880022    1    1    2    0    0 -0.84192706213E+03 -0.10387870301E+04  0.31994411886E+04  0.34709847658E+04  0.15294330000E+03 0.  0.
    8880022    1    1    2    0    0  0.84192706213E+03  0.10387870301E+04 -0.75805449630E+03  0.15446546359E+04  0.15294330000E+03 0.  0.
<mgrwt>
<rscale>  0 0.13458497E+04</rscale>
<asrwt>0</asrwt>
<pdfrwt beam="1">  1        2 0.57361739E+00 0.13458497E+04</pdfrwt>
<pdfrwt beam="2">  1       -2 0.19801944E+00 0.13458497E+04</pdfrwt>
<totfact> 0.74199433E-02</totfact>
</mgrwt>
</event>
<event>
 4    1  0.2202466E-008  0.5804682E+03  0.7818608E-02  0.9946778E-01
         -2   -1    0    0    0  501 -0.00000000000E+00  0.00000000000E+00  0.13691268370E+04  0.13691268370E+04  0.25500000000E-02 0.  1.
          2   -1    0    0  501    0  0.00000000000E+00 -0.00000000000E+00 -0.69895281339E+03  0.69895281339E+03  0.25500000000E-02 0. -1.
    8880022    1    1    2    0    0 -0.42959240290E+02  0.55830647937E+03  0.11674091877E+04  0.13037589830E+04  0.15294330000E+03 0.  0.
    8880022    1    1    2    0    0  0.42959240290E+02 -0.55830647937E+03 -0.49723516406E+03  0.76432066741E+03  0.15294330000E+03 0.  0.
<mgrwt>
<rscale>  0 0.58046815E+03</rscale>
<asrwt>0</asrwt>
<pdfrwt beam="1">  1        2 0.10753120E+00 0.58046815E+03</pdfrwt>
<pdfrwt beam="2">  1       -2 0.21063490E+00 0.58046815E+03</pdfrwt>
<totfact> 0.48850542E+00</totfact>
</mgrwt>
</event>
<event>
 4    1  0.2202466E-008  0.8456311E+03  0.7818608E-02  0.9496220E-01
         -2   -1    0    0    0  501 -0.00000000000E+00  0.00000000000E+00  0.48854952201E+03  0.48854952201E+03  0.25500000000E-02 0.  1.
          2   -1    0    0  501    0  0.00000000000E+00 -0.00000000000E+00 -0.16658452444E+04  0.16658452444E+04  0.25500000000E-02 0. -1.
    8880022    1    1    2    0    0  0.54718877938E+03 -0.62632635844E+03 -0.96388460816E+03  0.12822501544E+04  0.15294330000E+03 0.  0.
    8880022    1    1    2    0    0 -0.54718877938E+03  0.62632635844E+03 -0.21341111421E+03  0.87214461201E+03  0.15294330000E+03 0.  0.
<mgrwt>
<rscale>  0 0.84563108E+03</rscale>
<asrwt>0</asrwt>
<pdfrwt beam="1">  1        2 0.25628388E+00 0.84563108E+03</pdfrwt>
<pdfrwt beam="2">  1       -2 0.75161466E-01 0.84563108E+03</pdfrwt>
<totfact> 0.16532422E+01</totfact>
</mgrwt>
</event>
<event>
 4    1  0.2202466E-008  0.8915256E+03  0.7818608E-02  0.9436237E-01
          2   -1    0    0  501    0  0.00000000000E+00  0.00000000000E+00  0.28965507460E+04  0.28965507460E+04  0.25500000000E-02 0. -1.
         -2   -1    0    0    0  501 -0.00000000000E+00 -0.00000000000E+00 -0.38524596649E+03  0.38524596650E+03  0.25500000000E-02 0.  1.
    8880022    1    1    2    0    0  0.16548047627E+03 -0.86257898482E+03  0.21358285202E+04  0.23144289606E+04  0.15294330000E+03 0.  0.
    8880022    1    1    2    0    0 -0.16548047627E+03  0.86257898482E+03  0.37547625933E+03  0.96736775190E+03  0.15294330000E+03 0.  0.
<mgrwt>
<rscale>  0 0.89152563E+03</rscale>
<asrwt>0</asrwt>
<pdfrwt beam="1">  1        2 0.44562320E+00 0.89152563E+03</pdfrwt>
<pdfrwt beam="2">  1       -2 0.59268609E-01 0.89152563E+03</pdfrwt>
<totfact> 0.55631060E+00</totfact>
</mgrwt>
</event>
<event>
 4    1  0.2202466E-008  0.7704293E+03  0.7818608E-02  0.9603834E-01
          2   -1    0    0  501    0  0.00000000000E+00  0.00000000000E+00  0.16502894756E+04  0.16502894756E+04  0.25500000000E-02 0. -1.
         -2   -1    0    0    0  501 -0.00000000000E+00 -0.00000000000E+00 -0.14038235675E+04  0.14038235675E+04  0.25500000000E-02 0.  1.
    8880022    1    1    2    0    0  0.48043696425E+03 -0.58253754935E+03 -0.11937520210E+04  0.14207762715E+04  0.15294330000E+03 0.  0.
    8880022    1    1    2    0    0 -0.48043696425E+03  0.58253754935E+03  0.14402179291E+04  0.16333367716E+04  0.15294330000E+03 0.  0.
<mgrwt>
<rscale>  0 0.77042931E+03</rscale>
<asrwt>0</asrwt>
<pdfrwt beam="1">  1        2 0.25389069E+00 0.77042931E+03</pdfrwt>
<pdfrwt beam="2">  1       -2 0.21597286E+00 0.77042931E+03</pdfrwt>
<totfact> 0.11333988E+00</totfact>
</mgrwt>
</event>
<event>
 4    1  0.2202466E-008  0.6664053E+03  0.7818608E-02  0.9776474E-01
          2   -1    0    0  501    0  0.00000000000E+00  0.00000000000E+00  0.22332637852E+04  0.22332637852E+04  0.25500000000E-02 0. -1.
         -2   -1    0    0    0  501 -0.00000000000E+00 -0.00000000000E+00 -0.34602889290E+03  0.34602889291E+03  0.25500000000E-02 0.  1.
    8880022    1    1    2    0    0  0.13609282957E+03  0.63417905469E+03  0.17846825783E+04  0.19050427528E+04  0.15294330000E+03 0.  0.
    8880022    1    1    2    0    0 -0.13609282957E+03 -0.63417905469E+03  0.10255231399E+03  0.67424992531E+03  0.15294330000E+03 0.  0.
<mgrwt>
<rscale>  0 0.66640527E+03</rscale>
<asrwt>0</asrwt>
<pdfrwt beam="1">  1        2 0.34357905E+00 0.66640527E+03</pdfrwt>
<pdfrwt beam="2">  1       -2 0.53235214E-01 0.66640527E+03</pdfrwt>
<totfact> 0.17335997E+01</totfact>
</mgrwt>
</event>
<event>
 4    1  0.2202466E-008  0.3400722E+03  0.7818608E-02  0.1066765E+00
         -2   -1    0    0    0  501 -0.00000000000E+00  0.00000000000E+00  0.14556455354E+03  0.14556455356E+03  0.25500000000E-02 0.  1.
          2   -1    0    0  501    0  0.00000000000E+00 -0.00000000000E+00 -0.22686046544E+04  0.22686046544E+04  0.25500000000E-02 0. -1.
    8880022    1    1    2    0    0  0.29495940404E+03  0.72501014165E+02 -0.88494104670E+02  0.35139764749E+03  0.15294330000E+03 0.  1.
    8880022    1    1    2    0    0 -0.29495940404E+03 -0.72501014165E+02 -0.20345459962E+04  0.20627715605E+04  0.15294330000E+03 0.  0.
<mgrwt>
<rscale>  0 0.34007220E+03</rscale>
<asrwt>0</asrwt>
<pdfrwt beam="1">  1        2 0.34901607E+00 0.34007220E+03</pdfrwt>
<pdfrwt beam="2">  1       -2 0.22394548E-01 0.34007220E+03</pdfrwt>
<totfact> 0.91305874E+01</totfact>
</mgrwt>
</event>
<event>
 4    1  0.2202466E-008  0.8538656E+03  0.7818608E-02  0.9485163E-01
          2   -1    0    0  501    0  0.00000000000E+00  0.00000000000E+00  0.29158578159E+04  0.29158578159E+04  0.25500000000E-02 0. -1.
         -2   -1    0    0    0  501 -0.00000000000E+00 -0.00000000000E+00 -0.22652155299E+04  0.22652155299E+04  0.25500000000E-02 0.  1.
    8880022    1    1    2    0    0  0.82730732004E+03 -0.14579947691E+03  0.27687022894E+04  0.28973779369E+04  0.15294330000E+03 0.  0.
    8880022    1    1    2    0    0 -0.82730732004E+03  0.14579947691E+03 -0.21180600034E+04  0.22836954088E+04  0.15294330000E+03 0.  0.
<mgrwt>
<rscale>  0 0.85386565E+03</rscale>
<asrwt>0</asrwt>
<pdfrwt beam="1">  1        2 0.44859351E+00 0.85386565E+03</pdfrwt>
<pdfrwt beam="2">  1       -2 0.34849470E+00 0.85386565E+03</pdfrwt>
<totfact> 0.33567383E-02</totfact>
</mgrwt>
</event>
<event>
 4    1  0.2202466E-008  0.7031708E+03  0.7818608E-02  0.9711825E-01
          2   -1    0    0  501    0  0.00000000000E+00  0.00000000000E+00  0.23032487945E+04  0.23032487945E+04  0.25500000000E-02 0. -1.
         -2   -1    0    0    0  501 -0.00000000000E+00 -0.00000000000E+00 -0.59217643039E+03  0.59217643039E+03  0.25500000000E-02 0.  1.
    8880022    1    1    2    0    0 -0.55648909503E+03  0.40171809416E+03 -0.30035322880E+03  0.76463145052E+03  0.15294330000E+03 0.  1.
    8880022    1    1    2    0    0  0.55648909503E+03 -0.40171809416E+03  0.20114255929E+04  0.21307937744E+04  0.15294330000E+03 0.  0.
<mgrwt>
<rscale>  0 0.70317081E+03</rscale>
<asrwt>0</asrwt>
<pdfrwt beam="1">  1        2 0.35434596E+00 0.70317081E+03</pdfrwt>
<pdfrwt beam="2">  1       -2 0.91104067E-01 0.70317081E+03</pdfrwt>
<totfact> 0.48838832E+00</totfact>
</mgrwt>
</event>
<event>
 4    1  0.2202466E-008  0.1399352E+04  0.7818608E-02  0.8954287E-01
         -2   -1    0    0    0  501 -0.00000000000E+00  0.00000000000E+00  0.13236640899E+04  0.13236640899E+04  0.25500000000E-02 0.  1.
          2   -1    0    0  501    0  0.00000000000E+00 -0.00000000000E+00 -0.30513853327E+04  0.30513853327E+04  0.25500000000E-02 0. -1.
    8880022    1    1    2    0    0  0.13737737149E+04  0.21803968694E+03  0.70625998630E+03  0.15674789779E+04  0.15294330000E+03 0.  0.
    8880022    1    1    2    0    0 -0.13737737149E+04 -0.21803968694E+03 -0.24339812291E+04  0.28075704446E+04  0.15294330000E+03 0.  0.
<mgrwt>
<rscale>  0 0.13993524E+04</rscale>
<asrwt>0</asrwt>
<pdfrwt beam="1">  1        2 0.46944389E+00 0.13993524E+04</pdfrwt>
<pdfrwt beam="2">  1       -2 0.20364063E+00 0.13993524E+04</pdfrwt>
<totfact> 0.19436666E-01</totfact>
</mgrwt>
</event>
<event>
 4    1  0.2202466E-008  0.4425865E+03  0.7818608E-02  0.1029956E+00
         -2   -1    0    0    0  501 -0.00000000000E+00  0.00000000000E+00  0.18945139739E+04  0.18945139739E+04  0.25500000000E-02 0.  1.
          2   -1    0    0  501    0  0.00000000000E+00 -0.00000000000E+00 -0.76135130481E+03  0.76135130481E+03  0.25500000000E-02 0. -1.
    8880022    1    1    2    0    0 -0.22903058252E+03 -0.34646237787E+03 -0.66789309672E+03  0.80122657761E+03  0.15294330000E+03 0.  0.
    8880022    1    1    2    0    0  0.22903058252E+03  0.34646237787E+03  0.18010557659E+04  0.18546387011E+04  0.15294330000E+03 0.  0.
<mgrwt>
<rscale>  0 0.44258653E+03</rscale>
<asrwt>0</asrwt>
<pdfrwt beam="1">  1        2 0.11713097E+00 0.44258653E+03</pdfrwt>
<pdfrwt beam="2">  1       -2 0.29146369E+00 0.44258653E+03</pdfrwt>
<totfact> 0.14719434E+00</totfact>
</mgrwt>
</event>
<event>
 4    1  0.2202466E-008  0.6514501E+03  0.7818608E-02  0.9804062E-01
         -2   -1    0    0    0  501 -0.00000000000E+00  0.00000000000E+00  0.36111281386E+03  0.36111281387E+03  0.25500000000E-02 0.  1.
          2   -1    0    0  501    0  0.00000000000E+00 -0.00000000000E+00 -0.37874949676E+04  0.37874949676E+04  0.25500000000E-02 0. -1.
    8880022    1    1    2    0    0  0.27999529485E+03  0.56797732921E+03 -0.34358755265E+04  0.34970884888E+04  0.15294330000E+03 0.  0.
    8880022    1    1    2    0    0 -0.27999529485E+03 -0.56797732921E+03  0.94933727655E+01  0.65151929271E+03  0.15294330000E+03 0.  0.
<mgrwt>
<rscale>  0 0.65145012E+03</rscale>
<asrwt>0</asrwt>
<pdfrwt beam="1">  1        2 0.58269151E+00 0.65145012E+03</pdfrwt>
<pdfrwt beam="2">  1       -2 0.55555820E-01 0.65145012E+03</pdfrwt>
<totfact> 0.17247002E+00</totfact>
</mgrwt>
</event>
<event>
 4    1  0.2202466E-008  0.1598487E+04  0.7818608E-02  0.8821478E-01
          2   -1    0    0  501    0  0.00000000000E+00  0.00000000000E+00  0.16904681587E+04  0.16904681587E+04  0.25500000000E-02 0. -1.
         -2   -1    0    0    0  501 -0.00000000000E+00 -0.00000000000E+00 -0.17548632372E+04  0.17548632372E+04  0.25500000000E-02 0.  1.
    8880022    1    1    2    0    0  0.80213723720E+03  0.13741703129E+04 -0.67369916547E+03  0.17346557050E+04  0.15294330000E+03 0.  0.
    8880022    1    1    2    0    0 -0.80213723720E+03 -0.13741703129E+04  0.60930408698E+03  0.17106756910E+04  0.15294330000E+03 0.  0.
<mgrwt>
<rscale>  0 0.15984867E+04</rscale>
<asrwt>0</asrwt>
<pdfrwt beam="1">  1        2 0.26007202E+00 0.15984867E+04</pdfrwt>
<pdfrwt beam="2">  1       -2 0.26997896E+00 0.15984867E+04</pdfrwt>
<totfact> 0.44737121E-01</totfact>
</mgrwt>
</event>
<event>
 4    1  0.2202466E-008  0.1517411E+04  0.7818608E-02  0.8872957E-01
         -2   -1    0    0    0  501 -0.00000000000E+00  0.00000000000E+00  0.13542455381E+04  0.13542455381E+04  0.25500000000E-02 0.  1.
          2   -1    0    0  501    0  0.00000000000E+00 -0.00000000000E+00 -0.20884402330E+04  0.20884402330E+04  0.25500000000E-02 0. -1.
    8880022    1    1    2    0    0 -0.14428828994E+04 -0.44410860317E+03  0.37504508115E+03  0.15630719685E+04  0.15294330000E+03 0.  0.
    8880022    1    1    2    0    0  0.14428828994E+04  0.44410860317E+03 -0.11092397760E+04  0.18796138025E+04  0.15294330000E+03 0.  0.
<mgrwt>
<rscale>  0 0.15174107E+04</rscale>
<asrwt>0</asrwt>
<pdfrwt beam="1">  1        2 0.32129850E+00 0.15174107E+04</pdfrwt>
<pdfrwt beam="2">  1       -2 0.20834547E+00 0.15174107E+04</pdfrwt>
<totfact> 0.65582167E-01</totfact>
</mgrwt>
</event>
<event>
 4    1  0.2202466E-008  0.9119769E+03  0.7818608E-02  0.9410732E-01
         -2   -1    0    0    0  501 -0.00000000000E+00  0.00000000000E+00  0.11372562298E+04  0.11372562298E+04  0.25500000000E-02 0.  1.
          2   -1    0    0  501    0  0.00000000000E+00 -0.00000000000E+00 -0.11145375080E+04  0.11145375080E+04  0.25500000000E-02 0. -1.
    8880022    1    1    2    0    0  0.24084591721E+03 -0.86620063670E+03  0.67155413429E+03  0.11325576838E+04  0.15294330000E+03 0.  0.
    8880022    1    1    2    0    0 -0.24084591721E+03  0.86620063670E+03 -0.64883541248E+03  0.11192360539E+04  0.15294330000E+03 0.  0.
<mgrwt>
<rscale>  0 0.91197695E+03</rscale>
<asrwt>0</asrwt>
<pdfrwt beam="1">  1        2 0.17146731E+00 0.91197695E+03</pdfrwt>
<pdfrwt beam="2">  1       -2 0.17496250E+00 0.91197695E+03</pdfrwt>
<totfact> 0.41999884E+00</totfact>
</mgrwt>
</event>
<event>
 4    1  0.2202466E-008  0.8604547E+03  0.7818608E-02  0.9476411E-01
          2   -1    0    0  501    0  0.00000000000E+00  0.00000000000E+00  0.17376421273E+04  0.17376421273E+04  0.25500000000E-02 0. -1.
         -2   -1    0    0    0  501 -0.00000000000E+00 -0.00000000000E+00 -0.88507131107E+03  0.88507131108E+03  0.25500000000E-02 0.  1.
    8880022    1    1    2    0    0 -0.23765924451E+03 -0.81271684468E+03  0.13706329511E+04  0.16183377045E+04  0.15294330000E+03 0.  0.
    8880022    1    1    2    0    0  0.23765924451E+03  0.81271684468E+03 -0.51806213490E+03  0.10043757339E+04  0.15294330000E+03 0.  0.
<mgrwt>
<rscale>  0 0.86045467E+03</rscale>
<asrwt>0</asrwt>
<pdfrwt beam="1">  1        2 0.26732956E+00 0.86045467E+03</pdfrwt>
<pdfrwt beam="2">  1       -2 0.13616482E+00 0.86045467E+03</pdfrwt>
<totfact> 0.36552620E+00</totfact>
</mgrwt>
</event>
<event>
 4    1  0.2202466E-008  0.1301342E+04  0.7818608E-02  0.9028501E-01
         -2   -1    0    0    0  501 -0.00000000000E+00  0.00000000000E+00  0.39487053236E+04  0.39487053236E+04  0.25500000000E-02 0.  1.
          2   -1    0    0  501    0  0.00000000000E+00 -0.00000000000E+00 -0.79424936389E+03  0.79424936389E+03  0.25500000000E-02 0. -1.
    8880022    1    1    2    0    0 -0.91049200321E+03 -0.91711748985E+03 -0.31234584650E+02  0.13017171084E+04  0.15294330000E+03 0.  0.
    8880022    1    1    2    0    0  0.91049200321E+03  0.91711748985E+03  0.31856905443E+04  0.34412375790E+04  0.15294330000E+03 0.  0.
<mgrwt>
<rscale>  0 0.13013423E+04</rscale>
<asrwt>0</asrwt>
<pdfrwt beam="1">  1        2 0.12219221E+00 0.13013423E+04</pdfrwt>
<pdfrwt beam="2">  1       -2 0.60749313E+00 0.13013423E+04</pdfrwt>
<totfact> 0.15544050E-02</totfact>
</mgrwt>
</event>
<event>
 4    1  0.2202466E-008  0.1282765E+04  0.7818608E-02  0.9043346E-01
         -2   -1    0    0    0  501 -0.00000000000E+00  0.00000000000E+00  0.12348068070E+04  0.12348068070E+04  0.25500000000E-02 0.  1.
          2   -1    0    0  501    0  0.00000000000E+00 -0.00000000000E+00 -0.24380579115E+04  0.24380579115E+04  0.25500000000E-02 0. -1.
    8880022    1    1    2    0    0  0.77706980095E+03 -0.10090866053E+04  0.63496806433E+03  0.14313173472E+04  0.15294330000E+03 0.  0.
    8880022    1    1    2    0    0 -0.77706980095E+03  0.10090866053E+04 -0.18382191688E+04  0.22415473714E+04  0.15294330000E+03 0.  0.
<mgrwt>
<rscale>  0 0.12827646E+04</rscale>
<asrwt>0</asrwt>
<pdfrwt beam="1">  1        2 0.37508583E+00 0.12827646E+04</pdfrwt>
<pdfrwt beam="2">  1       -2 0.18997028E+00 0.12827646E+04</pdfrwt>
<totfact> 0.56540372E-01</totfact>
</mgrwt>
</event>
<event>
 4    1  0.2202466E-008  0.2280683E+03  0.7818608E-02  0.1128007E+00
         -2   -1    0    0    0  501 -0.00000000000E+00  0.00000000000E+00  0.59424554224E+02  0.59424554279E+02  0.25500000000E-02 0.  1.
          2   -1    0    0  501    0  0.00000000000E+00 -0.00000000000E+00 -0.28360340409E+04  0.28360340409E+04  0.25500000000E-02 0. -1.
    8880022    1    1    2    0    0  0.14680250493E+01 -0.16917846510E+03 -0.18454613451E+03  0.29338104391E+03  0.15294330000E+03 0.  0.
    8880022    1    1    2    0    0 -0.14680250493E+01  0.16917846510E+03 -0.25920633522E+04  0.26020775513E+04  0.15294330000E+03 0.  0.
<mgrwt>
<rscale>  0 0.22806833E+03</rscale>
<asrwt>0</asrwt>
<pdfrwt beam="1">  1        2 0.43631282E+00 0.22806833E+03</pdfrwt>
<pdfrwt beam="2">  1       -2 0.91422413E-02 0.22806833E+03</pdfrwt>
<totfact> 0.20214240E+02</totfact>
</mgrwt>
</event>
<event>
 4    1  0.2202466E-008  0.1032160E+04  0.7818608E-02  0.9273959E-01
         -2   -1    0    0    0  501 -0.00000000000E+00  0.00000000000E+00  0.89376121634E+03  0.89376121634E+03  0.25500000000E-02 0.  1.
          2   -1    0    0  501    0  0.00000000000E+00 -0.00000000000E+00 -0.15851943685E+04  0.15851943685E+04  0.25500000000E-02 0. -1.
    8880022    1    1    2    0    0  0.67422235072E+03  0.76641174300E+03 -0.96303136605E+03  0.14116599460E+04  0.15294330000E+03 0.  0.
    8880022    1    1    2    0    0 -0.67422235072E+03 -0.76641174300E+03  0.27159821387E+03  0.10672956389E+04  0.15294330000E+03 0.  0.
<mgrwt>
<rscale>  0 0.10321601E+04</rscale>
<asrwt>0</asrwt>
<pdfrwt beam="1">  1        2 0.24387606E+00 0.10321601E+04</pdfrwt>
<pdfrwt beam="2">  1       -2 0.13750173E+00 0.10321601E+04</pdfrwt>
<totfact> 0.42353038E+00</totfact>
</mgrwt>
</event>
<event>
 4    1  0.2202466E-008  0.1055119E+04  0.7818608E-02  0.9250075E-01
         -2   -1    0    0    0  501 -0.00000000000E+00  0.00000000000E+00  0.99752339307E+03  0.99752339307E+03  0.25500000000E-02 0.  1.
          2   -1    0    0  501    0  0.00000000000E+00 -0.00000000000E+00 -0.14576659094E+04  0.14576659094E+04  0.25500000000E-02 0. -1.
    8880022    1    1    2    0    0  0.43798831902E+03 -0.94765500203E+03 -0.82436582743E+03  0.13389751457E+04  0.15294330000E+03 0.  0.
    8880022    1    1    2    0    0 -0.43798831902E+03  0.94765500203E+03  0.36422331105E+03  0.11162141568E+04  0.15294330000E+03 0.  0.
<mgrwt>
<rscale>  0 0.10551187E+04</rscale>
<asrwt>0</asrwt>
<pdfrwt beam="1">  1        2 0.22425629E+00 0.10551187E+04</pdfrwt>
<pdfrwt beam="2">  1       -2 0.15346514E+00 0.10551187E+04</pdfrwt>
<totfact> 0.37300616E+00</totfact>
</mgrwt>
</event>
<event>
 4    1  0.2202466E-008  0.1646467E+04  0.7818608E-02  0.8792499E-01
         -2   -1    0    0    0  501 -0.00000000000E+00  0.00000000000E+00  0.17711365299E+04  0.17711365299E+04  0.25500000000E-02 0.  1.
          2   -1    0    0  501    0  0.00000000000E+00 -0.00000000000E+00 -0.19501007835E+04  0.19501007835E+04  0.25500000000E-02 0. -1.
    8880022    1    1    2    0    0 -0.16104241064E+04 -0.30659025713E+03  0.77351396705E+03  0.18191148668E+04  0.15294330000E+03 0.  0.
    8880022    1    1    2    0    0  0.16104241064E+04  0.30659025713E+03 -0.95247822067E+03  0.19021224467E+04  0.15294330000E+03 0.  0.
<mgrwt>
<rscale>  0 0.16464674E+04</rscale>
<asrwt>0</asrwt>
<pdfrwt beam="1">  1        2 0.30001550E+00 0.16464674E+04</pdfrwt>
<pdfrwt beam="2">  1       -2 0.27248254E+00 0.16464674E+04</pdfrwt>
<totfact> 0.30769605E-01</totfact>
</mgrwt>
</event>
<event>
 4    1  0.2202466E-008  0.1385940E+04  0.7818608E-02  0.8964059E-01
         -2   -1    0    0    0  501 -0.00000000000E+00  0.00000000000E+00  0.65395371929E+03  0.65395371929E+03  0.25500000000E-02 0.  1.
          2   -1    0    0  501    0  0.00000000000E+00 -0.00000000000E+00 -0.31637143969E+04  0.31637143969E+04  0.25500000000E-02 0. -1.
    8880022    1    1    2    0    0 -0.13658094012E+04  0.17889536589E+03 -0.74418460545E+03  0.15730992507E+04  0.15294330000E+03 0.  0.
    8880022    1    1    2    0    0  0.13658094012E+04 -0.17889536589E+03 -0.17655760721E+04  0.22445688655E+04  0.15294330000E+03 0.  0.
<mgrwt>
<rscale>  0 0.13859403E+04</rscale>
<asrwt>0</asrwt>
<pdfrwt beam="1">  1        2 0.48672528E+00 0.13859403E+04</pdfrwt>
<pdfrwt beam="2">  1       -2 0.10060827E+00 0.13859403E+04</pdfrwt>
<totfact> 0.10817470E+00</totfact>
</mgrwt>
</event>
<event>
 4    1  0.2202466E-008  0.1056724E+04  0.7818608E-02  0.9248429E-01
          2   -1    0    0  501    0  0.00000000000E+00  0.00000000000E+00  0.26958540110E+04  0.26958540110E+04  0.25500000000E-02 0. -1.
         -2   -1    0    0    0  501 -0.00000000000E+00 -0.00000000000E+00 -0.10235088516E+04  0.10235088516E+04  0.25500000000E-02 0.  1.
    8880022    1    1    2    0    0 -0.28404319952E+03  0.10062771087E+04  0.22710202659E+04  0.25048350964E+04  0.15294330000E+03 0.  0.
    8880022    1    1    2    0    0  0.28404319952E+03 -0.10062771087E+04 -0.59867510655E+03  0.12145277662E+04  0.15294330000E+03 0.  0.
<mgrwt>
<rscale>  0 0.10567241E+04</rscale>
<asrwt>0</asrwt>
<pdfrwt beam="1">  1        2 0.41474677E+00 0.10567241E+04</pdfrwt>
<pdfrwt beam="2">  1       -2 0.15746290E+00 0.10567241E+04</pdfrwt>
<totfact> 0.70284531E-01</totfact>
</mgrwt>
</event>
<event>
 4    1  0.2202466E-008  0.1250129E+04  0.7818608E-02  0.9070076E-01
         -2   -1    0    0    0  501 -0.00000000000E+00  0.00000000000E+00  0.12962941985E+04  0.12962941985E+04  0.25500000000E-02 0.  1.
          2   -1    0    0  501    0  0.00000000000E+00 -0.00000000000E+00 -0.17985584497E+04  0.17985584497E+04  0.25500000000E-02 0. -1.
    8880022    1    1    2    0    0 -0.63936742301E+03 -0.10633152222E+04  0.63736739469E+03  0.14032315604E+04  0.15294330000E+03 0.  0.
    8880022    1    1    2    0    0  0.63936742301E+03  0.10633152222E+04 -0.11396316459E+04  0.16916210878E+04  0.15294330000E+03 0.  0.
<mgrwt>
<rscale>  0 0.12501286E+04</rscale>
<asrwt>0</asrwt>
<pdfrwt beam="1">  1        2 0.27670130E+00 0.12501286E+04</pdfrwt>
<pdfrwt beam="2">  1       -2 0.19942988E+00 0.12501286E+04</pdfrwt>
<totfact> 0.11188581E+00</totfact>
</mgrwt>
</event>
<event>
 4    1  0.2202466E-008  0.3910865E+03  0.7818608E-02  0.1046911E+00
          2   -1    0    0  501    0  0.00000000000E+00  0.00000000000E+00  0.16968901951E+04  0.16968901951E+04  0.25500000000E-02 0. -1.
         -2   -1    0    0    0  501 -0.00000000000E+00 -0.00000000000E+00 -0.16879862541E+03  0.16879862543E+03  0.25500000000E-02 0.  1.
    8880022    1    1    2    0    0 -0.29761882425E+03 -0.20243531673E+03  0.12723180313E+03  0.41126221167E+03  0.15294330000E+03 0.  0.
    8880022    1    1    2    0    0  0.29761882425E+03  0.20243531673E+03  0.14008597666E+04  0.14544266089E+04  0.15294330000E+03 0.  0.
<mgrwt>
<rscale>  0 0.39108653E+03</rscale>
<asrwt>0</asrwt>
<pdfrwt beam="1">  1        2 0.26106004E+00 0.39108653E+03</pdfrwt>
<pdfrwt beam="2">  1       -2 0.25969019E-01 0.39108653E+03</pdfrwt>
<totfact> 0.14028731E+02</totfact>
</mgrwt>
</event>
<event>
 4    1  0.2202466E-008  0.6868936E+03  0.7818608E-02  0.9739912E-01
          2   -1    0    0  501    0  0.00000000000E+00  0.00000000000E+00  0.20814801005E+04  0.20814801005E+04  0.25500000000E-02 0. -1.
         -2   -1    0    0    0  501 -0.00000000000E+00 -0.00000000000E+00 -0.24840696158E+03  0.24840696160E+03  0.25500000000E-02 0.  1.
    8880022    1    1    2    0    0 -0.17914765180E+03 -0.64524205277E+03  0.57198325851E+03  0.89386111272E+03  0.15294330000E+03 0.  0.
    8880022    1    1    2    0    0  0.17914765180E+03  0.64524205277E+03  0.12610898804E+04  0.14360259494E+04  0.15294330000E+03 0.  0.
<mgrwt>
<rscale>  0 0.68689362E+03</rscale>
<asrwt>0</asrwt>
<pdfrwt beam="1">  1        2 0.32022770E+00 0.68689362E+03</pdfrwt>
<pdfrwt beam="2">  1       -2 0.38216457E-01 0.68689362E+03</pdfrwt>
<totfact> 0.40513465E+01</totfact>
</mgrwt>
</event>
<event>
 4    1  0.2202466E-008  0.1167366E+04  0.7818608E-02  0.9141910E-01
         -2   -1    0    0    0  501 -0.00000000000E+00  0.00000000000E+00  0.19078039301E+04  0.19078039301E+04  0.25500000000E-02 0.  1.
          2   -1    0    0  501    0  0.00000000000E+00 -0.00000000000E+00 -0.11361188859E+04  0.11361188859E+04  0.25500000000E-02 0. -1.
    8880022    1    1    2    0    0 -0.82215517478E+03  0.81450194623E+03  0.13132162732E+04  0.17570660731E+04  0.15294330000E+03 0.  0.
    8880022    1    1    2    0    0  0.82215517478E+03 -0.81450194623E+03 -0.54153122906E+03  0.12868567430E+04  0.15294330000E+03 0.  0.
<mgrwt>
<rscale>  0 0.11673664E+04</rscale>
<asrwt>0</asrwt>
<pdfrwt beam="1">  1        2 0.17478752E+00 0.11673664E+04</pdfrwt>
<pdfrwt beam="2">  1       -2 0.29350830E+00 0.11673664E+04</pdfrwt>
<totfact> 0.70684183E-01</totfact>
</mgrwt>
</event>
<event>
 4    1  0.2202466E-008  0.1028456E+04  0.7818608E-02  0.9277873E-01
          2   -1    0    0  501    0  0.00000000000E+00  0.00000000000E+00  0.43622507625E+04  0.43622507625E+04  0.25500000000E-02 0. -1.
         -2   -1    0    0    0  501 -0.00000000000E+00 -0.00000000000E+00 -0.41635600342E+03  0.41635600343E+03  0.25500000000E-02 0.  1.
    8880022    1    1    2    0    0  0.19255252052E+03 -0.99862626084E+03  0.35170246208E+04  0.36643123118E+04  0.15294330000E+03 0.  0.
    8880022    1    1    2    0    0 -0.19255252052E+03  0.99862626084E+03  0.42887013827E+03  0.11142944541E+04  0.15294330000E+03 0.  1.
<mgrwt>
<rscale>  0 0.10284564E+04</rscale>
<asrwt>0</asrwt>
<pdfrwt beam="1">  1        2 0.67111554E+00 0.10284564E+04</pdfrwt>
<pdfrwt beam="2">  1       -2 0.64054766E-01 0.10284564E+04</pdfrwt>
<totfact> 0.39859742E-01</totfact>
</mgrwt>
</event>
<event>
 4    1  0.2202466E-008  0.8024361E+03  0.7818608E-02  0.9556498E-01
         -2   -1    0    0    0  501 -0.00000000000E+00  0.00000000000E+00  0.41176768372E+03  0.41176768373E+03  0.25500000000E-02 0.  1.
          2   -1    0    0  501    0  0.00000000000E+00 -0.00000000000E+00 -0.29069647359E+04  0.29069647359E+04  0.25500000000E-02 0. -1.
    8880022    1    1    2    0    0  0.74765832972E+03  0.24803040455E+03 -0.23755600879E+04  0.25074268571E+04  0.15294330000E+03 0.  0.
    8880022    1    1    2    0    0 -0.74765832972E+03 -0.24803040455E+03 -0.11963696432E+03  0.81130556255E+03  0.15294330000E+03 0.  0.
<mgrwt>
<rscale>  0 0.80243611E+03</rscale>
<asrwt>0</asrwt>
<pdfrwt beam="1">  1        2 0.44722533E+00 0.80243611E+03</pdfrwt>
<pdfrwt beam="2">  1       -2 0.63348876E-01 0.80243611E+03</pdfrwt>
<totfact> 0.48314865E+00</totfact>
</mgrwt>
</event>
<event>
 4    1  0.2202466E-008  0.5360039E+03  0.7818608E-02  0.1004786E+00
          2   -1    0    0  501    0  0.00000000000E+00  0.00000000000E+00  0.22231853046E+04  0.22231853046E+04  0.25500000000E-02 0. -1.
         -2   -1    0    0    0  501 -0.00000000000E+00 -0.00000000000E+00 -0.31857168095E+03  0.31857168096E+03  0.25500000000E-02 0.  1.
    8880022    1    1    2    0    0  0.51332384791E+03 -0.20176998056E+02  0.19320779546E+04  0.20050499644E+04  0.15294330000E+03 0.  0.
    8880022    1    1    2    0    0 -0.51332384791E+03  0.20176998056E+02 -0.27464330934E+02  0.53670702117E+03  0.15294330000E+03 0.  0.
<mgrwt>
<rscale>  0 0.53600386E+03</rscale>
<asrwt>0</asrwt>
<pdfrwt beam="1">  1        2 0.34202850E+00 0.53600386E+03</pdfrwt>
<pdfrwt beam="2">  1       -2 0.49011029E-01 0.53600386E+03</pdfrwt>
<totfact> 0.21286901E+01</totfact>
</mgrwt>
</event>
<event>
 4    1  0.2202466E-008  0.1100821E+04  0.7818608E-02  0.9204392E-01
          2   -1    0    0  501    0  0.00000000000E+00  0.00000000000E+00  0.28876339416E+04  0.28876339416E+04  0.25500000000E-02 0. -1.
         -2   -1    0    0    0  501 -0.00000000000E+00 -0.00000000000E+00 -0.72711069474E+03  0.72711069474E+03  0.25500000000E-02 0.  1.
    8880022    1    1    2    0    0 -0.21323940058E+03 -0.10690856046E+04 -0.95013211678E+02  0.11049136777E+04  0.15294330000E+03 0.  0.
    8880022    1    1    2    0    0  0.21323940058E+03  0.10690856046E+04  0.22555364585E+04  0.25098309586E+04  0.15294330000E+03 0.  0.
<mgrwt>
<rscale>  0 0.11008209E+04</rscale>
<asrwt>0</asrwt>
<pdfrwt beam="1">  1        2 0.44425138E+00 0.11008209E+04</pdfrwt>
<pdfrwt beam="2">  1       -2 0.11186318E+00 0.11008209E+04</pdfrwt>
<totfact> 0.12904300E+00</totfact>
</mgrwt>
</event>
<event>
 4    1  0.2202466E-008  0.3743399E+03  0.7818608E-02  0.1053046E+00
          2   -1    0    0  501    0  0.00000000000E+00  0.00000000000E+00  0.35954058717E+03  0.35954058718E+03  0.25500000000E-02 0. -1.
         -2   -1    0    0    0  501 -0.00000000000E+00 -0.00000000000E+00 -0.14726625146E+04  0.14726625146E+04  0.25500000000E-02 0.  1.
    8880022    1    1    2    0    0  0.96007670465E+02 -0.32790430428E+03  0.22901649786E+03  0.43883814198E+03  0.15294330000E+03 0.  0.
    8880022    1    1    2    0    0 -0.96007670465E+02  0.32790430428E+03 -0.13421384253E+04  0.13933649598E+04  0.15294330000E+03 0.  0.
<mgrwt>
<rscale>  0 0.37433990E+03</rscale>
<asrwt>0</asrwt>
<pdfrwt beam="1">  1        2 0.55313937E-01 0.37433990E+03</pdfrwt>
<pdfrwt beam="2">  1       -2 0.22656346E+00 0.37433990E+03</pdfrwt>
<totfact> 0.87253908E+00</totfact>
</mgrwt>
</event>
<event>
 4    1  0.2202466E-008  0.7420850E+03  0.7818608E-02  0.9647850E-01
          2   -1    0    0  501    0  0.00000000000E+00  0.00000000000E+00  0.12660148419E+04  0.12660148419E+04  0.25500000000E-02 0. -1.
         -2   -1    0    0    0  501 -0.00000000000E+00 -0.00000000000E+00 -0.79099376975E+03  0.79099376975E+03  0.25500000000E-02 0.  1.
    8880022    1    1    2    0    0  0.46628898942E+03 -0.55666248115E+03 -0.45249636631E+03  0.86916232898E+03  0.15294330000E+03 0.  0.
    8880022    1    1    2    0    0 -0.46628898942E+03  0.55666248115E+03  0.92751743842E+03  0.11878462826E+04  0.15294330000E+03 0.  0.
<mgrwt>
<rscale>  0 0.74208503E+03</rscale>
<asrwt>0</asrwt>
<pdfrwt beam="1">  1        2 0.19477151E+00 0.74208503E+03</pdfrwt>
<pdfrwt beam="2">  1       -2 0.12169135E+00 0.74208503E+03</pdfrwt>
<totfact> 0.90701348E+00</totfact>
</mgrwt>
</event>
<event>
 4    1  0.2202466E-008  0.5902288E+03  0.7818608E-02  0.9925888E-01
          2   -1    0    0  501    0  0.00000000000E+00  0.00000000000E+00  0.21229467036E+04  0.21229467036E+04  0.25500000000E-02 0. -1.
         -2   -1    0    0    0  501 -0.00000000000E+00 -0.00000000000E+00 -0.25234867308E+03  0.25234867310E+03  0.25500000000E-02 0.  1.
    8880022    1    1    2    0    0  0.43362136212E+03  0.37006872256E+03  0.23295862166E+03  0.63453898030E+03  0.15294330000E+03 0.  0.
    8880022    1    1    2    0    0 -0.43362136212E+03 -0.37006872256E+03  0.16376394088E+04  0.17407563963E+04  0.15294330000E+03 0. -1.
<mgrwt>
<rscale>  0 0.59022877E+03</rscale>
<asrwt>0</asrwt>
<pdfrwt beam="1">  1        2 0.32660720E+00 0.59022877E+03</pdfrwt>
<pdfrwt beam="2">  1       -2 0.38822871E-01 0.59022877E+03</pdfrwt>
<totfact> 0.37856593E+01</totfact>
</mgrwt>
</event>
<event>
 4    1  0.2202466E-008  0.3710897E+03  0.7818608E-02  0.1054277E+00
         -2   -1    0    0    0  501 -0.00000000000E+00  0.00000000000E+00  0.74223657646E+03  0.74223657647E+03  0.25500000000E-02 0.  1.
          2   -1    0    0  501    0  0.00000000000E+00 -0.00000000000E+00 -0.88918999174E+03  0.88918999174E+03  0.25500000000E-02 0. -1.
    8880022    1    1    2    0    0  0.30671864993E+03 -0.14226597556E+03 -0.79911718266E+03  0.88107653621E+03  0.15294330000E+03 0.  0.
    8880022    1    1    2    0    0 -0.30671864993E+03  0.14226597556E+03  0.65216376739E+03  0.75035003200E+03  0.15294330000E+03 0.  0.
<mgrwt>
<rscale>  0 0.37108973E+03</rscale>
<asrwt>0</asrwt>
<pdfrwt beam="1">  1        2 0.13679846E+00 0.37108973E+03</pdfrwt>
<pdfrwt beam="2">  1       -2 0.11419024E+00 0.37108973E+03</pdfrwt>
<totfact> 0.19181998E+01</totfact>
</mgrwt>
</event>
<event>
 4    1  0.2202466E-008  0.4476776E+03  0.7818608E-02  0.1028417E+00
          2   -1    0    0  501    0  0.00000000000E+00  0.00000000000E+00  0.88323207302E+03  0.88323207302E+03  0.25500000000E-02 0. -1.
         -2   -1    0    0    0  501 -0.00000000000E+00 -0.00000000000E+00 -0.64059880036E+03  0.64059880037E+03  0.25500000000E-02 0.  1.
    8880022    1    1    2    0    0  0.32300445172E+03  0.26961406116E+03 -0.49096319147E+03  0.66442465803E+03  0.15294330000E+03 0.  0.
    8880022    1    1    2    0    0 -0.32300445172E+03 -0.26961406116E+03  0.73359646413E+03  0.85940621536E+03  0.15294330000E+03 0.  0.
<mgrwt>
<rscale>  0 0.44767764E+03</rscale>
<asrwt>0</asrwt>
<pdfrwt beam="1">  1        2 0.13588186E+00 0.44767764E+03</pdfrwt>
<pdfrwt beam="2">  1       -2 0.98553662E-01 0.44767764E+03</pdfrwt>
<totfact> 0.27103126E+01</totfact>
</mgrwt>
</event>
<event>
 4    1  0.2202466E-008  0.5645954E+03  0.7818608E-02  0.9981710E-01
          2   -1    0    0  501    0  0.00000000000E+00  0.00000000000E+00  0.94496405085E+03  0.94496405086E+03  0.25500000000E-02 0. -1.
         -2   -1    0    0    0  501 -0.00000000000E+00 -0.00000000000E+00 -0.23585039399E+04  0.23585039399E+04  0.25500000000E-02 0.  1.
    8880022    1    1    2    0    0 -0.87201868539E+02 -0.53644400165E+03  0.82228565813E+03  0.99745761281E+03  0.15294330000E+03 0. -1.
    8880022    1    1    2    0    0  0.87201868539E+02  0.53644400165E+03 -0.22358255472E+04  0.23060103780E+04  0.15294330000E+03 0.  0.
<mgrwt>
<rscale>  0 0.56459542E+03</rscale>
<asrwt>0</asrwt>
<pdfrwt beam="1">  1        2 0.14537909E+00 0.56459542E+03</pdfrwt>
<pdfrwt beam="2">  1       -2 0.36284676E+00 0.56459542E+03</pdfrwt>
<totfact> 0.39238024E-01</totfact>
</mgrwt>
</event>
<event>
 4    1  0.2202466E-008  0.7107785E+03  0.7818608E-02  0.9698975E-01
          2   -1    0    0  501    0  0.00000000000E+00  0.00000000000E+00  0.19283650504E+04  0.19283650504E+04  0.25500000000E-02 0. -1.
         -2   -1    0    0    0  501 -0.00000000000E+00 -0.00000000000E+00 -0.52250401248E+03  0.52250401249E+03  0.25500000000E-02 0.  1.
    8880022    1    1    2    0    0 -0.35098800708E+02  0.69324053296E+03 -0.16236326813E+03  0.72908699495E+03  0.15294330000E+03 0.  0.
    8880022    1    1    2    0    0  0.35098800708E+02 -0.69324053296E+03  0.15682243060E+04  0.17217820679E+04  0.15294330000E+03 0.  0.
<mgrwt>
<rscale>  0 0.71077846E+03</rscale>
<asrwt>0</asrwt>
<pdfrwt beam="1">  1        2 0.29667155E+00 0.71077846E+03</pdfrwt>
<pdfrwt beam="2">  1       -2 0.80385232E-01 0.71077846E+03</pdfrwt>
<totfact> 0.10412547E+01</totfact>
</mgrwt>
</event>
<event>
 4    1  0.2202466E-008  0.4473153E+03  0.7818608E-02  0.1028526E+00
          2   -1    0    0  501    0  0.00000000000E+00  0.00000000000E+00  0.20789647374E+04  0.20789647374E+04  0.25500000000E-02 0. -1.
         -2   -1    0    0    0  501 -0.00000000000E+00 -0.00000000000E+00 -0.23008859524E+03  0.23008859525E+03  0.25500000000E-02 0.  1.
    8880022    1    1    2    0    0  0.16730876608E+03  0.38562558736E+03  0.43887238937E+02  0.44946307923E+03  0.15294330000E+03 0.  0.
    8880022    1    1    2    0    0 -0.16730876608E+03 -0.38562558736E+03  0.18049889032E+04  0.18595902534E+04  0.15294330000E+03 0.  0.
<mgrwt>
<rscale>  0 0.44731529E+03</rscale>
<asrwt>0</asrwt>
<pdfrwt beam="1">  1        2 0.31984074E+00 0.44731529E+03</pdfrwt>
<pdfrwt beam="2">  1       -2 0.35398245E-01 0.44731529E+03</pdfrwt>
<totfact> 0.49001573E+01</totfact>
</mgrwt>
</event>
<event>
 4    1  0.2202466E-008  0.2012789E+04  0.7818608E-02  0.8600665E-01
         -2   -1    0    0    0  501 -0.00000000000E+00  0.00000000000E+00  0.10542972556E+04  0.10542972556E+04  0.25500000000E-02 0.  1.
          2   -1    0    0  501    0  0.00000000000E+00 -0.00000000000E+00 -0.43913885311E+04  0.43913885311E+04  0.25500000000E-02 0. -1.
    8880022    1    1    2    0    0  0.27749699554E+00 -0.20069697433E+04 -0.26310338016E+04  0.33126512261E+04  0.15294330000E+03 0.  0.
    8880022    1    1    2    0    0 -0.27749699554E+00  0.20069697433E+04 -0.70605747390E+03  0.21330345607E+04  0.15294330000E+03 0.  0.
<mgrwt>
<rscale>  0 0.20127889E+04</rscale>
<asrwt>0</asrwt>
<pdfrwt beam="1">  1        2 0.67559822E+00 0.20127889E+04</pdfrwt>
<pdfrwt beam="2">  1       -2 0.16219958E+00 0.20127889E+04</pdfrwt>
<totfact> 0.34308155E-02</totfact>
</mgrwt>
</event>
<event>
 4    1  0.2202466E-008  0.4828024E+03  0.7818608E-02  0.1018368E+00
         -2   -1    0    0    0  501 -0.00000000000E+00  0.00000000000E+00  0.58187670528E+03  0.58187670529E+03  0.25500000000E-02 0.  1.
          2   -1    0    0  501    0  0.00000000000E+00 -0.00000000000E+00 -0.27279380316E+04  0.27279380316E+04  0.25500000000E-02 0. -1.
    8880022    1    1    2    0    0  0.45777530096E+03  0.12175569693E+02 -0.26016045733E+04  0.26460242779E+04  0.15294330000E+03 0.  0.
    8880022    1    1    2    0    0 -0.45777530096E+03 -0.12175569693E+02  0.45554324691E+03  0.66379045902E+03  0.15294330000E+03 0.  0.
<mgrwt>
<rscale>  0 0.48280237E+03</rscale>
<asrwt>0</asrwt>
<pdfrwt beam="1">  1        2 0.41968277E+00 0.48280237E+03</pdfrwt>
<pdfrwt beam="2">  1       -2 0.89519495E-01 0.48280237E+03</pdfrwt>
<totfact> 0.30885817E+00</totfact>
</mgrwt>
</event>
<event>
 4    1  0.2202466E-008  0.2381364E+04  0.7818608E-02  0.8446514E-01
          2   -1    0    0  501    0  0.00000000000E+00  0.00000000000E+00  0.51034115336E+04  0.51034115336E+04  0.25500000000E-02 0. -1.
         -2   -1    0    0    0  501 -0.00000000000E+00 -0.00000000000E+00 -0.16009412874E+04  0.16009412874E+04  0.25500000000E-02 0.  1.
    8880022    1    1    2    0    0 -0.22993886292E+04  0.60026375249E+03 -0.10282490535E+03  0.23835832804E+04  0.15294330000E+03 0.  0.
    8880022    1    1    2    0    0  0.22993886292E+04 -0.60026375249E+03  0.36052951515E+04  0.43207695406E+04  0.15294330000E+03 0.  0.
<mgrwt>
<rscale>  0 0.23813644E+04</rscale>
<asrwt>0</asrwt>
<pdfrwt beam="1">  1        2 0.78514023E+00 0.23813644E+04</pdfrwt>
<pdfrwt beam="2">  1       -2 0.24629866E+00 0.23813644E+04</pdfrwt>
<totfact> 0.14616133E-03</totfact>
</mgrwt>
</event>
<event>
 4    1  0.2202466E-008  0.6636198E+03  0.7818608E-02  0.9781553E-01
          2   -1    0    0  501    0  0.00000000000E+00  0.00000000000E+00  0.19506948202E+04  0.19506948202E+04  0.25500000000E-02 0. -1.
         -2   -1    0    0    0  501 -0.00000000000E+00 -0.00000000000E+00 -0.63633851339E+03  0.63633851339E+03  0.25500000000E-02 0.  1.
    8880022    1    1    2    0    0 -0.36587276619E+02  0.64471774646E+03 -0.38184538153E+03  0.76563512838E+03  0.15294330000E+03 0.  0.
    8880022    1    1    2    0    0  0.36587276619E+02 -0.64471774646E+03  0.16962016884E+04  0.18213982053E+04  0.15294330000E+03 0. -1.
<mgrwt>
<rscale>  0 0.66361981E+03</rscale>
<asrwt>0</asrwt>
<pdfrwt beam="1">  1        2 0.30010690E+00 0.66361981E+03</pdfrwt>
<pdfrwt beam="2">  1       -2 0.97898232E-01 0.66361981E+03</pdfrwt>
<totfact> 0.64895615E+00</totfact>
</mgrwt>
</event>
<event>
 4    1  0.2202466E-008  0.7066157E+03  0.7818608E-02  0.9705985E-01
         -2   -1    0    0    0  501 -0.00000000000E+00  0.00000000000E+00  0.68603008345E+03  0.68603008346E+03  0.25500000000E-02 0.  1.
          2   -1    0    0  501    0  0.00000000000E+00 -0.00000000000E+00 -0.94726601811E+03  0.94726601811E+03  0.25500000000E-02 0. -1.
    8880022    1    1    2    0    0  0.46447192083E+03  0.51007838516E+03 -0.52368237846E+03  0.87951635049E+03  0.15294330000E+03 0.  0.
    8880022    1    1    2    0    0 -0.46447192083E+03 -0.51007838516E+03  0.26244644380E+03  0.75377975108E+03  0.15294330000E+03 0.  0.
<mgrwt>
<rscale>  0 0.70661572E+03</rscale>
<asrwt>0</asrwt>
<pdfrwt beam="1">  1        2 0.14573323E+00 0.70661572E+03</pdfrwt>
<pdfrwt beam="2">  1       -2 0.10554309E+00 0.70661572E+03</pdfrwt>
<totfact> 0.20201581E+01</totfact>
</mgrwt>
</event>
<event>
 4    1  0.2202466E-008  0.1728918E+03  0.7818608E-02  0.1174865E+00
         -2   -1    0    0    0  501 -0.00000000000E+00  0.00000000000E+00  0.21235739346E+03  0.21235739347E+03  0.25500000000E-02 0.  1.
          2   -1    0    0  501    0  0.00000000000E+00 -0.00000000000E+00 -0.21981469223E+04  0.21981469223E+04  0.25500000000E-02 0. -1.
    8880022    1    1    2    0    0 -0.45285835870E+02 -0.66701677624E+02 -0.21589187218E+04  0.21658304692E+04  0.15294330000E+03 0.  0.
    8880022    1    1    2    0    0  0.45285835870E+02  0.66701677624E+02  0.17312919299E+03  0.24467384660E+03  0.15294330000E+03 0.  0.
<mgrwt>
<rscale>  0 0.17289180E+03</rscale>
<asrwt>0</asrwt>
<pdfrwt beam="1">  1        2 0.33817643E+00 0.17289180E+03</pdfrwt>
<pdfrwt beam="2">  1       -2 0.32670370E-01 0.17289180E+03</pdfrwt>
<totfact> 0.53916610E+01</totfact>
</mgrwt>
</event>
<event>
 4    1  0.2202466E-008  0.1249745E+04  0.7818608E-02  0.9070396E-01
          2   -1    0    0  501    0  0.00000000000E+00  0.00000000000E+00  0.17292781598E+04  0.17292781598E+04  0.25500000000E-02 0. -1.
         -2   -1    0    0    0  501 -0.00000000000E+00 -0.00000000000E+00 -0.93602587770E+03  0.93602587771E+03  0.25500000000E-02 0.  1.
    8880022    1    1    2    0    0  0.39243190883E+03  0.11766341924E+04  0.64623698465E+03  0.14069416189E+04  0.15294330000E+03 0.  0.
    8880022    1    1    2    0    0 -0.39243190883E+03 -0.11766341924E+04  0.14701529747E+03  0.12583624186E+04  0.15294330000E+03 0.  0.
<mgrwt>
<rscale>  0 0.12497450E+04</rscale>
<asrwt>0</asrwt>
<pdfrwt beam="1">  1        2 0.26604279E+00 0.12497450E+04</pdfrwt>
<pdfrwt beam="2">  1       -2 0.14400398E+00 0.12497450E+04</pdfrwt>
<totfact> 0.30504016E+00</totfact>
</mgrwt>
</event>
<event>
 4    1  0.2202466E-008  0.1141928E+04  0.7818608E-02  0.9165263E-01
         -2   -1    0    0    0  501 -0.00000000000E+00  0.00000000000E+00  0.74450519277E+03  0.74450519277E+03  0.25500000000E-02 0.  1.
          2   -1    0    0  501    0  0.00000000000E+00 -0.00000000000E+00 -0.22816375887E+04  0.22816375887E+04  0.25500000000E-02 0. -1.
    8880022    1    1    2    0    0 -0.20771571191E+02  0.11314488439E+04 -0.39224449532E+02  0.11426014856E+04  0.15294330000E+03 0.  0.
    8880022    1    1    2    0    0  0.20771571191E+02 -0.11314488439E+04 -0.14979079464E+04  0.18835412959E+04  0.15294330000E+03 0.  0.
<mgrwt>
<rscale>  0 0.11419280E+04</rscale>
<asrwt>0</asrwt>
<pdfrwt beam="1">  1        2 0.35102116E+00 0.11419280E+04</pdfrwt>
<pdfrwt beam="2">  1       -2 0.11453926E+00 0.11419280E+04</pdfrwt>
<totfact> 0.27256429E+00</totfact>
</mgrwt>
</event>
<event>
 4    1  0.2202466E-008  0.9169430E+03  0.7818608E-02  0.9404646E-01
          2   -1    0    0  501    0  0.00000000000E+00  0.00000000000E+00  0.26937626150E+04  0.26937626150E+04  0.25500000000E-02 0. -1.
         -2   -1    0    0    0  501 -0.00000000000E+00 -0.00000000000E+00 -0.85969726696E+03  0.85969726696E+03  0.25500000000E-02 0.  1.
    8880022    1    1    2    0    0  0.71255717450E+03  0.55646658045E+03 -0.50094791551E+03  0.10448603970E+04  0.15294330000E+03 0.  0.
    8880022    1    1    2    0    0 -0.71255717450E+03 -0.55646658045E+03  0.23350132636E+04  0.25085994850E+04  0.15294330000E+03 0.  0.
<mgrwt>
<rscale>  0 0.91694298E+03</rscale>
<asrwt>0</asrwt>
<pdfrwt beam="1">  1        2 0.41442502E+00 0.91694298E+03</pdfrwt>
<pdfrwt beam="2">  1       -2 0.13226112E+00 0.91694298E+03</pdfrwt>
<totfact> 0.11404311E+00</totfact>
</mgrwt>
</event>
<event>
 4    1  0.2202466E-008  0.1179682E+04  0.7818608E-02  0.9130829E-01
          2   -1    0    0  501    0  0.00000000000E+00  0.00000000000E+00  0.13942884911E+04  0.13942884911E+04  0.25500000000E-02 0. -1.
         -2   -1    0    0    0  501 -0.00000000000E+00 -0.00000000000E+00 -0.15247443904E+04  0.15247443904E+04  0.25500000000E-02 0.  1.
    8880022    1    1    2    0    0 -0.11523021002E+04 -0.20113954151E+03  0.79253320584E+03  0.14211818253E+04  0.15294330000E+03 0.  0.
    8880022    1    1    2    0    0  0.11523021002E+04  0.20113954151E+03 -0.92298910513E+03  0.14978510562E+04  0.15294330000E+03 0.  0.
<mgrwt>
<rscale>  0 0.11796817E+04</rscale>
<asrwt>0</asrwt>
<pdfrwt beam="1">  1        2 0.21450592E+00 0.11796817E+04</pdfrwt>
<pdfrwt beam="2">  1       -2 0.23457606E+00 0.11796817E+04</pdfrwt>
<totfact> 0.11360694E+00</totfact>
</mgrwt>
</event>
<event>
 4    1  0.2202466E-008  0.1203168E+04  0.7818608E-02  0.9110088E-01
         -2   -1    0    0    0  501 -0.00000000000E+00  0.00000000000E+00  0.82255896168E+03  0.82255896168E+03  0.25500000000E-02 0.  1.
          2   -1    0    0  501    0  0.00000000000E+00 -0.00000000000E+00 -0.19464731295E+04  0.19464731295E+04  0.25500000000E-02 0. -1.
    8880022    1    1    2    0    0  0.11538631424E+04  0.30466576695E+03 -0.13329967237E+03  0.12105295687E+04  0.15294330000E+03 0.  0.
    8880022    1    1    2    0    0 -0.11538631424E+04 -0.30466576695E+03 -0.99061449546E+03  0.15585025225E+04  0.15294330000E+03 0.  0.
<mgrwt>
<rscale>  0 0.12031679E+04</rscale>
<asrwt>0</asrwt>
<pdfrwt beam="1">  1        2 0.29945740E+00 0.12031679E+04</pdfrwt>
<pdfrwt beam="2">  1       -2 0.12654753E+00 0.12031679E+04</pdfrwt>
<totfact> 0.32429140E+00</totfact>
</mgrwt>
</event>
<event>
 4    1  0.2202466E-008  0.6786095E+03  0.7818608E-02  0.9754529E-01
         -2   -1    0    0    0  501 -0.00000000000E+00  0.00000000000E+00  0.62328319324E+03  0.62328319324E+03  0.25500000000E-02 0.  1.
          2   -1    0    0  501    0  0.00000000000E+00 -0.00000000000E+00 -0.25165318024E+04  0.25165318024E+04  0.25500000000E-02 0. -1.
    8880022    1    1    2    0    0 -0.28962580662E+03 -0.59433662892E+03  0.37284793342E+03  0.77429088255E+03  0.15294330000E+03 0.  0.
    8880022    1    1    2    0    0  0.28962580662E+03  0.59433662892E+03 -0.22660965426E+04  0.23655241131E+04  0.15294330000E+03 0.  0.
<mgrwt>
<rscale>  0 0.67860945E+03</rscale>
<asrwt>0</asrwt>
<pdfrwt beam="1">  1        2 0.38715873E+00 0.67860945E+03</pdfrwt>
<pdfrwt beam="2">  1       -2 0.95889723E-01 0.67860945E+03</pdfrwt>
<totfact> 0.33093084E+00</totfact>
</mgrwt>
</event>
<event>
 4    1  0.2202466E-008  0.1495810E+04  0.7818608E-02  0.8887244E-01
          2   -1    0    0  501    0  0.00000000000E+00  0.00000000000E+00  0.22807470840E+04  0.22807470840E+04  0.25500000000E-02 0. -1.
         -2   -1    0    0    0  501 -0.00000000000E+00 -0.00000000000E+00 -0.11428945490E+04  0.11428945490E+04  0.25500000000E-02 0.  1.
    8880022    1    1    2    0    0 -0.12973098126E+04  0.72872674507E+03  0.12131715280E+04  0.19259367145E+04  0.15294330000E+03 0.  0.
    8880022    1    1    2    0    0  0.12973098126E+04 -0.72872674507E+03 -0.75318993008E+02  0.14977049184E+04  0.15294330000E+03 0.  0.
<mgrwt>
<rscale>  0 0.14958098E+04</rscale>
<asrwt>0</asrwt>
<pdfrwt beam="1">  1        2 0.35088417E+00 0.14958098E+04</pdfrwt>
<pdfrwt beam="2">  1       -2 0.17582993E+00 0.14958098E+04</pdfrwt>
<totfact> 0.84869446E-01</totfact>
</mgrwt>
</event>
<event>
 4    1  0.2202466E-008  0.2170649E+04  0.7818608E-02  0.8530745E-01
         -2   -1    0    0    0  501 -0.00000000000E+00  0.00000000000E+00  0.16917728879E+04  0.16917728879E+04  0.25500000000E-02 0.  1.
          2   -1    0    0  501    0  0.00000000000E+00 -0.00000000000E+00 -0.31174083376E+04  0.31174083376E+04  0.25500000000E-02 0. -1.
    8880022    1    1    2    0    0  0.82451609838E+03 -0.20021235598E+04  0.72291654089E+02  0.21718524999E+04  0.15294330000E+03 0.  0.
    8880022    1    1    2    0    0 -0.82451609838E+03  0.20021235598E+04 -0.14979271039E+04  0.26373287256E+04  0.15294330000E+03 0.  0.
<mgrwt>
<rscale>  0 0.21706490E+04</rscale>
<asrwt>0</asrwt>
<pdfrwt beam="1">  1        2 0.47960128E+00 0.21706490E+04</pdfrwt>
<pdfrwt beam="2">  1       -2 0.26027275E+00 0.21706490E+04</pdfrwt>
<totfact> 0.71106811E-02</totfact>
</mgrwt>
</event>
<event>
 4    1  0.2202466E-008  0.6954870E+03  0.7818608E-02  0.9724981E-01
          2   -1    0    0  501    0  0.00000000000E+00  0.00000000000E+00  0.21064197645E+04  0.21064197645E+04  0.25500000000E-02 0. -1.
         -2   -1    0    0    0  501 -0.00000000000E+00 -0.00000000000E+00 -0.53126795787E+03  0.53126795788E+03  0.25500000000E-02 0.  1.
    8880022    1    1    2    0    0  0.64355304832E+03 -0.21482547403E+03 -0.20617574068E+03  0.72540374920E+03  0.15294330000E+03 0.  0.
    8880022    1    1    2    0    0 -0.64355304832E+03  0.21482547403E+03  0.17813275473E+04  0.19122839732E+04  0.15294330000E+03 0.  0.
<mgrwt>
<rscale>  0 0.69548700E+03</rscale>
<asrwt>0</asrwt>
<pdfrwt beam="1">  1        2 0.32406459E+00 0.69548700E+03</pdfrwt>
<pdfrwt beam="2">  1       -2 0.81733530E-01 0.69548700E+03</pdfrwt>
<totfact> 0.80411871E+00</totfact>
</mgrwt>
</event>
<event>
 4    1  0.2202466E-008  0.8768761E+03  0.7818608E-02  0.9454958E-01
         -2   -1    0    0    0  501 -0.00000000000E+00  0.00000000000E+00  0.79797791082E+03  0.79797791083E+03  0.25500000000E-02 0.  1.
          2   -1    0    0  501    0  0.00000000000E+00 -0.00000000000E+00 -0.11181115782E+04  0.11181115782E+04  0.25500000000E-02 0. -1.
    8880022    1    1    2    0    0 -0.86299560929E+03 -0.27542329864E+02  0.19610429233E+03  0.89853689300E+03  0.15294330000E+03 0.  0.
    8880022    1    1    2    0    0  0.86299560929E+03  0.27542329864E+02 -0.51623795968E+03  0.10175525960E+04  0.15294330000E+03 0.  0.
<mgrwt>
<rscale>  0 0.87687608E+03</rscale>
<asrwt>0</asrwt>
<pdfrwt beam="1">  1        2 0.17201717E+00 0.87687608E+03</pdfrwt>
<pdfrwt beam="2">  1       -2 0.12276583E+00 0.87687608E+03</pdfrwt>
<totfact> 0.10697383E+01</totfact>
</mgrwt>
</event>
<event>
 4    1  0.2202466E-008  0.1235733E+04  0.7818608E-02  0.9082142E-01
          2   -1    0    0  501    0  0.00000000000E+00  0.00000000000E+00  0.15225948063E+04  0.15225948063E+04  0.25500000000E-02 0. -1.
         -2   -1    0    0    0  501 -0.00000000000E+00 -0.00000000000E+00 -0.15800411486E+04  0.15800411486E+04  0.25500000000E-02 0.  1.
    8880022    1    1    2    0    0  0.42145909007E+03 -0.11515282133E+04  0.90884130603E+03  0.15339586576E+04  0.15294330000E+03 0.  0.
    8880022    1    1    2    0    0 -0.42145909007E+03  0.11515282133E+04 -0.96628764839E+03  0.15686772973E+04  0.15294330000E+03 0.  0.
<mgrwt>
<rscale>  0 0.12357332E+04</rscale>
<asrwt>0</asrwt>
<pdfrwt beam="1">  1        2 0.23424535E+00 0.12357332E+04</pdfrwt>
<pdfrwt beam="2">  1       -2 0.24308325E+00 0.12357332E+04</pdfrwt>
<totfact> 0.84509633E-01</totfact>
</mgrwt>
</event>
<event>
 4    1  0.2202466E-008  0.1553009E+04  0.7818608E-02  0.8849948E-01
         -2   -1    0    0    0  501 -0.00000000000E+00  0.00000000000E+00  0.18952988447E+04  0.18952988447E+04  0.25500000000E-02 0.  1.
          2   -1    0    0  501    0  0.00000000000E+00 -0.00000000000E+00 -0.14026361158E+04  0.14026361158E+04  0.25500000000E-02 0. -1.
    8880022    1    1    2    0    0 -0.91437409352E+03 -0.12459400461E+04 -0.25586835487E+03  0.15739462663E+04  0.15294330000E+03 0.  0.
    8880022    1    1    2    0    0  0.91437409352E+03  0.12459400461E+04  0.74853108370E+03  0.17239886942E+04  0.15294330000E+03 0.  0.
<mgrwt>
<rscale>  0 0.15530094E+04</rscale>
<asrwt>0</asrwt>
<pdfrwt beam="1">  1        2 0.21579017E+00 0.15530094E+04</pdfrwt>
<pdfrwt beam="2">  1       -2 0.29158444E+00 0.15530094E+04</pdfrwt>
<totfact> 0.48334571E-01</totfact>
</mgrwt>
</event>
<event>
 4    1  0.2202466E-008  0.4445509E+03  0.7818608E-02  0.1029360E+00
          2   -1    0    0  501    0  0.00000000000E+00  0.00000000000E+00  0.27971891584E+04  0.27971891584E+04  0.25500000000E-02 0. -1.
         -2   -1    0    0    0  501 -0.00000000000E+00 -0.00000000000E+00 -0.31401665316E+03  0.31401665317E+03  0.25500000000E-02 0.  1.
    8880022    1    1    2    0    0  0.17538415174E+03  0.37877992024E+03  0.26110534772E+04  0.26486271430E+04  0.15294330000E+03 0.  0.
    8880022    1    1    2    0    0 -0.17538415174E+03 -0.37877992024E+03 -0.12788097194E+03  0.46257866862E+03  0.15294330000E+03 0.  0.
<mgrwt>
<rscale>  0 0.44455088E+03</rscale>
<asrwt>0</asrwt>
<pdfrwt beam="1">  1        2 0.43033680E+00 0.44455088E+03</pdfrwt>
<pdfrwt beam="2">  1       -2 0.48310253E-01 0.44455088E+03</pdfrwt>
<totfact> 0.10677600E+01</totfact>
</mgrwt>
</event>
<event>
 4    1  0.2202466E-008  0.1058593E+04  0.7818608E-02  0.9246517E-01
         -2   -1    0    0    0  501 -0.00000000000E+00  0.00000000000E+00  0.13988603425E+04  0.13988603425E+04  0.25500000000E-02 0.  1.
          2   -1    0    0  501    0  0.00000000000E+00 -0.00000000000E+00 -0.90395839434E+03  0.90395839434E+03  0.25500000000E-02 0. -1.
    8880022    1    1    2    0    0  0.21929210057E+03 -0.10242749014E+04  0.63585737367E+03  0.12348823230E+04  0.15294330000E+03 0.  0.
    8880022    1    1    2    0    0 -0.21929210057E+03  0.10242749014E+04 -0.14095542554E+03  0.10679364138E+04  0.15294330000E+03 0.  0.
<mgrwt>
<rscale>  0 0.10585933E+04</rscale>
<asrwt>0</asrwt>
<pdfrwt beam="1">  1        2 0.13907052E+00 0.10585933E+04</pdfrwt>
<pdfrwt beam="2">  1       -2 0.21520928E+00 0.10585933E+04</pdfrwt>
<totfact> 0.30502520E+00</totfact>
</mgrwt>
</event>
<event>
 4    1  0.2202466E-008  0.1365959E+04  0.7818608E-02  0.8978834E-01
          2   -1    0    0  501    0  0.00000000000E+00  0.00000000000E+00  0.30749063458E+04  0.30749063458E+04  0.25500000000E-02 0. -1.
         -2   -1    0    0    0  501 -0.00000000000E+00 -0.00000000000E+00 -0.73916502809E+03  0.73916502810E+03  0.25500000000E-02 0.  1.
    8880022    1    1    2    0    0 -0.26499814060E+03 -0.13312508212E+04  0.19748815824E+04  0.24012500247E+04  0.15294330000E+03 0.  0.
    8880022    1    1    2    0    0  0.26499814060E+03  0.13312508212E+04  0.36085973534E+03  0.14128213493E+04  0.15294330000E+03 0.  0.
<mgrwt>
<rscale>  0 0.13659592E+04</rscale>
<asrwt>0</asrwt>
<pdfrwt beam="1">  1        2 0.47306250E+00 0.13659592E+04</pdfrwt>
<pdfrwt beam="2">  1       -2 0.11371770E+00 0.13659592E+04</pdfrwt>
<totfact> 0.91708053E-01</totfact>
</mgrwt>
</event>
<event>
 4    1  0.2202466E-008  0.6840171E+03  0.7818608E-02  0.9744962E-01
          2   -1    0    0  501    0  0.00000000000E+00  0.00000000000E+00  0.13250962231E+04  0.13250962231E+04  0.25500000000E-02 0. -1.
         -2   -1    0    0    0  501 -0.00000000000E+00 -0.00000000000E+00 -0.88421258416E+03  0.88421258416E+03  0.25500000000E-02 0.  1.
    8880022    1    1    2    0    0 -0.15915330125E+03  0.64742405049E+03 -0.63569884764E+03  0.93380530752E+03  0.15294330000E+03 0.  0.
    8880022    1    1    2    0    0  0.15915330125E+03 -0.64742405049E+03  0.10765824866E+04  0.12755034998E+04  0.15294330000E+03 0.  0.
<mgrwt>
<rscale>  0 0.68401705E+03</rscale>
<asrwt>0</asrwt>
<pdfrwt beam="1">  1        2 0.20386096E+00 0.68401705E+03</pdfrwt>
<pdfrwt beam="2">  1       -2 0.13603270E+00 0.68401705E+03</pdfrwt>
<totfact> 0.63849733E+00</totfact>
</mgrwt>
</event>
<event>
 4    1  0.2202466E-008  0.7663649E+03  0.7818608E-02  0.9610021E-01
         -2   -1    0    0    0  501 -0.00000000000E+00  0.00000000000E+00  0.27618712704E+03  0.27618712705E+03  0.25500000000E-02 0.  1.
          2   -1    0    0  501    0  0.00000000000E+00 -0.00000000000E+00 -0.30300902900E+04  0.30300902900E+04  0.25500000000E-02 0. -1.
    8880022    1    1    2    0    0  0.63885273070E+03  0.39470329537E+03 -0.22796953041E+04  0.24050625430E+04  0.15294330000E+03 0.  0.
    8880022    1    1    2    0    0 -0.63885273070E+03 -0.39470329537E+03 -0.47420785885E+03  0.90121487411E+03  0.15294330000E+03 0.  0.
<mgrwt>
<rscale>  0 0.76636490E+03</rscale>
<asrwt>0</asrwt>
<pdfrwt beam="1">  1        2 0.46616771E+00 0.76636490E+03</pdfrwt>
<pdfrwt beam="2">  1       -2 0.42490329E-01 0.76636490E+03</pdfrwt>
<totfact> 0.92892806E+00</totfact>
</mgrwt>
</event>
<event>
 4    1  0.2202466E-008  0.4522008E+03  0.7818608E-02  0.1027068E+00
          2   -1    0    0  501    0  0.00000000000E+00  0.00000000000E+00  0.68247025125E+03  0.68247025125E+03  0.25500000000E-02 0. -1.
         -2   -1    0    0    0  501 -0.00000000000E+00 -0.00000000000E+00 -0.44628522600E+03  0.44628522601E+03  0.25500000000E-02 0.  1.
    8880022    1    1    2    0    0 -0.31559974923E+03 -0.28546579919E+03 -0.20544069688E+03  0.49668043767E+03  0.15294330000E+03 0.  0.
    8880022    1    1    2    0    0  0.31559974923E+03  0.28546579919E+03  0.44162572212E+03  0.63207503959E+03  0.15294330000E+03 0.  0.
<mgrwt>
<rscale>  0 0.45220082E+03</rscale>
<asrwt>0</asrwt>
<pdfrwt beam="1">  1        2 0.10499542E+00 0.45220082E+03</pdfrwt>
<pdfrwt beam="2">  1       -2 0.68659265E-01 0.45220082E+03</pdfrwt>
<totfact> 0.85069782E+01</totfact>
</mgrwt>
</event>
<event>
 4    1  0.3744855E-008  0.9978456E+03  0.7818608E-02  0.9310911E-01
         -2   -1    0    0    0  501 -0.00000000000E+00  0.00000000000E+00  0.22642933795E+04  0.22642933795E+04  0.25500000000E-02 0.  1.
          2   -1    0    0  501    0  0.00000000000E+00 -0.00000000000E+00 -0.16057706965E+04  0.16057706965E+04  0.25500000000E-02 0. -1.
    8880022    1    1    2    0    0  0.63973229156E+03 -0.75036447793E+03 -0.13196668939E+04  0.16544535710E+04  0.15294330000E+03 0.  0.
    8880022    1    1    2    0    0 -0.63973229156E+03  0.75036447793E+03  0.19781895770E+04  0.22156105050E+04  0.15294330000E+03 0.  0.
<mgrwt>
<rscale>  0 0.99784563E+03</rscale>
<asrwt>0</asrwt>
<pdfrwt beam="1">  1        2 0.24704164E+00 0.99784563E+03</pdfrwt>
<pdfrwt beam="2">  1       -2 0.34835283E+00 0.99784563E+03</pdfrwt>
<totfact> 0.17881970E-01</totfact>
</mgrwt>
</event>
<event>
 4    1  0.2202466E-008  0.1689188E+04  0.7818608E-02  0.8767555E-01
          2   -1    0    0  501    0  0.00000000000E+00  0.00000000000E+00  0.33968670773E+04  0.33968670773E+04  0.25500000000E-02 0. -1.
         -2   -1    0    0    0  501 -0.00000000000E+00 -0.00000000000E+00 -0.10450287646E+04  0.10450287646E+04  0.25500000000E-02 0.  1.
    8880022    1    1    2    0    0  0.71046044957E+03  0.15248642297E+04  0.19216788902E+03  0.17000838568E+04  0.15294330000E+03 0.  0.
    8880022    1    1    2    0    0 -0.71046044957E+03 -0.15248642297E+04  0.21596704237E+04  0.27418119851E+04  0.15294330000E+03 0.  0.
<mgrwt>
<rscale>  0 0.16891882E+04</rscale>
<asrwt>0</asrwt>
<pdfrwt beam="1">  1        2 0.52259493E+00 0.16891882E+04</pdfrwt>
<pdfrwt beam="2">  1       -2 0.16077366E+00 0.16891882E+04</pdfrwt>
<totfact> 0.22137429E-01</totfact>
</mgrwt>
</event>
<event>
 4    1  0.2202466E-008  0.4604426E+03  0.7818608E-02  0.1024653E+00
         -2   -1    0    0    0  501 -0.00000000000E+00  0.00000000000E+00  0.35853052156E+03  0.35853052156E+03  0.25500000000E-02 0.  1.
          2   -1    0    0  501    0  0.00000000000E+00 -0.00000000000E+00 -0.16504898816E+04  0.16504898816E+04  0.25500000000E-02 0. -1.
    8880022    1    1    2    0    0 -0.42592858460E+03  0.84856365373E+02 -0.14506724034E+04  0.15219914050E+04  0.15294330000E+03 0.  0.
    8880022    1    1    2    0    0  0.42592858460E+03 -0.84856365373E+02  0.15871304333E+03  0.48702899818E+03  0.15294330000E+03 0.  0.
<mgrwt>
<rscale>  0 0.46044263E+03</rscale>
<asrwt>0</asrwt>
<pdfrwt beam="1">  1        2 0.25392152E+00 0.46044263E+03</pdfrwt>
<pdfrwt beam="2">  1       -2 0.55158543E-01 0.46044263E+03</pdfrwt>
<totfact> 0.34587755E+01</totfact>
</mgrwt>
</event>
<event>
 4    1  0.2202466E-008  0.6321272E+03  0.7818608E-02  0.9840906E-01
         -2   -1    0    0    0  501 -0.00000000000E+00  0.00000000000E+00  0.18927957997E+03  0.18927957999E+03  0.25500000000E-02 0.  1.
          2   -1    0    0  501    0  0.00000000000E+00 -0.00000000000E+00 -0.39100784858E+04  0.39100784858E+04  0.25500000000E-02 0. -1.
    8880022    1    1    2    0    0  0.59025889915E+03 -0.16669613381E+03 -0.47010045472E+03  0.78776853174E+03  0.15294330000E+03 0.  1.
    8880022    1    1    2    0    0 -0.59025889915E+03  0.16669613381E+03 -0.32506984511E+04  0.33115895341E+04  0.15294330000E+03 0.  0.
<mgrwt>
<rscale>  0 0.63212722E+03</rscale>
<asrwt>0</asrwt>
<pdfrwt beam="1">  1        2 0.60155048E+00 0.63212722E+03</pdfrwt>
<pdfrwt beam="2">  1       -2 0.29119938E-01 0.63212722E+03</pdfrwt>
<totfact> 0.49498281E+00</totfact>
</mgrwt>
</event>
<event>
 4    1  0.2202466E-008  0.8607508E+03  0.7818608E-02  0.9476020E-01
          2   -1    0    0  501    0  0.00000000000E+00  0.00000000000E+00  0.15614334758E+04  0.15614334758E+04  0.25500000000E-02 0. -1.
         -2   -1    0    0    0  501 -0.00000000000E+00 -0.00000000000E+00 -0.73076923358E+03  0.73076923358E+03  0.25500000000E-02 0.  1.
    8880022    1    1    2    0    0 -0.12135493413E+03  0.83831571188E+03 -0.26338003227E+03  0.90014495901E+03  0.15294330000E+03 0.  0.
    8880022    1    1    2    0    0  0.12135493413E+03 -0.83831571188E+03  0.10940442745E+04  0.13920577504E+04  0.15294330000E+03 0.  0.
<mgrwt>
<rscale>  0 0.86075078E+03</rscale>
<asrwt>0</asrwt>
<pdfrwt beam="1">  1        2 0.24022054E+00 0.86075078E+03</pdfrwt>
<pdfrwt beam="2">  1       -2 0.11242604E+00 0.86075078E+03</pdfrwt>
<totfact> 0.73842879E+00</totfact>
</mgrwt>
</event>
<event>
 4    1  0.2202466E-008  0.8522030E+03  0.7818608E-02  0.9487385E-01
          2   -1    0    0  501    0  0.00000000000E+00  0.00000000000E+00  0.26453116656E+04  0.26453116656E+04  0.25500000000E-02 0. -1.
         -2   -1    0    0    0  501 -0.00000000000E+00 -0.00000000000E+00 -0.53235438074E+03  0.53235438074E+03  0.25500000000E-02 0.  1.
    8880022    1    1    2    0    0 -0.61090294727E+03  0.57415673880E+03 -0.49201346447E+02  0.85362216302E+03  0.15294330000E+03 0.  0.
    8880022    1    1    2    0    0  0.61090294727E+03 -0.57415673880E+03  0.21621586313E+04  0.23240438834E+04  0.15294330000E+03 0.  0.
<mgrwt>
<rscale>  0 0.85220304E+03</rscale>
<asrwt>0</asrwt>
<pdfrwt beam="1">  1        2 0.40697103E+00 0.85220304E+03</pdfrwt>
<pdfrwt beam="2">  1       -2 0.81900674E-01 0.85220304E+03</pdfrwt>
<totfact> 0.38858923E+00</totfact>
</mgrwt>
</event>
<event>
 4    1  0.2202466E-008  0.9353926E+03  0.7818608E-02  0.9382389E-01
          2   -1    0    0  501    0  0.00000000000E+00  0.00000000000E+00  0.26766788685E+04  0.26766788685E+04  0.25500000000E-02 0. -1.
         -2   -1    0    0    0  501 -0.00000000000E+00 -0.00000000000E+00 -0.61589950510E+03  0.61589950510E+03  0.25500000000E-02 0.  1.
    8880022    1    1    2    0    0  0.80324674014E+03  0.45427119303E+03 -0.97360610210E+02  0.94044584309E+03  0.15294330000E+03 0.  0.
    8880022    1    1    2    0    0 -0.80324674014E+03 -0.45427119303E+03  0.21581399737E+04  0.23521325305E+04  0.15294330000E+03 0.  0.
<mgrwt>
<rscale>  0 0.93539259E+03</rscale>
<asrwt>0</asrwt>
<pdfrwt beam="1">  1        2 0.41179675E+00 0.93539259E+03</pdfrwt>
<pdfrwt beam="2">  1       -2 0.94753769E-01 0.93539259E+03</pdfrwt>
<totfact> 0.26286384E+00</totfact>
</mgrwt>
</event>
<event>
 4    1  0.2202466E-008  0.8717148E+03  0.7818608E-02  0.9461647E-01
         -2   -1    0    0    0  501 -0.00000000000E+00  0.00000000000E+00  0.73262600381E+03  0.73262600381E+03  0.25500000000E-02 0.  1.
          2   -1    0    0  501    0  0.00000000000E+00 -0.00000000000E+00 -0.21078592428E+04  0.21078592428E+04  0.25500000000E-02 0. -1.
    8880022    1    1    2    0    0 -0.58040380549E+03  0.63216018641E+03 -0.16998145037E+04  0.19103026145E+04  0.15294330000E+03 0.  0.
    8880022    1    1    2    0    0  0.58040380549E+03 -0.63216018641E+03  0.32458126474E+03  0.93018263215E+03  0.15294330000E+03 0.  0.
<mgrwt>
<rscale>  0 0.87171482E+03</rscale>
<asrwt>0</asrwt>
<pdfrwt beam="1">  1        2 0.32428603E+00 0.87171482E+03</pdfrwt>
<pdfrwt beam="2">  1       -2 0.11271169E+00 0.87171482E+03</pdfrwt>
<totfact> 0.36702639E+00</totfact>
</mgrwt>
</event>
<event>
 4    1  0.2202466E-008  0.1158297E+04  0.7818608E-02  0.9150163E-01
          2   -1    0    0  501    0  0.00000000000E+00  0.00000000000E+00  0.90737721312E+03  0.90737721312E+03  0.25500000000E-02 0. -1.
         -2   -1    0    0    0  501 -0.00000000000E+00 -0.00000000000E+00 -0.19346747348E+04  0.19346747348E+04  0.25500000000E-02 0.  1.
    8880022    1    1    2    0    0  0.10957189755E+04 -0.34301663643E+03 -0.12035927632E+04  0.16704154210E+04  0.15294330000E+03 0.  0.
    8880022    1    1    2    0    0 -0.10957189755E+04  0.34301663643E+03  0.17629524151E+03  0.11716365269E+04  0.15294330000E+03 0.  0.
<mgrwt>
<rscale>  0 0.11582971E+04</rscale>
<asrwt>0</asrwt>
<pdfrwt beam="1">  1        2 0.13959649E+00 0.11582971E+04</pdfrwt>
<pdfrwt beam="2">  1       -2 0.29764227E+00 0.11582971E+04</pdfrwt>
<totfact> 0.93692903E-01</totfact>
</mgrwt>
</event>
<event>
 4    1  0.2202466E-008  0.5447390E+03  0.7818608E-02  0.1002719E+00
          2   -1    0    0  501    0  0.00000000000E+00  0.00000000000E+00  0.13573784425E+04  0.13573784425E+04  0.25500000000E-02 0. -1.
         -2   -1    0    0    0  501 -0.00000000000E+00 -0.00000000000E+00 -0.51314949132E+03  0.51314949133E+03  0.25500000000E-02 0.  1.
    8880022    1    1    2    0    0  0.42538696355E+03 -0.30396529801E+03 -0.28645392095E+03  0.61546443683E+03  0.15294330000E+03 0.  0.
    8880022    1    1    2    0    0 -0.42538696355E+03  0.30396529801E+03  0.11306828721E+04  0.12550634970E+04  0.15294330000E+03 0.  0.
<mgrwt>
<rscale>  0 0.54473904E+03</rscale>
<asrwt>0</asrwt>
<pdfrwt beam="1">  1        2 0.20882745E+00 0.54473904E+03</pdfrwt>
<pdfrwt beam="2">  1       -2 0.78946076E-01 0.54473904E+03</pdfrwt>
<totfact> 0.22898742E+01</totfact>
</mgrwt>
</event>
<event>
 4    1  0.2202466E-008  0.6955921E+03  0.7818608E-02  0.9724800E-01
          2   -1    0    0  501    0  0.00000000000E+00  0.00000000000E+00  0.16011646574E+04  0.16011646574E+04  0.25500000000E-02 0. -1.
         -2   -1    0    0    0  501 -0.00000000000E+00 -0.00000000000E+00 -0.36140487421E+03  0.36140487422E+03  0.25500000000E-02 0.  1.
    8880022    1    1    2    0    0 -0.41932705591E+03 -0.53349928837E+03  0.22266006233E+03  0.73036006660E+03  0.15294330000E+03 0.  0.
    8880022    1    1    2    0    0  0.41932705591E+03  0.53349928837E+03  0.10170997209E+04  0.12322094650E+04  0.15294330000E+03 0.  0.
<mgrwt>
<rscale>  0 0.69559207E+03</rscale>
<asrwt>0</asrwt>
<pdfrwt beam="1">  1        2 0.24633302E+00 0.69559207E+03</pdfrwt>
<pdfrwt beam="2">  1       -2 0.55600750E-01 0.69559207E+03</pdfrwt>
<totfact> 0.34902300E+01</totfact>
</mgrwt>
</event>
<event>
 4    1  0.2202466E-008  0.7689173E+03  0.7818608E-02  0.9606131E-01
         -2   -1    0    0    0  501 -0.00000000000E+00  0.00000000000E+00  0.89644639820E+03  0.89644639820E+03  0.25500000000E-02 0.  1.
          2   -1    0    0  501    0  0.00000000000E+00 -0.00000000000E+00 -0.11122694301E+04  0.11122694301E+04  0.25500000000E-02 0. -1.
    8880022    1    1    2    0    0 -0.39633046525E+03  0.64090892495E+03  0.53286623805E+03  0.93551064582E+03  0.15294330000E+03 0.  0.
    8880022    1    1    2    0    0  0.39633046525E+03 -0.64090892495E+03 -0.74868926998E+03  0.10732051825E+04  0.15294330000E+03 0. -1.
<mgrwt>
<rscale>  0 0.76891725E+03</rscale>
<asrwt>0</asrwt>
<pdfrwt beam="1">  1        2 0.17111837E+00 0.76891725E+03</pdfrwt>
<pdfrwt beam="2">  1       -2 0.13791483E+00 0.76891725E+03</pdfrwt>
<totfact> 0.81292389E+00</totfact>
</mgrwt>
</event>
<event>
 4    1  0.2202466E-008  0.9811229E+03  0.7818608E-02  0.9329495E-01
          2   -1    0    0  501    0  0.00000000000E+00  0.00000000000E+00  0.27708630643E+04  0.27708630643E+04  0.25500000000E-02 0. -1.
         -2   -1    0    0    0  501 -0.00000000000E+00 -0.00000000000E+00 -0.38722289735E+03  0.38722289735E+03  0.25500000000E-02 0.  1.
    8880022    1    1    2    0    0 -0.57744560476E+03  0.77831043376E+03  0.68544626892E+03  0.11968453527E+04  0.15294330000E+03 0.  0.
    8880022    1    1    2    0    0  0.57744560476E+03 -0.77831043376E+03  0.16981938980E+04  0.19612406089E+04  0.15294330000E+03 0.  0.
<mgrwt>
<rscale>  0 0.98112293E+03</rscale>
<asrwt>0</asrwt>
<pdfrwt beam="1">  1        2 0.42628662E+00 0.98112293E+03</pdfrwt>
<pdfrwt beam="2">  1       -2 0.59572754E-01 0.98112293E+03</pdfrwt>
<totfact> 0.64584214E+00</totfact>
</mgrwt>
</event>
<event>
 4    1  0.2202466E-008  0.5018493E+03  0.7818608E-02  0.1013297E+00
         -2   -1    0    0    0  501 -0.00000000000E+00  0.00000000000E+00  0.13423545394E+04  0.13423545394E+04  0.25500000000E-02 0.  1.
          2   -1    0    0  501    0  0.00000000000E+00 -0.00000000000E+00 -0.49241649258E+03  0.49241649259E+03  0.25500000000E-02 0. -1.
    8880022    1    1    2    0    0  0.45664591819E+03  0.14119329939E+03  0.11467251746E+04  0.12517313296E+04  0.15294330000E+03 0.  0.
    8880022    1    1    2    0    0 -0.45664591819E+03 -0.14119329939E+03 -0.29678712776E+03  0.58303970243E+03  0.15294330000E+03 0.  0.
<mgrwt>
<rscale>  0 0.50184928E+03</rscale>
<asrwt>0</asrwt>
<pdfrwt beam="1">  1        2 0.75756382E-01 0.50184928E+03</pdfrwt>
<pdfrwt beam="2">  1       -2 0.20651609E+00 0.50184928E+03</pdfrwt>
<totfact> 0.79814558E+00</totfact>
</mgrwt>
</event>
<event>
 4    1  0.2202466E-008  0.6720957E+03  0.7818608E-02  0.9766179E-01
          2   -1    0    0  501    0  0.00000000000E+00  0.00000000000E+00  0.31181392717E+04  0.31181392717E+04  0.25500000000E-02 0. -1.
         -2   -1    0    0    0  501 -0.00000000000E+00 -0.00000000000E+00 -0.84984889590E+03  0.84984889591E+03  0.25500000000E-02 0.  1.
    8880022    1    1    2    0    0  0.64439143802E+03 -0.11437063630E+03 -0.67285742399E+03  0.95102562209E+03  0.15294330000E+03 0.  0.
    8880022    1    1    2    0    0 -0.64439143802E+03  0.11437063630E+03  0.29411477998E+04  0.30169625455E+04  0.15294330000E+03 0.  0.
<mgrwt>
<rscale>  0 0.67209569E+03</rscale>
<asrwt>0</asrwt>
<pdfrwt beam="1">  1        2 0.47971372E+00 0.67209569E+03</pdfrwt>
<pdfrwt beam="2">  1       -2 0.13074599E+00 0.67209569E+03</pdfrwt>
<totfact> 0.68642814E-01</totfact>
</mgrwt>
</event>
<event>
 4    1  0.2202466E-008  0.8456695E+03  0.7818608E-02  0.9496168E-01
          2   -1    0    0  501    0  0.00000000000E+00  0.00000000000E+00  0.21538321266E+04  0.21538321266E+04  0.25500000000E-02 0. -1.
         -2   -1    0    0    0  501 -0.00000000000E+00 -0.00000000000E+00 -0.86858465858E+03  0.86858465858E+03  0.25500000000E-02 0.  1.
    8880022    1    1    2    0    0  0.78477928158E+03  0.27547556848E+03  0.18303640310E+04  0.20162810936E+04  0.15294330000E+03 0.  0.
    8880022    1    1    2    0    0 -0.78477928158E+03 -0.27547556848E+03 -0.54511656294E+03  0.10061356916E+04  0.15294330000E+03 0.  0.
<mgrwt>
<rscale>  0 0.84566954E+03</rscale>
<asrwt>0</asrwt>
<pdfrwt beam="1">  1        2 0.33135879E+00 0.84566954E+03</pdfrwt>
<pdfrwt beam="2">  1       -2 0.13362841E+00 0.84566954E+03</pdfrwt>
<totfact> 0.22726944E+00</totfact>
</mgrwt>
</event>
<event>
 4    1  0.2202466E-008  0.1800518E+04  0.7818608E-02  0.8706024E-01
          2   -1    0    0  501    0  0.00000000000E+00  0.00000000000E+00  0.16251396482E+04  0.16251396482E+04  0.25500000000E-02 0. -1.
         -2   -1    0    0    0  501 -0.00000000000E+00 -0.00000000000E+00 -0.24237177235E+04  0.24237177235E+04  0.25500000000E-02 0.  1.
    8880022    1    1    2    0    0 -0.13238383697E+04 -0.12107546577E+04 -0.12508909653E+04  0.21923947479E+04  0.15294330000E+03 0.  0.
    8880022    1    1    2    0    0  0.13238383697E+04  0.12107546577E+04  0.45231288996E+03  0.18564626238E+04  0.15294330000E+03 0.  0.
<mgrwt>
<rscale>  0 0.18005184E+04</rscale>
<asrwt>0</asrwt>
<pdfrwt beam="1">  1        2 0.25002148E+00 0.18005184E+04</pdfrwt>
<pdfrwt beam="2">  1       -2 0.37287965E+00 0.18005184E+04</pdfrwt>
<totfact> 0.10935251E-01</totfact>
</mgrwt>
</event>
<event>
 4    1  0.2202466E-008  0.9997722E+03  0.7818608E-02  0.9308795E-01
         -2   -1    0    0    0  501 -0.00000000000E+00  0.00000000000E+00  0.94620405813E+03  0.94620405813E+03  0.25500000000E-02 0.  1.
          2   -1    0    0  501    0  0.00000000000E+00 -0.00000000000E+00 -0.13559383794E+04  0.13559383794E+04  0.25500000000E-02 0. -1.
    8880022    1    1    2    0    0 -0.94545762868E+03 -0.28681452662E+03 -0.74590554732E+03  0.12473649982E+04  0.15294330000E+03 0.  0.
    8880022    1    1    2    0    0  0.94545762868E+03  0.28681452662E+03  0.33617122600E+03  0.10547774393E+04  0.15294330000E+03 0.  0.
<mgrwt>
<rscale>  0 0.99977215E+03</rscale>
<asrwt>0</asrwt>
<pdfrwt beam="1">  1        2 0.20860590E+00 0.99977215E+03</pdfrwt>
<pdfrwt beam="2">  1       -2 0.14556986E+00 0.99977215E+03</pdfrwt>
<totfact> 0.49354851E+00</totfact>
</mgrwt>
</event>
<event>
 4    1  0.2202466E-008  0.1018182E+04  0.7818608E-02  0.9288825E-01
         -2   -1    0    0    0  501 -0.00000000000E+00  0.00000000000E+00  0.30987417915E+03  0.30987417916E+03  0.25500000000E-02 0.  1.
          2   -1    0    0  501    0  0.00000000000E+00 -0.00000000000E+00 -0.41162927224E+04  0.41162927224E+04  0.25500000000E-02 0. -1.
    8880022    1    1    2    0    0  0.59650533398E+03 -0.81085439698E+03 -0.28608517867E+04  0.30366376249E+04  0.15294330000E+03 0.  0.
    8880022    1    1    2    0    0 -0.59650533398E+03  0.81085439698E+03 -0.94556675655E+03  0.13895292767E+04  0.15294330000E+03 0.  0.
<mgrwt>
<rscale>  0 0.10181823E+04</rscale>
<asrwt>0</asrwt>
<pdfrwt beam="1">  1        2 0.63327576E+00 0.10181823E+04</pdfrwt>
<pdfrwt beam="2">  1       -2 0.47672954E-01 0.10181823E+04</pdfrwt>
<totfact> 0.12073046E+00</totfact>
</mgrwt>
</event>
<event>
 4    1  0.2202466E-008  0.4744495E+03  0.7818608E-02  0.1020672E+00
          2   -1    0    0  501    0  0.00000000000E+00  0.00000000000E+00  0.97821263114E+03  0.97821263115E+03  0.25500000000E-02 0. -1.
         -2   -1    0    0    0  501 -0.00000000000E+00 -0.00000000000E+00 -0.51769699318E+03  0.51769699319E+03  0.25500000000E-02 0.  1.
    8880022    1    1    2    0    0 -0.44900855171E+03 -0.10097264218E+02 -0.32720730062E+03  0.57633922723E+03  0.15294330000E+03 0.  0.
    8880022    1    1    2    0    0  0.44900855171E+03  0.10097264218E+02  0.78772293858E+03  0.91957039710E+03  0.15294330000E+03 0.  0.
<mgrwt>
<rscale>  0 0.47444946E+03</rscale>
<asrwt>0</asrwt>
<pdfrwt beam="1">  1        2 0.15049425E+00 0.47444946E+03</pdfrwt>
<pdfrwt beam="2">  1       -2 0.79645692E-01 0.47444946E+03</pdfrwt>
<totfact> 0.38080144E+01</totfact>
</mgrwt>
</event>
<event>
 4    1  0.2202466E-008  0.1422865E+04  0.7818608E-02  0.8937432E-01
         -2   -1    0    0    0  501 -0.00000000000E+00  0.00000000000E+00  0.13489484536E+04  0.13489484536E+04  0.25500000000E-02 0.  1.
          2   -1    0    0  501    0  0.00000000000E+00 -0.00000000000E+00 -0.18888672921E+04  0.18888672921E+04  0.25500000000E-02 0. -1.
    8880022    1    1    2    0    0  0.13630658185E+04 -0.37842237499E+03  0.46380664081E+03  0.14965494220E+04  0.15294330000E+03 0.  0.
    8880022    1    1    2    0    0 -0.13630658185E+04  0.37842237499E+03 -0.10037254794E+04  0.17412663238E+04  0.15294330000E+03 0.  0.
<mgrwt>
<rscale>  0 0.14228646E+04</rscale>
<asrwt>0</asrwt>
<pdfrwt beam="1">  1        2 0.29059497E+00 0.14228646E+04</pdfrwt>
<pdfrwt beam="2">  1       -2 0.20753053E+00 0.14228646E+04</pdfrwt>
<totfact> 0.86612448E-01</totfact>
</mgrwt>
</event>
<event>
 4    1  0.2202466E-008  0.5440221E+03  0.7818608E-02  0.1002887E+00
          2   -1    0    0  501    0  0.00000000000E+00  0.00000000000E+00  0.80176581812E+03  0.80176581812E+03  0.25500000000E-02 0. -1.
         -2   -1    0    0    0  501 -0.00000000000E+00 -0.00000000000E+00 -0.96744876912E+03  0.96744876912E+03  0.25500000000E-02 0.  1.
    8880022    1    1    2    0    0  0.25550279288E+03 -0.45528754783E+03  0.61282473637E+03  0.81945972378E+03  0.15294330000E+03 0. -1.
    8880022    1    1    2    0    0 -0.25550279288E+03  0.45528754783E+03 -0.77850768737E+03  0.94975486347E+03  0.15294330000E+03 0.  0.
<mgrwt>
<rscale>  0 0.54402213E+03</rscale>
<asrwt>0</asrwt>
<pdfrwt beam="1">  1        2 0.12334859E+00 0.54402213E+03</pdfrwt>
<pdfrwt beam="2">  1       -2 0.14883827E+00 0.54402213E+03</pdfrwt>
<totfact> 0.10965880E+01</totfact>
</mgrwt>
</event>
<event>
 4    1  0.2202466E-008  0.5947624E+03  0.7818608E-02  0.9916332E-01
          2   -1    0    0  501    0  0.00000000000E+00  0.00000000000E+00  0.17038887390E+04  0.17038887391E+04  0.25500000000E-02 0. -1.
         -2   -1    0    0    0  501 -0.00000000000E+00 -0.00000000000E+00 -0.73149492888E+03  0.73149492889E+03  0.25500000000E-02 0.  1.
    8880022    1    1    2    0    0 -0.11142827786E+03 -0.56385667875E+03 -0.54430830159E+03  0.80623433037E+03  0.15294330000E+03 0.  0.
    8880022    1    1    2    0    0  0.11142827786E+03  0.56385667875E+03  0.15167021118E+04  0.16291493376E+04  0.15294330000E+03 0.  0.
<mgrwt>
<rscale>  0 0.59476236E+03</rscale>
<asrwt>0</asrwt>
<pdfrwt beam="1">  1        2 0.26213673E+00 0.59476236E+03</pdfrwt>
<pdfrwt beam="2">  1       -2 0.11253768E+00 0.59476236E+03</pdfrwt>
<totfact> 0.64104956E+00</totfact>
</mgrwt>
</event>
<event>
 4    1  0.2202466E-008  0.1380204E+04  0.7818608E-02  0.8968274E-01
          2   -1    0    0  501    0  0.00000000000E+00  0.00000000000E+00  0.23378542389E+04  0.23378542389E+04  0.25500000000E-02 0. -1.
         -2   -1    0    0    0  501 -0.00000000000E+00 -0.00000000000E+00 -0.18905101924E+04  0.18905101924E+04  0.25500000000E-02 0.  1.
    8880022    1    1    2    0    0  0.88795596327E+03 -0.10455166142E+04  0.18184261738E+04  0.22829008270E+04  0.15294330000E+03 0.  0.
    8880022    1    1    2    0    0 -0.88795596327E+03  0.10455166142E+04 -0.13710821273E+04  0.19454636044E+04  0.15294330000E+03 0.  0.
<mgrwt>
<rscale>  0 0.13802038E+04</rscale>
<asrwt>0</asrwt>
<pdfrwt beam="1">  1        2 0.35966988E+00 0.13802038E+04</pdfrwt>
<pdfrwt beam="2">  1       -2 0.29084772E+00 0.13802038E+04</pdfrwt>
<totfact> 0.14862462E-01</totfact>
</mgrwt>
</event>
<event>
 4    1  0.2202466E-008  0.1665012E+04  0.7818608E-02  0.8781575E-01
         -2   -1    0    0    0  501 -0.00000000000E+00  0.00000000000E+00  0.11673088534E+04  0.11673088534E+04  0.25500000000E-02 0.  1.
          2   -1    0    0  501    0  0.00000000000E+00 -0.00000000000E+00 -0.31579658676E+04  0.31579658676E+04  0.25500000000E-02 0. -1.
    8880022    1    1    2    0    0  0.16105202526E+04  0.39382601648E+03 -0.20722235218E+04  0.26582656738E+04  0.15294330000E+03 0.  0.
    8880022    1    1    2    0    0 -0.16105202526E+04 -0.39382601648E+03  0.81566507554E+02  0.16670090472E+04  0.15294330000E+03 0.  0.
<mgrwt>
<rscale>  0 0.16650123E+04</rscale>
<asrwt>0</asrwt>
<pdfrwt beam="1">  1        2 0.48584090E+00 0.16650123E+04</pdfrwt>
<pdfrwt beam="2">  1       -2 0.17958598E+00 0.16650123E+04</pdfrwt>
<totfact> 0.23383068E-01</totfact>
</mgrwt>
</event>
<event>
 4    1  0.2202466E-008  0.8833341E+03  0.7818608E-02  0.9446658E-01
         -2   -1    0    0    0  501 -0.00000000000E+00  0.00000000000E+00  0.39563294116E+03  0.39563294117E+03  0.25500000000E-02 0.  1.
          2   -1    0    0  501    0  0.00000000000E+00 -0.00000000000E+00 -0.23369144704E+04  0.23369144704E+04  0.25500000000E-02 0. -1.
    8880022    1    1    2    0    0 -0.17675869770E+03 -0.85184731973E+03 -0.43091276309E+03  0.98283516205E+03  0.15294330000E+03 0.  0.
    8880022    1    1    2    0    0  0.17675869770E+03  0.85184731973E+03 -0.15103687662E+04  0.17497122495E+04  0.15294330000E+03 0.  0.
<mgrwt>
<rscale>  0 0.88333411E+03</rscale>
<asrwt>0</asrwt>
<pdfrwt beam="1">  1        2 0.35952529E+00 0.88333411E+03</pdfrwt>
<pdfrwt beam="2">  1       -2 0.60866608E-01 0.88333411E+03</pdfrwt>
<totfact> 0.11108705E+01</totfact>
</mgrwt>
</event>
<event>
 4    1  0.2202466E-008  0.1556352E+03  0.7818608E-02  0.1193715E+00
          2   -1    0    0  501    0  0.00000000000E+00  0.00000000000E+00  0.22900229864E+04  0.22900229864E+04  0.25500000000E-02 0. -1.
         -2   -1    0    0    0  501 -0.00000000000E+00 -0.00000000000E+00 -0.40307710753E+03  0.40307710754E+03  0.25500000000E-02 0.  1.
    8880022    1    1    2    0    0 -0.84603740314E+00  0.28808673488E+02 -0.38529195316E+03  0.41553844302E+03  0.15294330000E+03 0.  0.
    8880022    1    1    2    0    0  0.84603740314E+00 -0.28808673488E+02  0.22722378320E+04  0.22775616509E+04  0.15294330000E+03 0.  0.
<mgrwt>
<rscale>  0 0.15563518E+03</rscale>
<asrwt>0</asrwt>
<pdfrwt beam="1">  1        2 0.35231122E+00 0.15563518E+03</pdfrwt>
<pdfrwt beam="2">  1       -2 0.62011864E-01 0.15563518E+03</pdfrwt>
<totfact> 0.14027227E+01</totfact>
</mgrwt>
</event>
<event>
 4    1  0.2202466E-008  0.6899472E+03  0.7818608E-02  0.9734580E-01
          2   -1    0    0  501    0  0.00000000000E+00  0.00000000000E+00  0.13254712503E+04  0.13254712503E+04  0.25500000000E-02 0. -1.
         -2   -1    0    0    0  501 -0.00000000000E+00 -0.00000000000E+00 -0.57534546277E+03  0.57534546278E+03  0.25500000000E-02 0.  1.
    8880022    1    1    2    0    0  0.15045621069E+03  0.65574264425E+03  0.95767728136E+03  0.11803274609E+04  0.15294330000E+03 0.  0.
    8880022    1    1    2    0    0 -0.15045621069E+03 -0.65574264425E+03 -0.20755149384E+03  0.72048925213E+03  0.15294330000E+03 0.  0.
<mgrwt>
<rscale>  0 0.68994720E+03</rscale>
<asrwt>0</asrwt>
<pdfrwt beam="1">  1        2 0.20391865E+00 0.68994720E+03</pdfrwt>
<pdfrwt beam="2">  1       -2 0.88514687E-01 0.68994720E+03</pdfrwt>
<totfact> 0.18048201E+01</totfact>
</mgrwt>
</event>
<event>
 4    1  0.2202466E-008  0.1705676E+04  0.7818608E-02  0.8758134E-01
         -2   -1    0    0    0  501 -0.00000000000E+00  0.00000000000E+00  0.18522049792E+04  0.18522049792E+04  0.25500000000E-02 0.  1.
          2   -1    0    0  501    0  0.00000000000E+00 -0.00000000000E+00 -0.20956915896E+04  0.20956915896E+04  0.25500000000E-02 0. -1.
    8880022    1    1    2    0    0  0.82945733028E+03 -0.14825450569E+04 -0.11096866612E+04  0.20348797133E+04  0.15294330000E+03 0.  0.
    8880022    1    1    2    0    0 -0.82945733028E+03  0.14825450569E+04  0.86620005083E+03  0.19130168555E+04  0.15294330000E+03 0.  0.
<mgrwt>
<rscale>  0 0.17056761E+04</rscale>
<asrwt>0</asrwt>
<pdfrwt beam="1">  1        2 0.32241409E+00 0.17056761E+04</pdfrwt>
<pdfrwt beam="2">  1       -2 0.28495461E+00 0.17056761E+04</pdfrwt>
<totfact> 0.21266835E-01</totfact>
</mgrwt>
</event>
<event>
 4    1  0.2202466E-008  0.4381595E+03  0.7818608E-02  0.1031313E+00
          2   -1    0    0  501    0  0.00000000000E+00  0.00000000000E+00  0.13959444344E+04  0.13959444344E+04  0.25500000000E-02 0. -1.
         -2   -1    0    0    0  501 -0.00000000000E+00 -0.00000000000E+00 -0.30841692742E+03  0.30841692743E+03  0.25500000000E-02 0.  1.
    8880022    1    1    2    0    0  0.84295802535E+02  0.40185360453E+03  0.11780969528E+04  0.12569392130E+04  0.15294330000E+03 0.  0.
    8880022    1    1    2    0    0 -0.84295802535E+02 -0.40185360453E+03 -0.90569445819E+02  0.44742214890E+03  0.15294330000E+03 0.  0.
<mgrwt>
<rscale>  0 0.43815951E+03</rscale>
<asrwt>0</asrwt>
<pdfrwt beam="1">  1        2 0.21476068E+00 0.43815951E+03</pdfrwt>
<pdfrwt beam="2">  1       -2 0.47448758E-01 0.43815951E+03</pdfrwt>
<totfact> 0.64912844E+01</totfact>
</mgrwt>
</event>
<event>
 4    1  0.2202466E-008  0.1200789E+04  0.7818608E-02  0.9112166E-01
         -2   -1    0    0    0  501 -0.00000000000E+00  0.00000000000E+00  0.76082613932E+03  0.76082613933E+03  0.25500000000E-02 0.  1.
          2   -1    0    0  501    0  0.00000000000E+00 -0.00000000000E+00 -0.20407864882E+04  0.20407864882E+04  0.25500000000E-02 0. -1.
    8880022    1    1    2    0    0 -0.10059967412E+04 -0.63755247770E+03 -0.26579567738E+03  0.12298543004E+04  0.15294330000E+03 0.  0.
    8880022    1    1    2    0    0  0.10059967412E+04  0.63755247770E+03 -0.10141646715E+04  0.15717583272E+04  0.15294330000E+03 0.  0.
<mgrwt>
<rscale>  0 0.12007890E+04</rscale>
<asrwt>0</asrwt>
<pdfrwt beam="1">  1        2 0.31396715E+00 0.12007890E+04</pdfrwt>
<pdfrwt beam="2">  1       -2 0.11705018E+00 0.12007890E+04</pdfrwt>
<totfact> 0.34975692E+00</totfact>
</mgrwt>
</event>
<event>
 4    1  0.2202466E-008  0.1446708E+04  0.7818608E-02  0.8920686E-01
         -2   -1    0    0    0  501 -0.00000000000E+00  0.00000000000E+00  0.17839342260E+04  0.17839342260E+04  0.25500000000E-02 0.  1.
          2   -1    0    0  501    0  0.00000000000E+00 -0.00000000000E+00 -0.14663219429E+04  0.14663219429E+04  0.25500000000E-02 0. -1.
    8880022    1    1    2    0    0 -0.44780769329E+03  0.13671285756E+04 -0.56776037222E+03  0.15541286194E+04  0.15294330000E+03 0.  0.
    8880022    1    1    2    0    0  0.44780769329E+03 -0.13671285756E+04  0.88537265531E+03  0.16961275495E+04  0.15294330000E+03 0.  0.
<mgrwt>
<rscale>  0 0.14467080E+04</rscale>
<asrwt>0</asrwt>
<pdfrwt beam="1">  1        2 0.22558799E+00 0.14467080E+04</pdfrwt>
<pdfrwt beam="2">  1       -2 0.27445142E+00 0.14467080E+04</pdfrwt>
<totfact> 0.57126643E-01</totfact>
</mgrwt>
</event>
<event>
 4    1  0.2202466E-008  0.1019185E+04  0.7818608E-02  0.9287750E-01
         -2   -1    0    0    0  501 -0.00000000000E+00  0.00000000000E+00  0.94993880282E+03  0.94993880282E+03  0.25500000000E-02 0.  1.
          2   -1    0    0  501    0  0.00000000000E+00 -0.00000000000E+00 -0.12324946326E+04  0.12324946326E+04  0.25500000000E-02 0. -1.
    8880022    1    1    2    0    0  0.12431863855E+02 -0.10075672664E+04  0.22520229645E+03  0.10437691674E+04  0.15294330000E+03 0.  0.
    8880022    1    1    2    0    0 -0.12431863855E+02  0.10075672664E+04 -0.50775812626E+03  0.11386642680E+04  0.15294330000E+03 0.  0.
<mgrwt>
<rscale>  0 0.10191850E+04</rscale>
<asrwt>0</asrwt>
<pdfrwt beam="1">  1        2 0.18961456E+00 0.10191850E+04</pdfrwt>
<pdfrwt beam="2">  1       -2 0.14614443E+00 0.10191850E+04</pdfrwt>
<totfact> 0.57539094E+00</totfact>
</mgrwt>
</event>
<event>
 4    1  0.2202466E-008  0.3218302E+03  0.7818608E-02  0.1074810E+00
          2   -1    0    0  501    0  0.00000000000E+00  0.00000000000E+00  0.17506899887E+04  0.17506899887E+04  0.25500000000E-02 0. -1.
         -2   -1    0    0    0  501 -0.00000000000E+00 -0.00000000000E+00 -0.86019039166E+03  0.86019039167E+03  0.25500000000E-02 0.  1.
    8880022    1    1    2    0    0 -0.64005927575E+02  0.27583735428E+03 -0.81449794202E+03  0.87577483142E+03  0.15294330000E+03 0.  1.
    8880022    1    1    2    0    0  0.64005927575E+02 -0.27583735428E+03  0.17049975391E+04  0.17351055490E+04  0.15294330000E+03 0.  0.
<mgrwt>
<rscale>  0 0.32183017E+03</rscale>
<asrwt>0</asrwt>
<pdfrwt beam="1">  1        2 0.26933692E+00 0.32183017E+03</pdfrwt>
<pdfrwt beam="2">  1       -2 0.13233699E+00 0.32183017E+03</pdfrwt>
<totfact> 0.43714318E+00</totfact>
</mgrwt>
</event>
<event>
 4    1  0.2202466E-008  0.3508004E+03  0.7818608E-02  0.1062287E+00
         -2   -1    0    0    0  501 -0.00000000000E+00  0.00000000000E+00  0.17152504073E+03  0.17152504075E+03  0.25500000000E-02 0.  1.
          2   -1    0    0  501    0  0.00000000000E+00 -0.00000000000E+00 -0.96354997562E+03  0.96354997562E+03  0.25500000000E-02 0. -1.
    8880022    1    1    2    0    0  0.23190370445E+03  0.21421934119E+03 -0.68283407098E+03  0.76767393845E+03  0.15294330000E+03 0.  0.
    8880022    1    1    2    0    0 -0.23190370445E+03 -0.21421934119E+03 -0.10919086391E+03  0.36740107792E+03  0.15294330000E+03 0.  0.
<mgrwt>
<rscale>  0 0.35080038E+03</rscale>
<asrwt>0</asrwt>
<pdfrwt beam="1">  1        2 0.14823845E+00 0.35080038E+03</pdfrwt>
<pdfrwt beam="2">  1       -2 0.26388468E-01 0.35080038E+03</pdfrwt>
<totfact> 0.35675994E+02</totfact>
</mgrwt>
</event>
<event>
 4    1  0.2202466E-008  0.1195737E+04  0.7818608E-02  0.9116596E-01
         -2   -1    0    0    0  501 -0.00000000000E+00  0.00000000000E+00  0.85943075824E+03  0.85943075824E+03  0.25500000000E-02 0.  1.
          2   -1    0    0  501    0  0.00000000000E+00 -0.00000000000E+00 -0.31472299793E+04  0.31472299793E+04  0.25500000000E-02 0. -1.
    8880022    1    1    2    0    0 -0.11650061548E+04 -0.22171175888E+03 -0.25193491063E+04  0.27887106371E+04  0.15294330000E+03 0.  0.
    8880022    1    1    2    0    0  0.11650061548E+04  0.22171175888E+03  0.23154988526E+03  0.12179501005E+04  0.15294330000E+03 0.  0.
<mgrwt>
<rscale>  0 0.11957371E+04</rscale>
<asrwt>0</asrwt>
<pdfrwt beam="1">  1        2 0.48418922E+00 0.11957371E+04</pdfrwt>
<pdfrwt beam="2">  1       -2 0.13222012E+00 0.11957371E+04</pdfrwt>
<totfact> 0.57781095E-01</totfact>
</mgrwt>
</event>
<event>
 4    1  0.2202466E-008  0.1946315E+03  0.7818608E-02  0.1154349E+00
          2   -1    0    0  501    0  0.00000000000E+00  0.00000000000E+00  0.87429128722E+03  0.87429128723E+03  0.25500000000E-02 0. -1.
         -2   -1    0    0    0  501 -0.00000000000E+00 -0.00000000000E+00 -0.58553148870E+02  0.58553148926E+02  0.25500000000E-02 0.  1.
    8880022    1    1    2    0    0  0.11358908911E+03 -0.39840549614E+02  0.17003006883E+03  0.25844076281E+03  0.15294330000E+03 0.  0.
    8880022    1    1    2    0    0 -0.11358908911E+03  0.39840549614E+02  0.64570806952E+03  0.67440367334E+03  0.15294330000E+03 0. -1.
<mgrwt>
<rscale>  0 0.19463146E+03</rscale>
<asrwt>0</asrwt>
<pdfrwt beam="1">  1        2 0.13450635E+00 0.19463146E+03</pdfrwt>
<pdfrwt beam="2">  1       -2 0.90081768E-02 0.19463146E+03</pdfrwt>
<totfact> 0.24595004E+03</totfact>
</mgrwt>
</event>
<event>
 4    1  0.2202466E-008  0.8798131E+03  0.7818608E-02  0.9451174E-01
          2   -1    0    0  501    0  0.00000000000E+00  0.00000000000E+00  0.20578139328E+04  0.20578139328E+04  0.25500000000E-02 0. -1.
         -2   -1    0    0    0  501 -0.00000000000E+00 -0.00000000000E+00 -0.71640268129E+03  0.71640268129E+03  0.25500000000E-02 0.  1.
    8880022    1    1    2    0    0 -0.64519085556E+03 -0.57828044233E+03  0.16266331485E+04  0.18493259753E+04  0.15294330000E+03 0. -1.
    8880022    1    1    2    0    0  0.64519085556E+03  0.57828044233E+03 -0.28522189704E+03  0.92489063875E+03  0.15294330000E+03 0.  0.
<mgrwt>
<rscale>  0 0.87981314E+03</rscale>
<asrwt>0</asrwt>
<pdfrwt beam="1">  1        2 0.31658676E+00 0.87981314E+03</pdfrwt>
<pdfrwt beam="2">  1       -2 0.11021580E+00 0.87981314E+03</pdfrwt>
<totfact> 0.41246660E+00</totfact>
</mgrwt>
</event>
<event>
 4    1  0.2202466E-008  0.3311355E+03  0.7818608E-02  0.1070636E+00
          2   -1    0    0  501    0  0.00000000000E+00  0.00000000000E+00  0.96437217612E+03  0.96437217612E+03  0.25500000000E-02 0. -1.
         -2   -1    0    0    0  501 -0.00000000000E+00 -0.00000000000E+00 -0.13023764027E+04  0.13023764027E+04  0.25500000000E-02 0.  1.
    8880022    1    1    2    0    0 -0.29171084561E+03 -0.34114993079E+02 -0.12517731173E+04  0.12948307381E+04  0.15294330000E+03 0.  0.
    8880022    1    1    2    0    0  0.29171084561E+03  0.34114993079E+02  0.91376889077E+03  0.97191784064E+03  0.15294330000E+03 0.  0.
<mgrwt>
<rscale>  0 0.33113548E+03</rscale>
<asrwt>0</asrwt>
<pdfrwt beam="1">  1        2 0.14836495E+00 0.33113548E+03</pdfrwt>
<pdfrwt beam="2">  1       -2 0.20036560E+00 0.33113548E+03</pdfrwt>
<totfact> 0.39391483E+00</totfact>
</mgrwt>
</event>
<event>
 4    1  0.2202466E-008  0.1103667E+04  0.7818608E-02  0.9201625E-01
          2   -1    0    0  501    0  0.00000000000E+00  0.00000000000E+00  0.14209658987E+04  0.14209658987E+04  0.25500000000E-02 0. -1.
         -2   -1    0    0    0  501 -0.00000000000E+00 -0.00000000000E+00 -0.97157100534E+03  0.97157100534E+03  0.25500000000E-02 0.  1.
    8880022    1    1    2    0    0  0.53001928079E+03  0.95591252503E+03 -0.18570577114E+03  0.11191816117E+04  0.15294330000E+03 0.  0.
    8880022    1    1    2    0    0 -0.53001928079E+03 -0.95591252503E+03  0.63510066455E+03  0.12733552924E+04  0.15294330000E+03 0.  0.
<mgrwt>
<rscale>  0 0.11036670E+04</rscale>
<asrwt>0</asrwt>
<pdfrwt beam="1">  1        2 0.21861014E+00 0.11036670E+04</pdfrwt>
<pdfrwt beam="2">  1       -2 0.14947246E+00 0.11036670E+04</pdfrwt>
<totfact> 0.41776779E+00</totfact>
</mgrwt>
</event>
<event>
 4    1  0.2202466E-008  0.2859939E+03  0.7818608E-02  0.1092460E+00
          2   -1    0    0  501    0  0.00000000000E+00  0.00000000000E+00  0.78709399445E+03  0.78709399445E+03  0.25500000000E-02 0. -1.
         -2   -1    0    0    0  501 -0.00000000000E+00 -0.00000000000E+00 -0.16912234479E+03  0.16912234481E+03  0.25500000000E-02 0.  1.
    8880022    1    1    2    0    0 -0.20474626717E+03  0.12837367861E+03  0.60585635676E+03  0.66996597923E+03  0.15294330000E+03 0.  0.
    8880022    1    1    2    0    0  0.20474626717E+03 -0.12837367861E+03  0.12115292893E+02  0.28625036003E+03  0.15294330000E+03 0.  1.
<mgrwt>
<rscale>  0 0.28599386E+03</rscale>
<asrwt>0</asrwt>
<pdfrwt beam="1">  1        2 0.12109138E+00 0.28599386E+03</pdfrwt>
<pdfrwt beam="2">  1       -2 0.26018822E-01 0.28599386E+03</pdfrwt>
<totfact> 0.48170225E+02</totfact>
</mgrwt>
</event>
<event>
 4    1  0.2202466E-008  0.7313794E+03  0.7818608E-02  0.9665025E-01
         -2   -1    0    0    0  501 -0.00000000000E+00  0.00000000000E+00  0.94373899556E+03  0.94373899556E+03  0.25500000000E-02 0.  1.
          2   -1    0    0  501    0  0.00000000000E+00 -0.00000000000E+00 -0.12290442249E+04  0.12290442249E+04  0.25500000000E-02 0. -1.
    8880022    1    1    2    0    0  0.63745572187E+03  0.32430599680E+03  0.65480966674E+03  0.98167791540E+03  0.15294330000E+03 0.  0.
    8880022    1    1    2    0    0 -0.63745572187E+03 -0.32430599680E+03 -0.94011489604E+03  0.11911053050E+04  0.15294330000E+03 0.  0.
<mgrwt>
<rscale>  0 0.73137940E+03</rscale>
<asrwt>0</asrwt>
<pdfrwt beam="1">  1        2 0.18908373E+00 0.73137940E+03</pdfrwt>
<pdfrwt beam="2">  1       -2 0.14519061E+00 0.73137940E+03</pdfrwt>
<totfact> 0.60865209E+00</totfact>
</mgrwt>
</event>
<event>
 4    1  0.2202466E-008  0.1635452E+03  0.7818608E-02  0.1184751E+00
          2   -1    0    0  501    0  0.00000000000E+00  0.00000000000E+00  0.59603630113E+03  0.59603630113E+03  0.25500000000E-02 0. -1.
         -2   -1    0    0    0  501 -0.00000000000E+00 -0.00000000000E+00 -0.24687429404E+03  0.24687429405E+03  0.25500000000E-02 0.  1.
    8880022    1    1    2    0    0  0.45488210877E+02 -0.35863758219E+02  0.55581240790E+03  0.57937420746E+03  0.15294330000E+03 0.  0.
    8880022    1    1    2    0    0 -0.45488210877E+02  0.35863758219E+02 -0.20665040081E+03  0.26353638772E+03  0.15294330000E+03 0.  1.
<mgrwt>
<rscale>  0 0.16354522E+03</rscale>
<asrwt>0</asrwt>
<pdfrwt beam="1">  1        2 0.91697893E-01 0.16354522E+03</pdfrwt>
<pdfrwt beam="2">  1       -2 0.37980660E-01 0.16354522E+03</pdfrwt>
<totfact> 0.34001986E+02</totfact>
</mgrwt>
</event>
<event>
 4    1  0.2202466E-008  0.3425697E+03  0.7818608E-02  0.1065707E+00
         -2   -1    0    0    0  501 -0.00000000000E+00  0.00000000000E+00  0.30693942650E+03  0.30693942651E+03  0.25500000000E-02 0.  1.
          2   -1    0    0  501    0  0.00000000000E+00 -0.00000000000E+00 -0.12532626044E+04  0.12532626044E+04  0.25500000000E-02 0. -1.
    8880022    1    1    2    0    0 -0.79523086410E+02  0.29603782979E+03 -0.11234718383E+04  0.11745394597E+04  0.15294330000E+03 0.  0.
    8880022    1    1    2    0    0  0.79523086410E+02 -0.29603782979E+03  0.17714866040E+03  0.38566257121E+03  0.15294330000E+03 0.  0.
<mgrwt>
<rscale>  0 0.34256966E+03</rscale>
<asrwt>0</asrwt>
<pdfrwt beam="1">  1        2 0.19280963E+00 0.34256966E+03</pdfrwt>
<pdfrwt beam="2">  1       -2 0.47221451E-01 0.34256966E+03</pdfrwt>
<totfact> 0.80135477E+01</totfact>
</mgrwt>
</event>
<event>
 4    1  0.2202466E-008  0.1055825E+04  0.7818608E-02  0.9249351E-01
         -2   -1    0    0    0  501 -0.00000000000E+00  0.00000000000E+00  0.15579372974E+04  0.15579372974E+04  0.25500000000E-02 0.  1.
          2   -1    0    0  501    0  0.00000000000E+00 -0.00000000000E+00 -0.17350627666E+04  0.17350627666E+04  0.25500000000E-02 0. -1.
    8880022    1    1    2    0    0  0.80485026190E+03  0.66602594731E+03  0.11735630892E+04  0.15786122019E+04  0.15294330000E+03 0.  0.
    8880022    1    1    2    0    0 -0.80485026190E+03 -0.66602594731E+03 -0.13506885584E+04  0.17143878620E+04  0.15294330000E+03 0. -1.
<mgrwt>
<rscale>  0 0.10558249E+04</rscale>
<asrwt>0</asrwt>
<pdfrwt beam="1">  1        2 0.26693273E+00 0.10558249E+04</pdfrwt>
<pdfrwt beam="2">  1       -2 0.23968266E+00 0.10558249E+04</pdfrwt>
<totfact> 0.69112378E-01</totfact>
</mgrwt>
</event>
<event>
 4    1  0.2202466E-008  0.1099745E+04  0.7818608E-02  0.9205441E-01
         -2   -1    0    0    0  501 -0.00000000000E+00  0.00000000000E+00  0.99475100761E+03  0.99475100762E+03  0.25500000000E-02 0.  1.
          2   -1    0    0  501    0  0.00000000000E+00 -0.00000000000E+00 -0.19958114966E+04  0.19958114966E+04  0.25500000000E-02 0. -1.
    8880022    1    1    2    0    0  0.66939065426E+03  0.85904760620E+03  0.43424677765E+03  0.11823741179E+04  0.15294330000E+03 0.  0.
    8880022    1    1    2    0    0 -0.66939065426E+03 -0.85904760620E+03 -0.14353072666E+04  0.18081883863E+04  0.15294330000E+03 0.  0.
<mgrwt>
<rscale>  0 0.10997446E+04</rscale>
<asrwt>0</asrwt>
<pdfrwt beam="1">  1        2 0.30704792E+00 0.10997446E+04</pdfrwt>
<pdfrwt beam="2">  1       -2 0.15303862E+00 0.10997446E+04</pdfrwt>
<totfact> 0.18787935E+00</totfact>
</mgrwt>
</event>
<event>
 4    1  0.2202466E-008  0.9382544E+03  0.7818608E-02  0.9378986E-01
         -2   -1    0    0    0  501 -0.00000000000E+00  0.00000000000E+00  0.74336016964E+03  0.74336016964E+03  0.25500000000E-02 0.  1.
          2   -1    0    0  501    0  0.00000000000E+00 -0.00000000000E+00 -0.20522801526E+04  0.20522801526E+04  0.25500000000E-02 0. -1.
    8880022    1    1    2    0    0  0.95184612711E+02  0.92079831449E+03  0.25461850835E+03  0.97218922246E+03  0.15294330000E+03 0.  0.
    8880022    1    1    2    0    0 -0.95184612711E+02 -0.92079831449E+03 -0.15635384913E+04  0.18234510997E+04  0.15294330000E+03 0.  0.
<mgrwt>
<rscale>  0 0.93825439E+03</rscale>
<asrwt>0</asrwt>
<pdfrwt beam="1">  1        2 0.31573541E+00 0.93825439E+03</pdfrwt>
<pdfrwt beam="2">  1       -2 0.11436310E+00 0.93825439E+03</pdfrwt>
<totfact> 0.37652888E+00</totfact>
</mgrwt>
</event>
<event>
 4    1  0.2202466E-008  0.1653653E+04  0.7818608E-02  0.8788248E-01
          2   -1    0    0  501    0  0.00000000000E+00  0.00000000000E+00  0.93035706780E+03  0.93035706780E+03  0.25500000000E-02 0. -1.
         -2   -1    0    0    0  501 -0.00000000000E+00 -0.00000000000E+00 -0.30970519194E+04  0.30970519194E+04  0.25500000000E-02 0.  1.
    8880022    1    1    2    0    0 -0.81159948022E+02  0.16445640184E+04 -0.62882855880E+03  0.17691791195E+04  0.15294330000E+03 0.  0.
    8880022    1    1    2    0    0  0.81159948022E+02 -0.16445640184E+04 -0.15378662928E+04  0.22582298677E+04  0.15294330000E+03 0.  0.
<mgrwt>
<rscale>  0 0.16536533E+04</rscale>
<asrwt>0</asrwt>
<pdfrwt beam="1">  1        2 0.14313186E+00 0.16536533E+04</pdfrwt>
<pdfrwt beam="2">  1       -2 0.47646952E+00 0.16536533E+04</pdfrwt>
<totfact> 0.60597729E-02</totfact>
</mgrwt>
</event>
<event>
 4    1  0.2202466E-008  0.1213792E+04  0.7818608E-02  0.9100869E-01
          2   -1    0    0  501    0  0.00000000000E+00  0.00000000000E+00  0.17612913753E+04  0.17612913753E+04  0.25500000000E-02 0. -1.
         -2   -1    0    0    0  501 -0.00000000000E+00 -0.00000000000E+00 -0.98376049918E+03  0.98376049918E+03  0.25500000000E-02 0.  1.
    8880022    1    1    2    0    0  0.11145981027E+04 -0.45559889419E+03  0.91982536686E+03  0.15229476818E+04  0.15294330000E+03 0.  0.
    8880022    1    1    2    0    0 -0.11145981027E+04  0.45559889419E+03 -0.14229449070E+03  0.12221041928E+04  0.15294330000E+03 0.  0.
<mgrwt>
<rscale>  0 0.12137920E+04</rscale>
<asrwt>0</asrwt>
<pdfrwt beam="1">  1        2 0.27096790E+00 0.12137920E+04</pdfrwt>
<pdfrwt beam="2">  1       -2 0.15134777E+00 0.12137920E+04</pdfrwt>
<totfact> 0.25752520E+00</totfact>
</mgrwt>
</event>
<event>
 4    1  0.2202466E-008  0.1250945E+04  0.7818608E-02  0.9069397E-01
         -2   -1    0    0    0  501 -0.00000000000E+00  0.00000000000E+00  0.14845632448E+04  0.14845632448E+04  0.25500000000E-02 0.  1.
          2   -1    0    0  501    0  0.00000000000E+00 -0.00000000000E+00 -0.16154483133E+04  0.16154483133E+04  0.25500000000E-02 0. -1.
    8880022    1    1    2    0    0 -0.12212986649E+04  0.22338519352E+03  0.84826441227E+03  0.15114283112E+04  0.15294330000E+03 0.  0.
    8880022    1    1    2    0    0  0.12212986649E+04 -0.22338519352E+03 -0.97914948077E+03  0.15885832469E+04  0.15294330000E+03 0.  0.
<mgrwt>
<rscale>  0 0.12509449E+04</rscale>
<asrwt>0</asrwt>
<pdfrwt beam="1">  1        2 0.24853051E+00 0.12509449E+04</pdfrwt>
<pdfrwt beam="2">  1       -2 0.22839435E+00 0.12509449E+04</pdfrwt>
<totfact> 0.92286965E-01</totfact>
</mgrwt>
</event>
<event>
 4    1  0.2202466E-008  0.3687528E+03  0.7818608E-02  0.1055171E+00
         -2   -1    0    0    0  501 -0.00000000000E+00  0.00000000000E+00  0.20743597722E+03  0.20743597724E+03  0.25500000000E-02 0.  1.
          2   -1    0    0  501    0  0.00000000000E+00 -0.00000000000E+00 -0.31773614159E+04  0.31773614159E+04  0.25500000000E-02 0. -1.
    8880022    1    1    2    0    0 -0.33053638072E+03 -0.57729354697E+02 -0.29927086932E+04  0.30153414322E+04  0.15294330000E+03 0. -1.
    8880022    1    1    2    0    0  0.33053638072E+03  0.57729354697E+02  0.22783254523E+02  0.36945596094E+03  0.15294330000E+03 0.  0.
<mgrwt>
<rscale>  0 0.36875280E+03</rscale>
<asrwt>0</asrwt>
<pdfrwt beam="1">  1        2 0.48882480E+00 0.36875280E+03</pdfrwt>
<pdfrwt beam="2">  1       -2 0.31913230E-01 0.36875280E+03</pdfrwt>
<totfact> 0.14400956E+01</totfact>
</mgrwt>
</event>
<event>
 4    1  0.2390671E-008  0.1488173E+04  0.7818608E-02  0.8892356E-01
         -2   -1    0    0    0  501 -0.00000000000E+00  0.00000000000E+00  0.19183351038E+04  0.19183351038E+04  0.25500000000E-02 0.  1.
          2   -1    0    0  501    0  0.00000000000E+00 -0.00000000000E+00 -0.25541449733E+04  0.25541449733E+04  0.25500000000E-02 0. -1.
    8880022    1    1    2    0    0  0.97821440608E+03  0.11110195317E+04  0.13375193211E+04  0.20009041484E+04  0.15294330000E+03 0.  0.
    8880022    1    1    2    0    0 -0.97821440608E+03 -0.11110195317E+04 -0.19733291905E+04  0.24715759286E+04  0.15294330000E+03 0.  0.
<mgrwt>
<rscale>  0 0.14881732E+04</rscale>
<asrwt>0</asrwt>
<pdfrwt beam="1">  1        2 0.39294538E+00 0.14881732E+04</pdfrwt>
<pdfrwt beam="2">  1       -2 0.29512848E+00 0.14881732E+04</pdfrwt>
<totfact> 0.10357897E-01</totfact>
</mgrwt>
</event>
<event>
 4    1  0.2202466E-008  0.1057101E+04  0.7818608E-02  0.9248044E-01
          2   -1    0    0  501    0  0.00000000000E+00  0.00000000000E+00  0.12659552128E+04  0.12659552128E+04  0.25500000000E-02 0. -1.
         -2   -1    0    0    0  501 -0.00000000000E+00 -0.00000000000E+00 -0.11755060494E+04  0.11755060494E+04  0.25500000000E-02 0.  1.
    8880022    1    1    2    0    0  0.59597838416E+03  0.85958136924E+03 -0.56402531921E+03  0.11981596632E+04  0.15294330000E+03 0.  0.
    8880022    1    1    2    0    0 -0.59597838416E+03 -0.85958136924E+03  0.65447448259E+03  0.12433015990E+04  0.15294330000E+03 0.  0.
<mgrwt>
<rscale>  0 0.10571008E+04</rscale>
<asrwt>0</asrwt>
<pdfrwt beam="1">  1        2 0.19476234E+00 0.10571008E+04</pdfrwt>
<pdfrwt beam="2">  1       -2 0.18084709E+00 0.10571008E+04</pdfrwt>
<totfact> 0.30509314E+00</totfact>
</mgrwt>
</event>
<event>
 4    1  0.2202466E-008  0.1170292E+04  0.7818608E-02  0.9139264E-01
          2   -1    0    0  501    0  0.00000000000E+00  0.00000000000E+00  0.21558765228E+04  0.21558765228E+04  0.25500000000E-02 0. -1.
         -2   -1    0    0    0  501 -0.00000000000E+00 -0.00000000000E+00 -0.77516963536E+03  0.77516963536E+03  0.25500000000E-02 0.  1.
    8880022    1    1    2    0    0  0.11600916028E+04 -0.19498265822E+02  0.13129227208E+04  0.17587923223E+04  0.15294330000E+03 0.  0.
    8880022    1    1    2    0    0 -0.11600916028E+04  0.19498265822E+02  0.67784166654E+02  0.11722538358E+04  0.15294330000E+03 0.  0.
<mgrwt>
<rscale>  0 0.11702924E+04</rscale>
<asrwt>0</asrwt>
<pdfrwt beam="1">  1        2 0.33167331E+00 0.11702924E+04</pdfrwt>
<pdfrwt beam="2">  1       -2 0.11925687E+00 0.11702924E+04</pdfrwt>
<totfact> 0.28914388E+00</totfact>
</mgrwt>
</event>
<event>
 4    1  0.2202466E-008  0.1086068E+04  0.7818608E-02  0.9218878E-01
         -2   -1    0    0    0  501 -0.00000000000E+00  0.00000000000E+00  0.93907206255E+03  0.93907206256E+03  0.25500000000E-02 0.  1.
          2   -1    0    0  501    0  0.00000000000E+00 -0.00000000000E+00 -0.16889602231E+04  0.16889602232E+04  0.25500000000E-02 0. -1.
    8880022    1    1    2    0    0 -0.27532483165E+03 -0.10393982889E+04 -0.10401831631E+04  0.15038368368E+04  0.15294330000E+03 0.  0.
    8880022    1    1    2    0    0  0.27532483165E+03  0.10393982889E+04  0.29029500251E+03  0.11241954489E+04  0.15294330000E+03 0.  0.
<mgrwt>
<rscale>  0 0.10860682E+04</rscale>
<asrwt>0</asrwt>
<pdfrwt beam="1">  1        2 0.25984003E+00 0.10860682E+04</pdfrwt>
<pdfrwt beam="2">  1       -2 0.14447262E+00 0.10860682E+04</pdfrwt>
<totfact> 0.32393498E+00</totfact>
</mgrwt>
</event>
<event>
 4    1  0.2202466E-008  0.9861096E+03  0.7818608E-02  0.9323912E-01
         -2   -1    0    0    0  501 -0.00000000000E+00  0.00000000000E+00  0.12382633914E+04  0.12382633914E+04  0.25500000000E-02 0.  1.
          2   -1    0    0  501    0  0.00000000000E+00 -0.00000000000E+00 -0.16038287830E+04  0.16038287830E+04  0.25500000000E-02 0. -1.
    8880022    1    1    2    0    0  0.95158358039E+03  0.20858863917E+03  0.83240254388E+03  0.12904674265E+04  0.15294330000E+03 0.  0.
    8880022    1    1    2    0    0 -0.95158358039E+03 -0.20858863917E+03 -0.11979679355E+04  0.15516247479E+04  0.15294330000E+03 0.  0.
<mgrwt>
<rscale>  0 0.98610962E+03</rscale>
<asrwt>0</asrwt>
<pdfrwt beam="1">  1        2 0.24674289E+00 0.98610962E+03</pdfrwt>
<pdfrwt beam="2">  1       -2 0.19050206E+00 0.98610962E+03</pdfrwt>
<totfact> 0.16995145E+00</totfact>
</mgrwt>
</event>
<event>
 4    1  0.2202466E-008  0.4335142E+03  0.7818608E-02  0.1032756E+00
         -2   -1    0    0    0  501 -0.00000000000E+00  0.00000000000E+00  0.21852220673E+03  0.21852220674E+03  0.25500000000E-02 0.  1.
          2   -1    0    0  501    0  0.00000000000E+00 -0.00000000000E+00 -0.20880750782E+04  0.20880750782E+04  0.25500000000E-02 0. -1.
    8880022    1    1    2    0    0 -0.25580826495E+02  0.40483152736E+03 -0.50319412406E+02  0.43642483947E+03  0.15294330000E+03 0.  1.
    8880022    1    1    2    0    0  0.25580826495E+02 -0.40483152736E+03 -0.18192334590E+04  0.18701724454E+04  0.15294330000E+03 0.  0.
<mgrwt>
<rscale>  0 0.43351424E+03</rscale>
<asrwt>0</asrwt>
<pdfrwt beam="1">  1        2 0.32124231E+00 0.43351424E+03</pdfrwt>
<pdfrwt beam="2">  1       -2 0.33618802E-01 0.43351424E+03</pdfrwt>
<totfact> 0.53549969E+01</totfact>
</mgrwt>
</event>
<event>
 4    1  0.2202466E-008  0.1522196E+04  0.7818608E-02  0.8869825E-01
         -2   -1    0    0    0  501 -0.00000000000E+00  0.00000000000E+00  0.14393832841E+04  0.14393832841E+04  0.25500000000E-02 0.  1.
          2   -1    0    0  501    0  0.00000000000E+00 -0.00000000000E+00 -0.19640803198E+04  0.19640803198E+04  0.25500000000E-02 0. -1.
    8880022    1    1    2    0    0 -0.11823020855E+04  0.94649419999E+03 -0.98512034483E+03  0.18131583601E+04  0.15294330000E+03 0.  0.
    8880022    1    1    2    0    0  0.11823020855E+04 -0.94649419999E+03  0.46042330920E+03  0.15903052438E+04  0.15294330000E+03 0.  0.
<mgrwt>
<rscale>  0 0.15221962E+04</rscale>
<asrwt>0</asrwt>
<pdfrwt beam="1">  1        2 0.30216620E+00 0.15221962E+04</pdfrwt>
<pdfrwt beam="2">  1       -2 0.22144358E+00 0.15221962E+04</pdfrwt>
<totfact> 0.63382972E-01</totfact>
</mgrwt>
</event>
<event>
 4    1  0.2202466E-008  0.1221945E+04  0.7818608E-02  0.9093862E-01
          2   -1    0    0  501    0  0.00000000000E+00  0.00000000000E+00  0.25355006882E+04  0.25355006882E+04  0.25500000000E-02 0. -1.
         -2   -1    0    0    0  501 -0.00000000000E+00 -0.00000000000E+00 -0.84588295411E+03  0.84588295412E+03  0.25500000000E-02 0.  1.
    8880022    1    1    2    0    0 -0.75985896486E+03  0.94465431620E+03  0.17766972534E+04  0.21563400026E+04  0.15294330000E+03 0.  0.
    8880022    1    1    2    0    0  0.75985896486E+03 -0.94465431620E+03 -0.87079519271E+02  0.12250436397E+04  0.15294330000E+03 0.  0.
<mgrwt>
<rscale>  0 0.12219448E+04</rscale>
<asrwt>0</asrwt>
<pdfrwt beam="1">  1        2 0.39007702E+00 0.12219448E+04</pdfrwt>
<pdfrwt beam="2">  1       -2 0.13013584E+00 0.12219448E+04</pdfrwt>
<totfact> 0.14053189E+00</totfact>
</mgrwt>
</event>
<event>
 4    1  0.2202466E-008  0.6276404E+03  0.7818608E-02  0.9849664E-01
         -2   -1    0    0    0  501 -0.00000000000E+00  0.00000000000E+00  0.58513389692E+03  0.58513389693E+03  0.25500000000E-02 0.  1.
          2   -1    0    0  501    0  0.00000000000E+00 -0.00000000000E+00 -0.13701863718E+04  0.13701863718E+04  0.25500000000E-02 0. -1.
    8880022    1    1    2    0    0 -0.26734876819E+03  0.54686875269E+03  0.30474124751E+03  0.69771031057E+03  0.15294330000E+03 0.  0.
    8880022    1    1    2    0    0  0.26734876819E+03 -0.54686875269E+03 -0.10897937224E+04  0.12576099582E+04  0.15294330000E+03 0.  0.
<mgrwt>
<rscale>  0 0.62764038E+03</rscale>
<asrwt>0</asrwt>
<pdfrwt beam="1">  1        2 0.21079790E+00 0.62764038E+03</pdfrwt>
<pdfrwt beam="2">  1       -2 0.90020599E-01 0.62764038E+03</pdfrwt>
<totfact> 0.16515849E+01</totfact>
</mgrwt>
</event>
<event>
 4    1  0.2202466E-008  0.1147886E+04  0.7818608E-02  0.9159736E-01
          2   -1    0    0  501    0  0.00000000000E+00  0.00000000000E+00  0.23786222835E+04  0.23786222835E+04  0.25500000000E-02 0. -1.
         -2   -1    0    0    0  501 -0.00000000000E+00 -0.00000000000E+00 -0.99842590359E+03  0.99842590360E+03  0.25500000000E-02 0.  1.
    8880022    1    1    2    0    0  0.38063722431E+03  0.10720852645E+04  0.18167049526E+04  0.21489672052E+04  0.15294330000E+03 0.  0.
    8880022    1    1    2    0    0 -0.38063722431E+03 -0.10720852645E+04 -0.43650857275E+03  0.12280809819E+04  0.15294330000E+03 0.  0.
<mgrwt>
<rscale>  0 0.11478864E+04</rscale>
<asrwt>0</asrwt>
<pdfrwt beam="1">  1        2 0.36594189E+00 0.11478864E+04</pdfrwt>
<pdfrwt beam="2">  1       -2 0.15360399E+00 0.11478864E+04</pdfrwt>
<totfact> 0.11302553E+00</totfact>
</mgrwt>
</event>
<event>
 4    1  0.2202466E-008  0.5397508E+03  0.7818608E-02  0.1003894E+00
          2   -1    0    0  501    0  0.00000000000E+00  0.00000000000E+00  0.25075972966E+04  0.25075972966E+04  0.25500000000E-02 0. -1.
         -2   -1    0    0    0  501 -0.00000000000E+00 -0.00000000000E+00 -0.65694791766E+03  0.65694791767E+03  0.25500000000E-02 0.  1.
    8880022    1    1    2    0    0  0.33658733830E+03 -0.39325338850E+03 -0.51023606335E+03  0.74274609203E+03  0.15294330000E+03 0.  0.
    8880022    1    1    2    0    0 -0.33658733830E+03  0.39325338850E+03  0.23608854422E+04  0.24217991222E+04  0.15294330000E+03 0.  0.
<mgrwt>
<rscale>  0 0.53975079E+03</rscale>
<asrwt>0</asrwt>
<pdfrwt beam="1">  1        2 0.38578419E+00 0.53975079E+03</pdfrwt>
<pdfrwt beam="2">  1       -2 0.10106891E+00 0.53975079E+03</pdfrwt>
<totfact> 0.30575751E+00</totfact>
</mgrwt>
</event>
<event>
 4    1  0.2202466E-008  0.7841164E+03  0.7818608E-02  0.9583297E-01
          2   -1    0    0  501    0  0.00000000000E+00  0.00000000000E+00  0.13130948889E+04  0.13130948889E+04  0.25500000000E-02 0. -1.
         -2   -1    0    0    0  501 -0.00000000000E+00 -0.00000000000E+00 -0.66186212078E+03  0.66186212079E+03  0.25500000000E-02 0.  1.
    8880022    1    1    2    0    0  0.53019443810E+03  0.55708236062E+03 -0.20848738596E+03  0.81136030334E+03  0.15294330000E+03 0.  0.
    8880022    1    1    2    0    0 -0.53019443810E+03 -0.55708236062E+03  0.85972015411E+03  0.11635967064E+04  0.15294330000E+03 0.  0.
<mgrwt>
<rscale>  0 0.78411641E+03</rscale>
<asrwt>0</asrwt>
<pdfrwt beam="1">  1        2 0.20201460E+00 0.78411641E+03</pdfrwt>
<pdfrwt beam="2">  1       -2 0.10182494E+00 0.78411641E+03</pdfrwt>
<totfact> 0.13069949E+01</totfact>
</mgrwt>
</event>
<event>
 4    1  0.2202466E-008  0.7135264E+03  0.7818608E-02  0.9694376E-01
          2   -1    0    0  501    0  0.00000000000E+00  0.00000000000E+00  0.19549245437E+04  0.19549245437E+04  0.25500000000E-02 0. -1.
         -2   -1    0    0    0  501 -0.00000000000E+00 -0.00000000000E+00 -0.99219826351E+03  0.99219826351E+03  0.25500000000E-02 0.  1.
    8880022    1    1    2    0    0  0.14596782360E+03 -0.68148492927E+03  0.17468450700E+04  0.18869519512E+04  0.15294330000E+03 0.  0.
    8880022    1    1    2    0    0 -0.14596782360E+03  0.68148492927E+03 -0.78411878985E+03  0.10601708560E+04  0.15294330000E+03 0.  0.
<mgrwt>
<rscale>  0 0.71352643E+03</rscale>
<asrwt>0</asrwt>
<pdfrwt beam="1">  1        2 0.30075762E+00 0.71352643E+03</pdfrwt>
<pdfrwt beam="2">  1       -2 0.15264589E+00 0.71352643E+03</pdfrwt>
<totfact> 0.21137086E+00</totfact>
</mgrwt>
</event>
<event>
 4    1  0.2202466E-008  0.4674581E+03  0.7818608E-02  0.1022640E+00
         -2   -1    0    0    0  501 -0.00000000000E+00  0.00000000000E+00  0.48606503995E+03  0.48606503996E+03  0.25500000000E-02 0.  1.
          2   -1    0    0  501    0  0.00000000000E+00 -0.00000000000E+00 -0.85034183804E+03  0.85034183805E+03  0.25500000000E-02 0. -1.
    8880022    1    1    2    0    0 -0.14363840578E+03 -0.41772411721E+03 -0.64087571859E+03  0.79324571818E+03  0.15294330000E+03 0.  0.
    8880022    1    1    2    0    0  0.14363840578E+03  0.41772411721E+03  0.27659892050E+03  0.54316115983E+03  0.15294330000E+03 0.  0.
<mgrwt>
<rscale>  0 0.46745811E+03</rscale>
<asrwt>0</asrwt>
<pdfrwt beam="1">  1        2 0.13082182E+00 0.46745811E+03</pdfrwt>
<pdfrwt beam="2">  1       -2 0.74779237E-01 0.46745811E+03</pdfrwt>
<totfact> 0.53191811E+01</totfact>
</mgrwt>
</event>
<event>
 4    1  0.2202466E-008  0.4872941E+03  0.7818608E-02  0.1017150E+00
         -2   -1    0    0    0  501 -0.00000000000E+00  0.00000000000E+00  0.48023269813E+03  0.48023269814E+03  0.25500000000E-02 0.  1.
          2   -1    0    0  501    0  0.00000000000E+00 -0.00000000000E+00 -0.21009971494E+04  0.21009971494E+04  0.25500000000E-02 0. -1.
    8880022    1    1    2    0    0  0.27839527022E+03  0.36954017453E+03  0.31819019499E+03  0.58197982807E+03  0.15294330000E+03 0.  0.
    8880022    1    1    2    0    0 -0.27839527022E+03 -0.36954017453E+03 -0.19389546462E+04  0.19992500194E+04  0.15294330000E+03 0.  0.
<mgrwt>
<rscale>  0 0.48729408E+03</rscale>
<asrwt>0</asrwt>
<pdfrwt beam="1">  1        2 0.32323033E+00 0.48729408E+03</pdfrwt>
<pdfrwt beam="2">  1       -2 0.73881955E-01 0.48729408E+03</pdfrwt>
<totfact> 0.10575688E+01</totfact>
</mgrwt>
</event>
<event>
 4    1  0.2202466E-008  0.3944145E+03  0.7818608E-02  0.1045731E+00
          2   -1    0    0  501    0  0.00000000000E+00  0.00000000000E+00  0.10596197449E+04  0.10596197449E+04  0.25500000000E-02 0. -1.
         -2   -1    0    0    0  501 -0.00000000000E+00 -0.00000000000E+00 -0.61119424258E+03  0.61119424259E+03  0.25500000000E-02 0.  1.
    8880022    1    1    2    0    0  0.25406598964E+03  0.26004152172E+03  0.95240695466E+03  0.10308451777E+04  0.15294330000E+03 0.  0.
    8880022    1    1    2    0    0 -0.25406598964E+03 -0.26004152172E+03 -0.50398145237E+03  0.63996880975E+03  0.15294330000E+03 0.  0.
<mgrwt>
<rscale>  0 0.39441447E+03</rscale>
<asrwt>0</asrwt>
<pdfrwt beam="1">  1        2 0.16301842E+00 0.39441447E+03</pdfrwt>
<pdfrwt beam="2">  1       -2 0.94029884E-01 0.39441447E+03</pdfrwt>
<totfact> 0.23578796E+01</totfact>
</mgrwt>
</event>
<event>
 4    1  0.2202466E-008  0.5027088E+03  0.7818608E-02  0.1013074E+00
         -2   -1    0    0    0  501 -0.00000000000E+00  0.00000000000E+00  0.12899710512E+03  0.12899710514E+03  0.25500000000E-02 0.  1.
          2   -1    0    0  501    0  0.00000000000E+00 -0.00000000000E+00 -0.27014398092E+04  0.27014398092E+04  0.25500000000E-02 0. -1.
    8880022    1    1    2    0    0  0.44725136661E+03 -0.17114528012E+03 -0.20280984030E+04  0.20894734450E+04  0.15294330000E+03 0.  0.
    8880022    1    1    2    0    0 -0.44725136661E+03  0.17114528012E+03 -0.54434430103E+03  0.74096346936E+03  0.15294330000E+03 0.  0.
<mgrwt>
<rscale>  0 0.50270881E+03</rscale>
<asrwt>0</asrwt>
<pdfrwt beam="1">  1        2 0.41560609E+00 0.50270881E+03</pdfrwt>
<pdfrwt beam="2">  1       -2 0.19845710E-01 0.50270881E+03</pdfrwt>
<totfact> 0.62411999E+01</totfact>
</mgrwt>
</event>
<event>
 4    1  0.2202466E-008  0.8171742E+03  0.7818608E-02  0.9535485E-01
         -2   -1    0    0    0  501 -0.00000000000E+00  0.00000000000E+00  0.82285454106E+03  0.82285454106E+03  0.25500000000E-02 0.  1.
          2   -1    0    0  501    0  0.00000000000E+00 -0.00000000000E+00 -0.12629231830E+04  0.12629231830E+04  0.25500000000E-02 0. -1.
    8880022    1    1    2    0    0  0.66794982481E+03 -0.44522479684E+03 -0.84351864995E+03  0.11744349510E+04  0.15294330000E+03 0.  0.
    8880022    1    1    2    0    0 -0.66794982481E+03  0.44522479684E+03  0.40345000798E+03  0.91134277314E+03  0.15294330000E+03 0.  0.
<mgrwt>
<rscale>  0 0.81717424E+03</rscale>
<asrwt>0</asrwt>
<pdfrwt beam="1">  1        2 0.19429587E+00 0.81717424E+03</pdfrwt>
<pdfrwt beam="2">  1       -2 0.12659301E+00 0.81717424E+03</pdfrwt>
<totfact> 0.81723104E+00</totfact>
</mgrwt>
</event>
<event>
 4    1  0.2202466E-008  0.7271016E+03  0.7818608E-02  0.9671975E-01
         -2   -1    0    0    0  501 -0.00000000000E+00  0.00000000000E+00  0.13314320468E+04  0.13314320469E+04  0.25500000000E-02 0.  1.
          2   -1    0    0  501    0  0.00000000000E+00 -0.00000000000E+00 -0.15984478220E+04  0.15984478220E+04  0.25500000000E-02 0. -1.
    8880022    1    1    2    0    0  0.70716808296E+03  0.72099768126E+02 -0.14035254067E+04  0.15806834897E+04  0.15294330000E+03 0. -1.
    8880022    1    1    2    0    0 -0.70716808296E+03 -0.72099768126E+02  0.11365096315E+04  0.13491963792E+04  0.15294330000E+03 0.  0.
<mgrwt>
<rscale>  0 0.72710159E+03</rscale>
<asrwt>0</asrwt>
<pdfrwt beam="1">  1        2 0.24591505E+00 0.72710159E+03</pdfrwt>
<pdfrwt beam="2">  1       -2 0.20483570E+00 0.72710159E+03</pdfrwt>
<totfact> 0.14366496E+00</totfact>
</mgrwt>
</event>
<event>
 4    1  0.2202466E-008  0.3934611E+03  0.7818608E-02  0.1046068E+00
         -2   -1    0    0    0  501 -0.00000000000E+00  0.00000000000E+00  0.96804438998E+02  0.96804439032E+02  0.25500000000E-02 0.  1.
          2   -1    0    0  501    0  0.00000000000E+00 -0.00000000000E+00 -0.30527808833E+04  0.30527808833E+04  0.25500000000E-02 0. -1.
    8880022    1    1    2    0    0 -0.32991068440E+03  0.15026290703E+03 -0.25646442366E+04  0.25946505958E+04  0.15294330000E+03 0.  0.
    8880022    1    1    2    0    0  0.32991068440E+03 -0.15026290703E+03 -0.39133220768E+03  0.55493472652E+03  0.15294330000E+03 0.  0.
<mgrwt>
<rscale>  0 0.39346112E+03</rscale>
<asrwt>0</asrwt>
<pdfrwt beam="1">  1        2 0.46965852E+00 0.39346112E+03</pdfrwt>
<pdfrwt beam="2">  1       -2 0.14892993E-01 0.39346112E+03</pdfrwt>
<totfact> 0.64787159E+01</totfact>
</mgrwt>
</event>
<event>
 4    1  0.2202466E-008  0.8265380E+03  0.7818608E-02  0.9522379E-01
          2   -1    0    0  501    0  0.00000000000E+00  0.00000000000E+00  0.41196153675E+04  0.41196153675E+04  0.25500000000E-02 0. -1.
         -2   -1    0    0    0  501 -0.00000000000E+00 -0.00000000000E+00 -0.30971750301E+03  0.30971750302E+03  0.25500000000E-02 0.  1.
    8880022    1    1    2    0    0  0.76702953505E+03 -0.26728083543E+03  0.34144506818E+04  0.35130668174E+04  0.15294330000E+03 0.  0.
    8880022    1    1    2    0    0 -0.76702953505E+03  0.26728083543E+03  0.39544718269E+03  0.91626605303E+03  0.15294330000E+03 0.  0.
<mgrwt>
<rscale>  0 0.82653796E+03</rscale>
<asrwt>0</asrwt>
<pdfrwt beam="1">  1        2 0.63378696E+00 0.82653796E+03</pdfrwt>
<pdfrwt beam="2">  1       -2 0.47648848E-01 0.82653796E+03</pdfrwt>
<totfact> 0.12480949E+00</totfact>
</mgrwt>
</event>
<event>
 4    1  0.2202466E-008  0.3828957E+03  0.7818608E-02  0.1049869E+00
         -2   -1    0    0    0  501 -0.00000000000E+00  0.00000000000E+00  0.31512916325E+03  0.31512916326E+03  0.25500000000E-02 0.  1.
          2   -1    0    0  501    0  0.00000000000E+00 -0.00000000000E+00 -0.10443274008E+04  0.10443274008E+04  0.25500000000E-02 0. -1.
    8880022    1    1    2    0    0  0.34891871987E+03 -0.38381702604E+02  0.14156456074E+03  0.40822739501E+03  0.15294330000E+03 0.  0.
    8880022    1    1    2    0    0 -0.34891871987E+03  0.38381702604E+02 -0.87076279831E+03  0.95122916908E+03  0.15294330000E+03 0. -1.
<mgrwt>
<rscale>  0 0.38289565E+03</rscale>
<asrwt>0</asrwt>
<pdfrwt beam="1">  1        2 0.16066575E+00 0.38289565E+03</pdfrwt>
<pdfrwt beam="2">  1       -2 0.48481410E-01 0.38289565E+03</pdfrwt>
<totfact> 0.10016125E+02</totfact>
</mgrwt>
</event>
<event>
 4    1  0.2202466E-008  0.1052618E+04  0.7818608E-02  0.9252646E-01
         -2   -1    0    0    0  501 -0.00000000000E+00  0.00000000000E+00  0.11515017575E+04  0.11515017575E+04  0.25500000000E-02 0.  1.
          2   -1    0    0  501    0  0.00000000000E+00 -0.00000000000E+00 -0.14793067321E+04  0.14793067321E+04  0.25500000000E-02 0. -1.
    8880022    1    1    2    0    0 -0.63885230858E+03 -0.82248404877E+03 -0.94159812404E+03  0.14123069648E+04  0.15294330000E+03 0.  0.
    8880022    1    1    2    0    0  0.63885230858E+03  0.82248404877E+03  0.61379314940E+03  0.12185015248E+04  0.15294330000E+03 0.  0.
<mgrwt>
<rscale>  0 0.10526177E+04</rscale>
<asrwt>0</asrwt>
<pdfrwt beam="1">  1        2 0.22758565E+00 0.10526177E+04</pdfrwt>
<pdfrwt beam="2">  1       -2 0.17715412E+00 0.10526177E+04</pdfrwt>
<totfact> 0.24407677E+00</totfact>
</mgrwt>
</event>
<event>
 4    1  0.2202466E-008  0.1004365E+04  0.7818608E-02  0.9303771E-01
         -2   -1    0    0    0  501 -0.00000000000E+00  0.00000000000E+00  0.11716755854E+04  0.11716755854E+04  0.25500000000E-02 0.  1.
          2   -1    0    0  501    0  0.00000000000E+00 -0.00000000000E+00 -0.46882380558E+04  0.46882380558E+04  0.25500000000E-02 0. -1.
    8880022    1    1    2    0    0  0.67286530106E+03 -0.72980063473E+03 -0.44055756675E+04  0.45186109918E+04  0.15294330000E+03 0.  0.
    8880022    1    1    2    0    0 -0.67286530106E+03  0.72980063473E+03  0.88901319704E+03  0.13413026494E+04  0.15294330000E+03 0.  1.
<mgrwt>
<rscale>  0 0.10043646E+04</rscale>
<asrwt>0</asrwt>
<pdfrwt beam="1">  1        2 0.72126738E+00 0.10043646E+04</pdfrwt>
<pdfrwt beam="2">  1       -2 0.18025779E+00 0.10043646E+04</pdfrwt>
<totfact> 0.15382534E-02</totfact>
</mgrwt>
</event>
<event>
 4    1  0.2202466E-008  0.1518561E+04  0.7818608E-02  0.8872203E-01
         -2   -1    0    0    0  501 -0.00000000000E+00  0.00000000000E+00  0.98523305932E+03  0.98523305932E+03  0.25500000000E-02 0.  1.
          2   -1    0    0  501    0  0.00000000000E+00 -0.00000000000E+00 -0.25464121765E+04  0.25464121765E+04  0.25500000000E-02 0. -1.
    8880022    1    1    2    0    0 -0.56234877161E+03  0.14022832952E+04 -0.12826190718E+04  0.19877469449E+04  0.15294330000E+03 0.  0.
    8880022    1    1    2    0    0  0.56234877161E+03 -0.14022832952E+04 -0.27856004547E+03  0.15438982909E+04  0.15294330000E+03 0.  0.
<mgrwt>
<rscale>  0 0.15185606E+04</rscale>
<asrwt>0</asrwt>
<pdfrwt beam="1">  1        2 0.39175572E+00 0.15185606E+04</pdfrwt>
<pdfrwt beam="2">  1       -2 0.15157432E+00 0.15185606E+04</pdfrwt>
<totfact> 0.89896452E-01</totfact>
</mgrwt>
</event>
<event>
 4    1  0.2202466E-008  0.9155362E+03  0.7818608E-02  0.9406366E-01
          2   -1    0    0  501    0  0.00000000000E+00  0.00000000000E+00  0.97971227134E+03  0.97971227134E+03  0.25500000000E-02 0. -1.
         -2   -1    0    0    0  501 -0.00000000000E+00 -0.00000000000E+00 -0.35304083063E+04  0.35304083063E+04  0.25500000000E-02 0.  1.
    8880022    1    1    2    0    0  0.87013107738E+03 -0.24018063689E+03  0.68753740053E+03  0.11449515974E+04  0.15294330000E+03 0.  0.
    8880022    1    1    2    0    0 -0.87013107738E+03  0.24018063689E+03 -0.32382334355E+04  0.33651689803E+04  0.15294330000E+03 0.  0.
<mgrwt>
<rscale>  0 0.91553617E+03</rscale>
<asrwt>0</asrwt>
<pdfrwt beam="1">  1        2 0.15072497E+00 0.91553617E+03</pdfrwt>
<pdfrwt beam="2">  1       -2 0.54313974E+00 0.91553617E+03</pdfrwt>
<totfact> 0.24318880E-02</totfact>
</mgrwt>
</event>
<event>
 4    1  0.2202466E-008  0.1293499E+04  0.7818608E-02  0.9034736E-01
          2   -1    0    0  501    0  0.00000000000E+00  0.00000000000E+00  0.18347307695E+04  0.18347307695E+04  0.25500000000E-02 0. -1.
         -2   -1    0    0    0  501 -0.00000000000E+00 -0.00000000000E+00 -0.13667334174E+04  0.13667334174E+04  0.25500000000E-02 0.  1.
    8880022    1    1    2    0    0  0.10186739342E+01  0.12844251731E+04  0.11573989272E+04  0.17357168527E+04  0.15294330000E+03 0.  0.
    8880022    1    1    2    0    0 -0.10186739342E+01 -0.12844251731E+04 -0.68940157512E+03  0.14657473342E+04  0.15294330000E+03 0.  0.
<mgrwt>
<rscale>  0 0.12934994E+04</rscale>
<asrwt>0</asrwt>
<pdfrwt beam="1">  1        2 0.28226627E+00 0.12934994E+04</pdfrwt>
<pdfrwt beam="2">  1       -2 0.21026668E+00 0.12934994E+04</pdfrwt>
<totfact> 0.90373354E-01</totfact>
</mgrwt>
</event>
<event>
 4    1  0.2202466E-008  0.4169038E+03  0.7818608E-02  0.1038079E+00
          2   -1    0    0  501    0  0.00000000000E+00  0.00000000000E+00  0.15222907408E+04  0.15222907408E+04  0.25500000000E-02 0. -1.
         -2   -1    0    0    0  501 -0.00000000000E+00 -0.00000000000E+00 -0.20962845097E+03  0.20962845098E+03  0.25500000000E-02 0.  1.
    8880022    1    1    2    0    0 -0.15492770499E+03  0.35554816663E+03  0.71989901982E+02  0.42307362429E+03  0.15294330000E+03 0.  0.
    8880022    1    1    2    0    0  0.15492770499E+03 -0.35554816663E+03  0.12406723879E+04  0.13088455675E+04  0.15294330000E+03 0.  0.
<mgrwt>
<rscale>  0 0.41690376E+03</rscale>
<asrwt>0</asrwt>
<pdfrwt beam="1">  1        2 0.23419857E+00 0.41690376E+03</pdfrwt>
<pdfrwt beam="2">  1       -2 0.32250532E-01 0.41690376E+03</pdfrwt>
<totfact> 0.11679733E+02</totfact>
</mgrwt>
</event>
<event>
 4    1  0.2202466E-008  0.1019050E+04  0.7818608E-02  0.9287895E-01
         -2   -1    0    0    0  501 -0.00000000000E+00  0.00000000000E+00  0.21774609201E+04  0.21774609201E+04  0.25500000000E-02 0.  1.
          2   -1    0    0  501    0  0.00000000000E+00 -0.00000000000E+00 -0.18513820565E+04  0.18513820565E+04  0.25500000000E-02 0. -1.
    8880022    1    1    2    0    0  0.10035214857E+04  0.89528352106E+02 -0.15726402965E+04  0.18739423292E+04  0.15294330000E+03 0. -1.
    8880022    1    1    2    0    0 -0.10035214857E+04 -0.89528352106E+02  0.18987191601E+04  0.21549006474E+04  0.15294330000E+03 0.  0.
<mgrwt>
<rscale>  0 0.10190497E+04</rscale>
<asrwt>0</asrwt>
<pdfrwt beam="1">  1        2 0.28482801E+00 0.10190497E+04</pdfrwt>
<pdfrwt beam="2">  1       -2 0.33499399E+00 0.10190497E+04</pdfrwt>
<totfact> 0.15773916E-01</totfact>
</mgrwt>
</event>
<event>
 4    1  0.2202466E-008  0.5567613E+03  0.7818608E-02  0.9999410E-01
          2   -1    0    0  501    0  0.00000000000E+00  0.00000000000E+00  0.20073954759E+04  0.20073954759E+04  0.25500000000E-02 0. -1.
         -2   -1    0    0    0  501 -0.00000000000E+00 -0.00000000000E+00 -0.35953691601E+03  0.35953691602E+03  0.25500000000E-02 0.  1.
    8880022    1    1    2    0    0  0.47983775460E+03  0.23737574494E+03  0.17178196138E+04  0.18057927327E+04  0.15294330000E+03 0.  0.
    8880022    1    1    2    0    0 -0.47983775460E+03 -0.23737574494E+03 -0.69961053917E+02  0.56113965918E+03  0.15294330000E+03 0.  0.
<mgrwt>
<rscale>  0 0.55676132E+03</rscale>
<asrwt>0</asrwt>
<pdfrwt beam="1">  1        2 0.30883007E+00 0.55676132E+03</pdfrwt>
<pdfrwt beam="2">  1       -2 0.55313373E-01 0.55676132E+03</pdfrwt>
<totfact> 0.21686569E+01</totfact>
</mgrwt>
</event>
<event>
 4    1  0.2202466E-008  0.1489193E+04  0.7818608E-02  0.8891671E-01
          2   -1    0    0  501    0  0.00000000000E+00  0.00000000000E+00  0.24176935027E+04  0.24176935027E+04  0.25500000000E-02 0. -1.
         -2   -1    0    0    0  501 -0.00000000000E+00 -0.00000000000E+00 -0.11942247274E+04  0.11942247274E+04  0.25500000000E-02 0.  1.
    8880022    1    1    2    0    0  0.14692186811E+04  0.18894956133E+03  0.14814213973E+04  0.21005490899E+04  0.15294330000E+03 0.  0.
    8880022    1    1    2    0    0 -0.14692186811E+04 -0.18894956133E+03 -0.25795262200E+03  0.15113691402E+04  0.15294330000E+03 0.  0.
<mgrwt>
<rscale>  0 0.14891934E+04</rscale>
<asrwt>0</asrwt>
<pdfrwt beam="1">  1        2 0.37195285E+00 0.14891934E+04</pdfrwt>
<pdfrwt beam="2">  1       -2 0.18372688E+00 0.14891934E+04</pdfrwt>
<totfact> 0.62523332E-01</totfact>
</mgrwt>
</event>
<event>
 4    1  0.2202466E-008  0.6410689E+03  0.7818608E-02  0.9823684E-01
          2   -1    0    0  501    0  0.00000000000E+00  0.00000000000E+00  0.20152441316E+04  0.20152441316E+04  0.25500000000E-02 0. -1.
         -2   -1    0    0    0  501 -0.00000000000E+00 -0.00000000000E+00 -0.97742773829E+03  0.97742773830E+03  0.25500000000E-02 0.  1.
    8880022    1    1    2    0    0  0.35488226005E+02 -0.62154502894E+03  0.18500251747E+04  0.19579485277E+04  0.15294330000E+03 0. -1.
    8880022    1    1    2    0    0 -0.35488226005E+02  0.62154502894E+03 -0.81220878141E+03  0.10347233422E+04  0.15294330000E+03 0.  0.
<mgrwt>
<rscale>  0 0.64106887E+03</rscale>
<asrwt>0</asrwt>
<pdfrwt beam="1">  1        2 0.31003755E+00 0.64106887E+03</pdfrwt>
<pdfrwt beam="2">  1       -2 0.15037350E+00 0.64106887E+03</pdfrwt>
<totfact> 0.20700770E+00</totfact>
</mgrwt>
</event>
<event>
 4    1  0.2202466E-008  0.6909796E+03  0.7818608E-02  0.9732784E-01
         -2   -1    0    0    0  501 -0.00000000000E+00  0.00000000000E+00  0.21100300873E+03  0.21100300875E+03  0.25500000000E-02 0.  1.
          2   -1    0    0  501    0  0.00000000000E+00 -0.00000000000E+00 -0.27232843244E+04  0.27232843244E+04  0.25500000000E-02 0. -1.
    8880022    1    1    2    0    0  0.66387860770E+03  0.11543950933E+03 -0.65282519416E+03  0.95059637766E+03  0.15294330000E+03 0.  0.
    8880022    1    1    2    0    0 -0.66387860770E+03 -0.11543950933E+03 -0.18594561215E+04  0.19836909555E+04  0.15294330000E+03 0.  0.
<mgrwt>
<rscale>  0 0.69097955E+03</rscale>
<asrwt>0</asrwt>
<pdfrwt beam="1">  1        2 0.41896679E+00 0.69097955E+03</pdfrwt>
<pdfrwt beam="2">  1       -2 0.32462003E-01 0.69097955E+03</pdfrwt>
<totfact> 0.24110271E+01</totfact>
</mgrwt>
</event>
<event>
 4    1  0.2202466E-008  0.1482191E+04  0.7818608E-02  0.8896383E-01
          2   -1    0    0  501    0  0.00000000000E+00  0.00000000000E+00  0.20820635387E+04  0.20820635387E+04  0.25500000000E-02 0. -1.
         -2   -1    0    0    0  501 -0.00000000000E+00 -0.00000000000E+00 -0.12723576080E+04  0.12723576080E+04  0.25500000000E-02 0.  1.
    8880022    1    1    2    0    0  0.10866797447E+04  0.99630634389E+03 -0.28812557870E+03  0.15099361577E+04  0.15294330000E+03 0.  0.
    8880022    1    1    2    0    0 -0.10866797447E+04 -0.99630634389E+03  0.10978315095E+04  0.18444849890E+04  0.15294330000E+03 0.  0.
<mgrwt>
<rscale>  0 0.14821912E+04</rscale>
<asrwt>0</asrwt>
<pdfrwt beam="1">  1        2 0.32031747E+00 0.14821912E+04</pdfrwt>
<pdfrwt beam="2">  1       -2 0.19574733E+00 0.14821912E+04</pdfrwt>
<totfact> 0.80305425E-01</totfact>
</mgrwt>
</event>
<event>
 4    1  0.2202466E-008  0.9560112E+03  0.7818608E-02  0.9358152E-01
          2   -1    0    0  501    0  0.00000000000E+00  0.00000000000E+00  0.10821433993E+04  0.10821433993E+04  0.25500000000E-02 0. -1.
         -2   -1    0    0    0  501 -0.00000000000E+00 -0.00000000000E+00 -0.21735012785E+04  0.21735012785E+04  0.25500000000E-02 0.  1.
    8880022    1    1    2    0    0  0.12075080006E+03 -0.93594069747E+03 -0.18185270207E+04  0.20545067347E+04  0.15294330000E+03 0.  0.
    8880022    1    1    2    0    0 -0.12075080006E+03  0.93594069747E+03  0.72716914153E+03  0.12011379431E+04  0.15294330000E+03 0.  0.
<mgrwt>
<rscale>  0 0.95601119E+03</rscale>
<asrwt>0</asrwt>
<pdfrwt beam="1">  1        2 0.16648360E+00 0.95601119E+03</pdfrwt>
<pdfrwt beam="2">  1       -2 0.33438481E+00 0.95601119E+03</pdfrwt>
<totfact> 0.44275846E-01</totfact>
</mgrwt>
</event>
<event>
 4    1  0.2202466E-008  0.3949737E+03  0.7818608E-02  0.1045534E+00
          2   -1    0    0  501    0  0.00000000000E+00  0.00000000000E+00  0.10893578663E+04  0.10893578663E+04  0.25500000000E-02 0. -1.
         -2   -1    0    0    0  501 -0.00000000000E+00 -0.00000000000E+00 -0.53561946768E+03  0.53561946769E+03  0.25500000000E-02 0.  1.
    8880022    1    1    2    0    0  0.33136362496E+03 -0.15103206196E+03  0.97231016760E+03  0.10494718913E+04  0.15294330000E+03 0.  0.
    8880022    1    1    2    0    0 -0.33136362496E+03  0.15103206196E+03 -0.41857176899E+03  0.57550544263E+03  0.15294330000E+03 0.  1.
<mgrwt>
<rscale>  0 0.39497366E+03</rscale>
<asrwt>0</asrwt>
<pdfrwt beam="1">  1        2 0.16759351E+00 0.39497366E+03</pdfrwt>
<pdfrwt beam="2">  1       -2 0.82402996E-01 0.39497366E+03</pdfrwt>
<totfact> 0.30538581E+01</totfact>
</mgrwt>
</event>
<event>
 4    1  0.2202466E-008  0.9777437E+03  0.7818608E-02  0.9333298E-01
         -2   -1    0    0    0  501 -0.00000000000E+00  0.00000000000E+00  0.97483226059E+03  0.97483226059E+03  0.25500000000E-02 0.  1.
          2   -1    0    0  501    0  0.00000000000E+00 -0.00000000000E+00 -0.21600054010E+04  0.21600054010E+04  0.25500000000E-02 0. -1.
    8880022    1    1    2    0    0  0.95491303519E+03 -0.14398686470E+03 -0.17507702429E+04  0.20052878143E+04  0.15294330000E+03 0.  0.
    8880022    1    1    2    0    0 -0.95491303519E+03  0.14398686470E+03  0.56559710250E+03  0.11295498472E+04  0.15294330000E+03 0.  0.
<mgrwt>
<rscale>  0 0.97774372E+03</rscale>
<asrwt>0</asrwt>
<pdfrwt beam="1">  1        2 0.33230852E+00 0.97774372E+03</pdfrwt>
<pdfrwt beam="2">  1       -2 0.14997419E+00 0.97774372E+03</pdfrwt>
<totfact> 0.16353811E+00</totfact>
</mgrwt>
</event>
<event>
 4    1  0.2202466E-008  0.1853136E+04  0.7818608E-02  0.8678542E-01
         -2   -1    0    0    0  501 -0.00000000000E+00  0.00000000000E+00  0.20805923271E+04  0.20805923271E+04  0.25500000000E-02 0.  1.
          2   -1    0    0  501    0  0.00000000000E+00 -0.00000000000E+00 -0.22876312635E+04  0.22876312635E+04  0.25500000000E-02 0. -1.
    8880022    1    1    2    0    0 -0.10001132538E+04  0.15525772017E+04  0.10490855386E+04  0.21294822394E+04  0.15294330000E+03 0.  0.
    8880022    1    1    2    0    0  0.10001132538E+04 -0.15525772017E+04 -0.12561244749E+04  0.22387413511E+04  0.15294330000E+03 0.  0.
<mgrwt>
<rscale>  0 0.18531363E+04</rscale>
<asrwt>0</asrwt>
<pdfrwt beam="1">  1        2 0.35194327E+00 0.18531363E+04</pdfrwt>
<pdfrwt beam="2">  1       -2 0.32009113E+00 0.18531363E+04</pdfrwt>
<totfact> 0.99182439E-02</totfact>
</mgrwt>
</event>
<event>
 4    1  0.2768546E-008  0.1285028E+04  0.7818608E-02  0.9041523E-01
          2   -1    0    0  501    0  0.00000000000E+00  0.00000000000E+00  0.17312582567E+04  0.17312582567E+04  0.25500000000E-02 0. -1.
         -2   -1    0    0    0  501 -0.00000000000E+00 -0.00000000000E+00 -0.21070927144E+04  0.21070927144E+04  0.25500000000E-02 0.  1.
    8880022    1    1    2    0    0  0.12277723829E+04 -0.34710293130E+03  0.12319251610E+04  0.17801507589E+04  0.15294330000E+03 0.  0.
    8880022    1    1    2    0    0 -0.12277723829E+04  0.34710293130E+03 -0.16077596187E+04  0.20582002122E+04  0.15294330000E+03 0.  0.
<mgrwt>
<rscale>  0 0.12850281E+04</rscale>
<asrwt>0</asrwt>
<pdfrwt beam="1">  1        2 0.26634742E+00 0.12850281E+04</pdfrwt>
<pdfrwt beam="2">  1       -2 0.32416811E+00 0.12850281E+04</pdfrwt>
<totfact> 0.20536695E-01</totfact>
</mgrwt>
</event>
<event>
 4    1  0.2202466E-008  0.4908357E+03  0.7818608E-02  0.1016199E+00
         -2   -1    0    0    0  501 -0.00000000000E+00  0.00000000000E+00  0.62568094459E+03  0.62568094459E+03  0.25500000000E-02 0.  1.
          2   -1    0    0  501    0  0.00000000000E+00 -0.00000000000E+00 -0.30107061544E+04  0.30107061544E+04  0.25500000000E-02 0. -1.
    8880022    1    1    2    0    0 -0.27214669364E+03 -0.37876668569E+03 -0.28904617977E+04  0.29318405622E+04  0.15294330000E+03 0.  0.
    8880022    1    1    2    0    0  0.27214669364E+03  0.37876668569E+03  0.50543658793E+03  0.70454653677E+03  0.15294330000E+03 0.  0.
<mgrwt>
<rscale>  0 0.49083569E+03</rscale>
<asrwt>0</asrwt>
<pdfrwt beam="1">  1        2 0.46318555E+00 0.49083569E+03</pdfrwt>
<pdfrwt beam="2">  1       -2 0.96258608E-01 0.49083569E+03</pdfrwt>
<totfact> 0.17736289E+00</totfact>
</mgrwt>
</event>
<event>
 4    1  0.2202466E-008  0.1024862E+04  0.7818608E-02  0.9281689E-01
          2   -1    0    0  501    0  0.00000000000E+00  0.00000000000E+00  0.95190528245E+03  0.95190528246E+03  0.25500000000E-02 0. -1.
         -2   -1    0    0    0  501 -0.00000000000E+00 -0.00000000000E+00 -0.30682797260E+04  0.30682797260E+04  0.25500000000E-02 0.  1.
    8880022    1    1    2    0    0  0.28365632966E+02 -0.10129883194E+04 -0.26667405881E+04  0.28568946360E+04  0.15294330000E+03 0.  0.
    8880022    1    1    2    0    0 -0.28365632966E+02  0.10129883194E+04  0.55036614457E+03  0.11632903724E+04  0.15294330000E+03 0.  0.
<mgrwt>
<rscale>  0 0.10248617E+04</rscale>
<asrwt>0</asrwt>
<pdfrwt beam="1">  1        2 0.14644697E+00 0.10248617E+04</pdfrwt>
<pdfrwt beam="2">  1       -2 0.47204303E+00 0.10248617E+04</pdfrwt>
<totfact> 0.68049156E-02</totfact>
</mgrwt>
</event>
<event>
 4    1  0.2202466E-008  0.7539526E+03  0.7818608E-02  0.9629170E-01
          2   -1    0    0  501    0  0.00000000000E+00  0.00000000000E+00  0.20036758452E+04  0.20036758452E+04  0.25500000000E-02 0. -1.
         -2   -1    0    0    0  501 -0.00000000000E+00 -0.00000000000E+00 -0.55551457072E+03  0.55551457073E+03  0.25500000000E-02 0.  1.
    8880022    1    1    2    0    0 -0.64264322707E+03 -0.36340403598E+03 -0.17099677167E+03  0.77310048480E+03  0.15294330000E+03 0.  0.
    8880022    1    1    2    0    0  0.64264322707E+03  0.36340403598E+03  0.16191580462E+04  0.17860899312E+04  0.15294330000E+03 0.  0.
<mgrwt>
<rscale>  0 0.75395256E+03</rscale>
<asrwt>0</asrwt>
<pdfrwt beam="1">  1        2 0.30825782E+00 0.75395256E+03</pdfrwt>
<pdfrwt beam="2">  1       -2 0.85463781E-01 0.75395256E+03</pdfrwt>
<totfact> 0.81911638E+00</totfact>
</mgrwt>
</event>
<event>
 4    1  0.2202466E-008  0.1065188E+04  0.7818608E-02  0.9239803E-01
         -2   -1    0    0    0  501 -0.00000000000E+00  0.00000000000E+00  0.97924470097E+03  0.97924470097E+03  0.25500000000E-02 0.  1.
          2   -1    0    0  501    0  0.00000000000E+00 -0.00000000000E+00 -0.15715699351E+04  0.15715699351E+04  0.25500000000E-02 0. -1.
    8880022    1    1    2    0    0 -0.60861818535E+03 -0.86070710374E+03 -0.94989927680E+03  0.14272116532E+04  0.15294330000E+03 0.  0.
    8880022    1    1    2    0    0  0.60861818535E+03  0.86070710374E+03  0.35757404271E+03  0.11236029828E+04  0.15294330000E+03 0.  0.
<mgrwt>
<rscale>  0 0.10651875E+04</rscale>
<asrwt>0</asrwt>
<pdfrwt beam="1">  1        2 0.24177999E+00 0.10651875E+04</pdfrwt>
<pdfrwt beam="2">  1       -2 0.15065303E+00 0.10651875E+04</pdfrwt>
<totfact> 0.33776435E+00</totfact>
</mgrwt>
</event>
<event>
 4    1  0.2202466E-008  0.1499894E+04  0.7818608E-02  0.8884523E-01
         -2   -1    0    0    0  501 -0.00000000000E+00  0.00000000000E+00  0.18380146122E+04  0.18380146122E+04  0.25500000000E-02 0.  1.
          2   -1    0    0  501    0  0.00000000000E+00 -0.00000000000E+00 -0.23365871986E+04  0.23365871986E+04  0.25500000000E-02 0. -1.
    8880022    1    1    2    0    0  0.10911914122E+04 -0.10176403882E+04  0.11910574357E+04  0.19152806911E+04  0.15294330000E+03 0.  0.
    8880022    1    1    2    0    0 -0.10911914122E+04  0.10176403882E+04 -0.16896300221E+04  0.22593211197E+04  0.15294330000E+03 0.  0.
<mgrwt>
<rscale>  0 0.14998941E+04</rscale>
<asrwt>0</asrwt>
<pdfrwt beam="1">  1        2 0.35947495E+00 0.14998941E+04</pdfrwt>
<pdfrwt beam="2">  1       -2 0.28277148E+00 0.14998941E+04</pdfrwt>
<totfact> 0.16410912E-01</totfact>
</mgrwt>
</event>
<event>
 4    1  0.2202466E-008  0.6704456E+03  0.7818608E-02  0.9769153E-01
         -2   -1    0    0    0  501 -0.00000000000E+00  0.00000000000E+00  0.49930156437E+03  0.49930156438E+03  0.25500000000E-02 0.  1.
          2   -1    0    0  501    0  0.00000000000E+00 -0.00000000000E+00 -0.23195936546E+04  0.23195936546E+04  0.25500000000E-02 0. -1.
    8880022    1    1    2    0    0  0.60332753212E+03 -0.24920171885E+03 -0.20126659699E+04  0.21213961363E+04  0.15294330000E+03 0.  0.
    8880022    1    1    2    0    0 -0.60332753212E+03  0.24920171885E+03  0.19237387970E+03  0.69749908265E+03  0.15294330000E+03 0.  0.
<mgrwt>
<rscale>  0 0.67044557E+03</rscale>
<asrwt>0</asrwt>
<pdfrwt beam="1">  1        2 0.35686055E+00 0.67044557E+03</pdfrwt>
<pdfrwt beam="2">  1       -2 0.76815627E-01 0.67044557E+03</pdfrwt>
<totfact> 0.70857668E+00</totfact>
</mgrwt>
</event>
<event>
 4    1  0.2202466E-008  0.5496013E+03  0.7818608E-02  0.1001586E+00
         -2   -1    0    0    0  501 -0.00000000000E+00  0.00000000000E+00  0.67211311574E+03  0.67211311574E+03  0.25500000000E-02 0.  1.
          2   -1    0    0  501    0  0.00000000000E+00 -0.00000000000E+00 -0.62971752794E+03  0.62971752794E+03  0.25500000000E-02 0. -1.
    8880022    1    1    2    0    0 -0.40891662088E+03 -0.33385199334E+03 -0.32709583865E+03  0.63957274564E+03  0.15294330000E+03 0.  0.
    8880022    1    1    2    0    0  0.40891662088E+03  0.33385199334E+03  0.36949142645E+03  0.66225789805E+03  0.15294330000E+03 0.  0.
<mgrwt>
<rscale>  0 0.54960132E+03</rscale>
<asrwt>0</asrwt>
<pdfrwt beam="1">  1        2 0.96879619E-01 0.54960132E+03</pdfrwt>
<pdfrwt beam="2">  1       -2 0.10340202E+00 0.54960132E+03</pdfrwt>
<totfact> 0.36779538E+01</totfact>
</mgrwt>
</event>
<event>
 4    1  0.2202466E-008  0.1701157E+04  0.7818608E-02  0.8760705E-01
          2   -1    0    0  501    0  0.00000000000E+00  0.00000000000E+00  0.21345736813E+04  0.21345736813E+04  0.25500000000E-02 0. -1.
         -2   -1    0    0    0  501 -0.00000000000E+00 -0.00000000000E+00 -0.17711128992E+04  0.17711128992E+04  0.25500000000E-02 0.  1.
    8880022    1    1    2    0    0  0.75088137499E+03  0.15187888340E+04 -0.76398751691E+03  0.18648353656E+04  0.15294330000E+03 0.  0.
    8880022    1    1    2    0    0 -0.75088137499E+03 -0.15187888340E+04  0.11274482990E+04  0.20408512149E+04  0.15294330000E+03 0.  0.
<mgrwt>
<rscale>  0 0.17011567E+04</rscale>
<asrwt>0</asrwt>
<pdfrwt beam="1">  1        2 0.32839595E+00 0.17011567E+04</pdfrwt>
<pdfrwt beam="2">  1       -2 0.27247891E+00 0.17011567E+04</pdfrwt>
<totfact> 0.24116589E-01</totfact>
</mgrwt>
</event>
<event>
 4    1  0.2202466E-008  0.4307944E+03  0.7818608E-02  0.1033609E+00
         -2   -1    0    0    0  501 -0.00000000000E+00  0.00000000000E+00  0.43224433304E+03  0.43224433304E+03  0.25500000000E-02 0.  1.
          2   -1    0    0  501    0  0.00000000000E+00 -0.00000000000E+00 -0.22430053913E+04  0.22430053913E+04  0.25500000000E-02 0. -1.
    8880022    1    1    2    0    0 -0.10315023365E+03  0.38929706012E+03 -0.21081894394E+04  0.21517542929E+04  0.15294330000E+03 0. -1.
    8880022    1    1    2    0    0  0.10315023365E+03 -0.38929706012E+03  0.29742838118E+03  0.52349543137E+03  0.15294330000E+03 0.  0.
<mgrwt>
<rscale>  0 0.43079441E+03</rscale>
<asrwt>0</asrwt>
<pdfrwt beam="1">  1        2 0.34507775E+00 0.43079441E+03</pdfrwt>
<pdfrwt beam="2">  1       -2 0.66499130E-01 0.43079441E+03</pdfrwt>
<totfact> 0.11297896E+01</totfact>
</mgrwt>
</event>
<event>
 4    1  0.2202466E-008  0.8866152E+03  0.7818608E-02  0.9442469E-01
          2   -1    0    0  501    0  0.00000000000E+00  0.00000000000E+00  0.13161260984E+04  0.13161260984E+04  0.25500000000E-02 0. -1.
         -2   -1    0    0    0  501 -0.00000000000E+00 -0.00000000000E+00 -0.13313550889E+04  0.13313550889E+04  0.25500000000E-02 0.  1.
    8880022    1    1    2    0    0 -0.84083098847E+03 -0.23600447496E+03  0.97532834728E+03  0.13180864544E+04  0.15294330000E+03 0.  0.
    8880022    1    1    2    0    0  0.84083098847E+03  0.23600447496E+03 -0.99055733774E+03  0.13293947329E+04  0.15294330000E+03 0.  0.
<mgrwt>
<rscale>  0 0.88661520E+03</rscale>
<asrwt>0</asrwt>
<pdfrwt beam="1">  1        2 0.20248094E+00 0.88661520E+03</pdfrwt>
<pdfrwt beam="2">  1       -2 0.20482386E+00 0.88661520E+03</pdfrwt>
<totfact> 0.20171012E+00</totfact>
</mgrwt>
</event>
<event>
 4    1  0.2202466E-008  0.1121485E+04  0.7818608E-02  0.9184501E-01
          2   -1    0    0  501    0  0.00000000000E+00  0.00000000000E+00  0.28652909975E+04  0.28652909975E+04  0.25500000000E-02 0. -1.
         -2   -1    0    0    0  501 -0.00000000000E+00 -0.00000000000E+00 -0.14579325648E+04  0.14579325648E+04  0.25500000000E-02 0.  1.
    8880022    1    1    2    0    0  0.56298688966E+03  0.95780092024E+03 -0.11034603173E+04  0.15733255116E+04  0.15294330000E+03 0.  0.
    8880022    1    1    2    0    0 -0.56298688966E+03 -0.95780092024E+03  0.25108187500E+04  0.27498980507E+04  0.15294330000E+03 0.  0.
<mgrwt>
<rscale>  0 0.11214850E+04</rscale>
<asrwt>0</asrwt>
<pdfrwt beam="1">  1        2 0.44081400E+00 0.11214850E+04</pdfrwt>
<pdfrwt beam="2">  1       -2 0.22429732E+00 0.11214850E+04</pdfrwt>
<totfact> 0.19474183E-01</totfact>
</mgrwt>
</event>
<event>
 4    1  0.2202466E-008  0.3814219E+03  0.7818608E-02  0.1050409E+00
         -2   -1    0    0    0  501 -0.00000000000E+00  0.00000000000E+00  0.38721556242E+03  0.38721556242E+03  0.25500000000E-02 0.  1.
          2   -1    0    0  501    0  0.00000000000E+00 -0.00000000000E+00 -0.30148854136E+04  0.30148854136E+04  0.25500000000E-02 0. -1.
    8880022    1    1    2    0    0  0.60668093733E+02  0.34410813723E+03 -0.29053674511E+04  0.29302973752E+04  0.15294330000E+03 0.  0.
    8880022    1    1    2    0    0 -0.60668093733E+02 -0.34410813723E+03  0.27769759999E+03  0.47180360083E+03  0.15294330000E+03 0.  0.
<mgrwt>
<rscale>  0 0.38142192E+03</rscale>
<asrwt>0</asrwt>
<pdfrwt beam="1">  1        2 0.46382851E+00 0.38142192E+03</pdfrwt>
<pdfrwt beam="2">  1       -2 0.59571627E-01 0.38142192E+03</pdfrwt>
<totfact> 0.52870754E+00</totfact>
</mgrwt>
</event>
<event>
 4    1  0.2202466E-008  0.7832673E+03  0.7818608E-02  0.9584558E-01
          2   -1    0    0  501    0  0.00000000000E+00  0.00000000000E+00  0.41940592506E+03  0.41940592506E+03  0.25500000000E-02 0. -1.
         -2   -1    0    0    0  501 -0.00000000000E+00 -0.00000000000E+00 -0.16690702899E+04  0.16690702899E+04  0.25500000000E-02 0.  1.
    8880022    1    1    2    0    0 -0.49715746071E+03  0.58561977222E+03 -0.25773694820E+03  0.82458234630E+03  0.15294330000E+03 0.  0.
    8880022    1    1    2    0    0  0.49715746071E+03 -0.58561977222E+03 -0.99192741666E+03  0.12638938687E+04  0.15294330000E+03 0.  0.
<mgrwt>
<rscale>  0 0.78326733E+03</rscale>
<asrwt>0</asrwt>
<pdfrwt beam="1">  1        2 0.64523990E-01 0.78326733E+03</pdfrwt>
<pdfrwt beam="2">  1       -2 0.25678004E+00 0.78326733E+03</pdfrwt>
<totfact> 0.45136124E+00</totfact>
</mgrwt>
</event>
<event>
 4    1  0.2202466E-008  0.7849191E+03  0.7818608E-02  0.9582106E-01
         -2   -1    0    0    0  501 -0.00000000000E+00  0.00000000000E+00  0.96415622779E+03  0.96415622779E+03  0.25500000000E-02 0.  1.
          2   -1    0    0  501    0  0.00000000000E+00 -0.00000000000E+00 -0.19932530704E+04  0.19932530704E+04  0.25500000000E-02 0. -1.
    8880022    1    1    2    0    0 -0.57304915613E+03  0.51412160683E+03  0.70430019447E+03  0.10545789581E+04  0.15294330000E+03 0.  0.
    8880022    1    1    2    0    0  0.57304915613E+03 -0.51412160683E+03 -0.17333970371E+04  0.19028303401E+04  0.15294330000E+03 0.  0.
<mgrwt>
<rscale>  0 0.78491911E+03</rscale>
<asrwt>0</asrwt>
<pdfrwt beam="1">  1        2 0.30665432E+00 0.78491911E+03</pdfrwt>
<pdfrwt beam="2">  1       -2 0.14833173E+00 0.78491911E+03</pdfrwt>
<totfact> 0.21448967E+00</totfact>
</mgrwt>
</event>
<event>
 4    1  0.2202466E-008  0.5294382E+03  0.7818608E-02  0.1006368E+00
         -2   -1    0    0    0  501 -0.00000000000E+00  0.00000000000E+00  0.79951931336E+03  0.79951931336E+03  0.25500000000E-02 0.  1.
          2   -1    0    0  501    0  0.00000000000E+00 -0.00000000000E+00 -0.52656806372E+03  0.52656806373E+03  0.25500000000E-02 0. -1.
    8880022    1    1    2    0    0 -0.89586919548E+02 -0.49888605702E+03 -0.24682732592E+03  0.58414766616E+03  0.15294330000E+03 0.  0.
    8880022    1    1    2    0    0  0.89586919548E+02  0.49888605702E+03  0.51977857555E+03  0.74193971093E+03  0.15294330000E+03 0.  0.
<mgrwt>
<rscale>  0 0.52943816E+03</rscale>
<asrwt>0</asrwt>
<pdfrwt beam="1">  1        2 0.81010471E-01 0.52943816E+03</pdfrwt>
<pdfrwt beam="2">  1       -2 0.12300297E+00 0.52943816E+03</pdfrwt>
<totfact> 0.29904135E+01</totfact>
</mgrwt>
</event>
<event>
 4    1  0.2202466E-008  0.1101632E+04  0.7818608E-02  0.9203603E-01
          2   -1    0    0  501    0  0.00000000000E+00  0.00000000000E+00  0.14878499368E+04  0.14878499368E+04  0.25500000000E-02 0. -1.
         -2   -1    0    0    0  501 -0.00000000000E+00 -0.00000000000E+00 -0.17741200415E+04  0.17741200415E+04  0.25500000000E-02 0.  1.
    8880022    1    1    2    0    0 -0.94702536921E+03  0.54161189848E+03 -0.13419263172E+04  0.17361907707E+04  0.15294330000E+03 0.  0.
    8880022    1    1    2    0    0  0.94702536921E+03 -0.54161189848E+03  0.10556562125E+04  0.15257792077E+04  0.15294330000E+03 0.  0.
<mgrwt>
<rscale>  0 0.11016316E+04</rscale>
<asrwt>0</asrwt>
<pdfrwt beam="1">  1        2 0.22889999E+00 0.11016316E+04</pdfrwt>
<pdfrwt beam="2">  1       -2 0.27294154E+00 0.11016316E+04</pdfrwt>
<totfact> 0.59148223E-01</totfact>
</mgrwt>
</event>
<event>
 4    1  0.2202466E-008  0.1013122E+04  0.7818608E-02  0.9294268E-01
         -2   -1    0    0    0  501 -0.00000000000E+00  0.00000000000E+00  0.71251509351E+03  0.71251509352E+03  0.25500000000E-02 0.  1.
          2   -1    0    0  501    0  0.00000000000E+00 -0.00000000000E+00 -0.25213218802E+04  0.25213218802E+04  0.25500000000E-02 0. -1.
    8880022    1    1    2    0    0 -0.99921869305E+03 -0.67727881835E+02 -0.19630234673E+04  0.22090445556E+04  0.15294330000E+03 0.  0.
    8880022    1    1    2    0    0  0.99921869305E+03  0.67727881835E+02  0.15421668066E+03  0.10247924181E+04  0.15294330000E+03 0.  0.
<mgrwt>
<rscale>  0 0.10131223E+04</rscale>
<asrwt>0</asrwt>
<pdfrwt beam="1">  1        2 0.38789567E+00 0.10131223E+04</pdfrwt>
<pdfrwt beam="2">  1       -2 0.10961771E+00 0.10131223E+04</pdfrwt>
<totfact> 0.22559928E+00</totfact>
</mgrwt>
</event>
<event>
 4    1  0.2202466E-008  0.1348039E+04  0.7818608E-02  0.8992314E-01
         -2   -1    0    0    0  501 -0.00000000000E+00  0.00000000000E+00  0.25601113717E+04  0.25601113717E+04  0.25500000000E-02 0.  1.
          2   -1    0    0  501    0  0.00000000000E+00 -0.00000000000E+00 -0.94426051135E+03  0.94426051135E+03  0.25500000000E-02 0. -1.
    8880022    1    1    2    0    0  0.83075737791E+02  0.13367561333E+04  0.16810043944E+04  0.21547589111E+04  0.15294330000E+03 0.  0.
    8880022    1    1    2    0    0 -0.83075737791E+02 -0.13367561333E+04 -0.65153534052E+02  0.13496129719E+04  0.15294330000E+03 0.  0.
<mgrwt>
<rscale>  0 0.13480394E+04</rscale>
<asrwt>0</asrwt>
<pdfrwt beam="1">  1        2 0.14527085E+00 0.13480394E+04</pdfrwt>
<pdfrwt beam="2">  1       -2 0.39386329E+00 0.13480394E+04</pdfrwt>
<totfact> 0.21572757E-01</totfact>
</mgrwt>
</event>
<event>
 4    1  0.2202466E-008  0.5019414E+03  0.7818608E-02  0.1013273E+00
         -2   -1    0    0    0  501 -0.00000000000E+00  0.00000000000E+00  0.85222587559E+03  0.85222587559E+03  0.25500000000E-02 0.  1.
          2   -1    0    0  501    0  0.00000000000E+00 -0.00000000000E+00 -0.94756677277E+03  0.94756677277E+03  0.25500000000E-02 0. -1.
    8880022    1    1    2    0    0  0.46132425553E+03  0.12543323879E+03  0.69876051620E+03  0.86035543711E+03  0.15294330000E+03 0.  0.
    8880022    1    1    2    0    0 -0.46132425553E+03 -0.12543323879E+03 -0.79410141339E+03  0.93943721126E+03  0.15294330000E+03 0.  0.
<mgrwt>
<rscale>  0 0.50194145E+03</rscale>
<asrwt>0</asrwt>
<pdfrwt beam="1">  1        2 0.14577950E+00 0.50194145E+03</pdfrwt>
<pdfrwt beam="2">  1       -2 0.13111167E+00 0.50194145E+03</pdfrwt>
<totfact> 0.12188782E+01</totfact>
</mgrwt>
</event>
<event>
 4    1  0.2202466E-008  0.7627929E+03  0.7818608E-02  0.9615491E-01
          2   -1    0    0  501    0  0.00000000000E+00  0.00000000000E+00  0.13509637533E+04  0.13509637533E+04  0.25500000000E-02 0. -1.
         -2   -1    0    0    0  501 -0.00000000000E+00 -0.00000000000E+00 -0.56939677358E+03  0.56939677359E+03  0.25500000000E-02 0.  1.
    8880022    1    1    2    0    0 -0.74706153154E+03 -0.18982899461E+02  0.86468352691E+03  0.11530527035E+04  0.15294330000E+03 0.  0.
    8880022    1    1    2    0    0  0.74706153154E+03  0.18982899461E+02 -0.83116547184E+02  0.76730782338E+03  0.15294330000E+03 0.  0.
<mgrwt>
<rscale>  0 0.76279285E+03</rscale>
<asrwt>0</asrwt>
<pdfrwt beam="1">  1        2 0.20784058E+00 0.76279285E+03</pdfrwt>
<pdfrwt beam="2">  1       -2 0.87599504E-01 0.76279285E+03</pdfrwt>
<totfact> 0.17714794E+01</totfact>
</mgrwt>
</event>
<event>
 4    1  0.2202466E-008  0.7520021E+03  0.7818608E-02  0.9632215E-01
         -2   -1    0    0    0  501 -0.00000000000E+00  0.00000000000E+00  0.17507703918E+04  0.17507703918E+04  0.25500000000E-02 0.  1.
          2   -1    0    0  501    0  0.00000000000E+00 -0.00000000000E+00 -0.50290339507E+03  0.50290339507E+03  0.25500000000E-02 0. -1.
    8880022    1    1    2    0    0  0.41186113488E+03  0.61031620899E+03 -0.50024359115E+02  0.75366408890E+03  0.15294330000E+03 0.  0.
    8880022    1    1    2    0    0 -0.41186113488E+03 -0.61031620899E+03  0.12978913558E+04  0.15000096979E+04  0.15294330000E+03 0.  0.
<mgrwt>
<rscale>  0 0.75200208E+03</rscale>
<asrwt>0</asrwt>
<pdfrwt beam="1">  1        2 0.77369753E-01 0.75200208E+03</pdfrwt>
<pdfrwt beam="2">  1       -2 0.26934929E+00 0.75200208E+03</pdfrwt>
<totfact> 0.30919641E+00</totfact>
</mgrwt>
</event>
<event>
 4    1  0.2202466E-008  0.1915766E+04  0.7818608E-02  0.8647048E-01
          2   -1    0    0  501    0  0.00000000000E+00  0.00000000000E+00  0.16093156154E+04  0.16093156154E+04  0.25500000000E-02 0. -1.
         -2   -1    0    0    0  501 -0.00000000000E+00 -0.00000000000E+00 -0.28943680844E+04  0.28943680844E+04  0.25500000000E-02 0.  1.
    8880022    1    1    2    0    0  0.16108106948E+04 -0.10256978738E+04  0.39446082915E+03  0.19559545551E+04  0.15294330000E+03 0.  0.
    8880022    1    1    2    0    0 -0.16108106948E+04  0.10256978738E+04 -0.16795132982E+04  0.25477291446E+04  0.15294330000E+03 0.  0.
<mgrwt>
<rscale>  0 0.19157659E+04</rscale>
<asrwt>0</asrwt>
<pdfrwt beam="1">  1        2 0.24758702E+00 0.19157659E+04</pdfrwt>
<pdfrwt beam="2">  1       -2 0.44528740E+00 0.19157659E+04</pdfrwt>
<totfact> 0.36821884E-02</totfact>
</mgrwt>
</event>
<event>
 4    1  0.2202466E-008  0.9297627E+03  0.7818608E-02  0.9389123E-01
         -2   -1    0    0    0  501 -0.00000000000E+00  0.00000000000E+00  0.17342374429E+04  0.17342374429E+04  0.25500000000E-02 0.  1.
          2   -1    0    0  501    0  0.00000000000E+00 -0.00000000000E+00 -0.11911601192E+04  0.11911601192E+04  0.25500000000E-02 0. -1.
    8880022    1    1    2    0    0  0.59500779423E+03 -0.69787735982E+03  0.13869640281E+04  0.16697688322E+04  0.15294330000E+03 0.  0.
    8880022    1    1    2    0    0 -0.59500779423E+03  0.69787735982E+03 -0.84388670442E+03  0.12556287299E+04  0.15294330000E+03 0.  0.
<mgrwt>
<rscale>  0 0.92976273E+03</rscale>
<asrwt>0</asrwt>
<pdfrwt beam="1">  1        2 0.18325540E+00 0.92976273E+03</pdfrwt>
<pdfrwt beam="2">  1       -2 0.26680576E+00 0.92976273E+03</pdfrwt>
<totfact> 0.98115997E-01</totfact>
</mgrwt>
</event>
<event>
 4    1  0.2202466E-008  0.9652125E+03  0.7818608E-02  0.9347544E-01
         -2   -1    0    0    0  501 -0.00000000000E+00  0.00000000000E+00  0.14082421878E+04  0.14082421878E+04  0.25500000000E-02 0.  1.
          2   -1    0    0  501    0  0.00000000000E+00 -0.00000000000E+00 -0.69869796146E+03  0.69869796146E+03  0.25500000000E-02 0. -1.
    8880022    1    1    2    0    0  0.61220260942E+03 -0.73037765132E+03  0.11189157037E+03  0.97167634790E+03  0.15294330000E+03 0.  0.
    8880022    1    1    2    0    0 -0.61220260942E+03  0.73037765132E+03  0.59765265601E+03  0.11352638014E+04  0.15294330000E+03 0.  0.
<mgrwt>
<rscale>  0 0.96521252E+03</rscale>
<asrwt>0</asrwt>
<pdfrwt beam="1">  1        2 0.10749200E+00 0.96521252E+03</pdfrwt>
<pdfrwt beam="2">  1       -2 0.21665264E+00 0.96521252E+03</pdfrwt>
<totfact> 0.42554336E+00</totfact>
</mgrwt>
</event>
<event>
 4    1  0.2202466E-008  0.1360170E+04  0.7818608E-02  0.8983165E-01
         -2   -1    0    0    0  501 -0.00000000000E+00  0.00000000000E+00  0.23694452882E+04  0.23694452882E+04  0.25500000000E-02 0.  1.
          2   -1    0    0  501    0  0.00000000000E+00 -0.00000000000E+00 -0.91737243110E+03  0.91737243110E+03  0.25500000000E-02 0. -1.
    8880022    1    1    2    0    0  0.12637244729E+04 -0.47923917053E+03  0.13601328610E+04  0.19235443272E+04  0.15294330000E+03 0.  0.
    8880022    1    1    2    0    0 -0.12637244729E+04  0.47923917053E+03  0.91939996099E+02  0.13632733922E+04  0.15294330000E+03 0.  0.
<mgrwt>
<rscale>  0 0.13601696E+04</rscale>
<asrwt>0</asrwt>
<pdfrwt beam="1">  1        2 0.14113422E+00 0.13601696E+04</pdfrwt>
<pdfrwt beam="2">  1       -2 0.36453004E+00 0.13601696E+04</pdfrwt>
<totfact> 0.34686517E-01</totfact>
</mgrwt>
</event>
<event>
 4    1  0.2202466E-008  0.8338593E+03  0.7818608E-02  0.9512260E-01
         -2   -1    0    0    0  501 -0.00000000000E+00  0.00000000000E+00  0.10266202839E+04  0.10266202839E+04  0.25500000000E-02 0.  1.
          2   -1    0    0  501    0  0.00000000000E+00 -0.00000000000E+00 -0.16346743568E+04  0.16346743568E+04  0.25500000000E-02 0. -1.
    8880022    1    1    2    0    0 -0.15505726576E+03 -0.80491420221E+03  0.71430672467E+03  0.10979778588E+04  0.15294330000E+03 0.  0.
    8880022    1    1    2    0    0  0.15505726576E+03  0.80491420221E+03 -0.13223607976E+04  0.15633167819E+04  0.15294330000E+03 0.  0.
<mgrwt>
<rscale>  0 0.83385927E+03</rscale>
<asrwt>0</asrwt>
<pdfrwt beam="1">  1        2 0.25148836E+00 0.83385927E+03</pdfrwt>
<pdfrwt beam="2">  1       -2 0.15794158E+00 0.83385927E+03</pdfrwt>
<totfact> 0.28282467E+00</totfact>
</mgrwt>
</event>
<event>
 4    1  0.2202466E-008  0.1258488E+04  0.7818608E-02  0.9063148E-01
         -2   -1    0    0    0  501 -0.00000000000E+00  0.00000000000E+00  0.39500028909E+03  0.39500028910E+03  0.25500000000E-02 0.  1.
          2   -1    0    0  501    0  0.00000000000E+00 -0.00000000000E+00 -0.44580064586E+04  0.44580064586E+04  0.25500000000E-02 0. -1.
    8880022    1    1    2    0    0 -0.32734538287E+03 -0.12055065653E+04 -0.28010710952E+04  0.30707966412E+04  0.15294330000E+03 0.  0.
    8880022    1    1    2    0    0  0.32734538287E+03  0.12055065653E+04 -0.12619350744E+04  0.17822101065E+04  0.15294330000E+03 0.  0.
<mgrwt>
<rscale>  0 0.12584883E+04</rscale>
<asrwt>0</asrwt>
<pdfrwt beam="1">  1        2 0.68584711E+00 0.12584883E+04</pdfrwt>
<pdfrwt beam="2">  1       -2 0.60769278E-01 0.12584883E+04</pdfrwt>
<totfact> 0.34906715E-01</totfact>
</mgrwt>
</event>
<event>
 4    1  0.2202466E-008  0.3631412E+03  0.7818608E-02  0.1057347E+00
          2   -1    0    0  501    0  0.00000000000E+00  0.00000000000E+00  0.71008357685E+03  0.71008357685E+03  0.25500000000E-02 0. -1.
         -2   -1    0    0    0  501 -0.00000000000E+00 -0.00000000000E+00 -0.14103421558E+04  0.14103421558E+04  0.25500000000E-02 0.  1.
    8880022    1    1    2    0    0 -0.29836976138E+03 -0.13948239131E+03 -0.13380752403E+04  0.13864764166E+04  0.15294330000E+03 0.  0.
    8880022    1    1    2    0    0  0.29836976138E+03  0.13948239131E+03  0.63781666138E+03  0.73394931606E+03  0.15294330000E+03 0. -1.
<mgrwt>
<rscale>  0 0.36314116E+03</rscale>
<asrwt>0</asrwt>
<pdfrwt beam="1">  1        2 0.10924363E+00 0.36314116E+03</pdfrwt>
<pdfrwt beam="2">  1       -2 0.21697572E+00 0.36314116E+03</pdfrwt>
<totfact> 0.45855891E+00</totfact>
</mgrwt>
</event>
<event>
 4    1  0.2202466E-008  0.1377664E+04  0.7818608E-02  0.8970147E-01
          2   -1    0    0  501    0  0.00000000000E+00  0.00000000000E+00  0.24539413107E+04  0.24539413107E+04  0.25500000000E-02 0. -1.
         -2   -1    0    0    0  501 -0.00000000000E+00 -0.00000000000E+00 -0.10293438533E+04  0.10293438533E+04  0.25500000000E-02 0.  1.
    8880022    1    1    2    0    0  0.12572048993E+04  0.54222103983E+03  0.15807052036E+04  0.20968043325E+04  0.15294330000E+03 0.  0.
    8880022    1    1    2    0    0 -0.12572048993E+04 -0.54222103983E+03 -0.15610774616E+03  0.13864808316E+04  0.15294330000E+03 0.  0.
<mgrwt>
<rscale>  0 0.13776645E+04</rscale>
<asrwt>0</asrwt>
<pdfrwt beam="1">  1        2 0.37752943E+00 0.13776645E+04</pdfrwt>
<pdfrwt beam="2">  1       -2 0.15836059E+00 0.13776645E+04</pdfrwt>
<totfact> 0.91670864E-01</totfact>
</mgrwt>
</event>
<event>
 4    1  0.2202466E-008  0.1064171E+04  0.7818608E-02  0.9240834E-01
          2   -1    0    0  501    0  0.00000000000E+00  0.00000000000E+00  0.23763901487E+04  0.23763901487E+04  0.25500000000E-02 0. -1.
         -2   -1    0    0    0  501 -0.00000000000E+00 -0.00000000000E+00 -0.99446338168E+03  0.99446338168E+03  0.25500000000E-02 0.  1.
    8880022    1    1    2    0    0 -0.55854271567E+03 -0.89280399558E+03  0.19072767780E+04  0.21840708094E+04  0.15294330000E+03 0.  0.
    8880022    1    1    2    0    0  0.55854271567E+03  0.89280399558E+03 -0.52535001095E+03  0.11867827210E+04  0.15294330000E+03 0.  0.
<mgrwt>
<rscale>  0 0.10641713E+04</rscale>
<asrwt>0</asrwt>
<pdfrwt beam="1">  1        2 0.36559848E+00 0.10641713E+04</pdfrwt>
<pdfrwt beam="2">  1       -2 0.15299437E+00 0.10641713E+04</pdfrwt>
<totfact> 0.11588200E+00</totfact>
</mgrwt>
</event>
<event>
 4    1  0.2202466E-008  0.5693148E+03  0.7818608E-02  0.9971196E-01
         -2   -1    0    0    0  501 -0.00000000000E+00  0.00000000000E+00  0.67103895596E+03  0.67103895597E+03  0.25500000000E-02 0.  1.
          2   -1    0    0  501    0  0.00000000000E+00 -0.00000000000E+00 -0.13629195621E+04  0.13629195621E+04  0.25500000000E-02 0. -1.
    8880022    1    1    2    0    0 -0.51531724246E+03 -0.18755227742E+03  0.47119823152E+03  0.73901768824E+03  0.15294330000E+03 0.  0.
    8880022    1    1    2    0    0  0.51531724246E+03  0.18755227742E+03 -0.11630788377E+04  0.12949408298E+04  0.15294330000E+03 0.  0.
<mgrwt>
<rscale>  0 0.56931483E+03</rscale>
<asrwt>0</asrwt>
<pdfrwt beam="1">  1        2 0.20967993E+00 0.56931483E+03</pdfrwt>
<pdfrwt beam="2">  1       -2 0.10323676E+00 0.56931483E+03</pdfrwt>
<totfact> 0.12212733E+01</totfact>
</mgrwt>
</event>
<event>
 4    1  0.2590175E-008  0.9557198E+03  0.7818608E-02  0.9358490E-01
          2   -1    0    0  501    0  0.00000000000E+00  0.00000000000E+00  0.18293825476E+04  0.18293825476E+04  0.25500000000E-02 0. -1.
         -2   -1    0    0    0  501 -0.00000000000E+00 -0.00000000000E+00 -0.18155551109E+04  0.18155551109E+04  0.25500000000E-02 0.  1.
    8880022    1    1    2    0    0  0.94197147792E+03  0.51946216857E+02  0.15586801829E+04  0.18283556110E+04  0.15294330000E+03 0.  0.
    8880022    1    1    2    0    0 -0.94197147792E+03 -0.51946216857E+02 -0.15448527463E+04  0.18165820475E+04  0.15294330000E+03 0.  0.
<mgrwt>
<rscale>  0 0.95571980E+03</rscale>
<asrwt>0</asrwt>
<pdfrwt beam="1">  1        2 0.28144347E+00 0.95571980E+03</pdfrwt>
<pdfrwt beam="2">  1       -2 0.27931617E+00 0.95571980E+03</pdfrwt>
<totfact> 0.35799285E-01</totfact>
</mgrwt>
</event>
<event>
 4    1  0.2202466E-008  0.4952568E+03  0.7818608E-02  0.1015024E+00
         -2   -1    0    0    0  501 -0.00000000000E+00  0.00000000000E+00  0.15656190861E+04  0.15656190861E+04  0.25500000000E-02 0.  1.
          2   -1    0    0  501    0  0.00000000000E+00 -0.00000000000E+00 -0.40324947055E+03  0.40324947056E+03  0.25500000000E-02 0. -1.
    8880022    1    1    2    0    0  0.38716643390E+03  0.26830922726E+03  0.13509916555E+04  0.14389085431E+04  0.15294330000E+03 0.  0.
    8880022    1    1    2    0    0 -0.38716643390E+03 -0.26830922726E+03 -0.18862204002E+03  0.52996001355E+03  0.15294330000E+03 0.  0.
<mgrwt>
<rscale>  0 0.49525684E+03</rscale>
<asrwt>0</asrwt>
<pdfrwt beam="1">  1        2 0.62038381E-01 0.49525684E+03</pdfrwt>
<pdfrwt beam="2">  1       -2 0.24086447E+00 0.49525684E+03</pdfrwt>
<totfact> 0.61441415E+00</totfact>
</mgrwt>
</event>
<event>
 4    1  0.2202466E-008  0.2886103E+03  0.7818608E-02  0.1091077E+00
         -2   -1    0    0    0  501 -0.00000000000E+00  0.00000000000E+00  0.38014585246E+03  0.38014585247E+03  0.25500000000E-02 0.  1.
          2   -1    0    0  501    0  0.00000000000E+00 -0.00000000000E+00 -0.14571373370E+04  0.14571373370E+04  0.25500000000E-02 0. -1.
    8880022    1    1    2    0    0  0.13969969884E+03  0.20096823198E+03  0.30826359886E+03  0.42228229364E+03  0.15294330000E+03 0.  1.
    8880022    1    1    2    0    0 -0.13969969884E+03 -0.20096823198E+03 -0.13852550834E+04  0.14150008958E+04  0.15294330000E+03 0.  0.
<mgrwt>
<rscale>  0 0.28861027E+03</rscale>
<asrwt>0</asrwt>
<pdfrwt beam="1">  1        2 0.22417497E+00 0.28861027E+03</pdfrwt>
<pdfrwt beam="2">  1       -2 0.58483978E-01 0.28861027E+03</pdfrwt>
<totfact> 0.40572463E+01</totfact>
</mgrwt>
</event>
<event>
 4    1  0.2202466E-008  0.8215706E+03  0.7818608E-02  0.9529309E-01
         -2   -1    0    0    0  501 -0.00000000000E+00  0.00000000000E+00  0.11363739223E+04  0.11363739223E+04  0.25500000000E-02 0.  1.
          2   -1    0    0  501    0  0.00000000000E+00 -0.00000000000E+00 -0.88923457621E+03  0.88923457621E+03  0.25500000000E-02 0. -1.
    8880022    1    1    2    0    0 -0.18404806271E+03  0.78594718525E+03 -0.46003523969E+03  0.94160009673E+03  0.15294330000E+03 0.  0.
    8880022    1    1    2    0    0  0.18404806271E+03 -0.78594718525E+03  0.70717458583E+03  0.10840084018E+04  0.15294330000E+03 0.  0.
<mgrwt>
<rscale>  0 0.82157064E+03</rscale>
<asrwt>0</asrwt>
<pdfrwt beam="1">  1        2 0.13680532E+00 0.82157064E+03</pdfrwt>
<pdfrwt beam="2">  1       -2 0.17482676E+00 0.82157064E+03</pdfrwt>
<totfact> 0.59369418E+00</totfact>
</mgrwt>
</event>
<event>
 4    1  0.2202466E-008  0.9010143E+03  0.7818608E-02  0.9424314E-01
          2   -1    0    0  501    0  0.00000000000E+00  0.00000000000E+00  0.11987516923E+04  0.11987516923E+04  0.25500000000E-02 0. -1.
         -2   -1    0    0    0  501 -0.00000000000E+00 -0.00000000000E+00 -0.15927990569E+04  0.15927990569E+04  0.25500000000E-02 0.  1.
    8880022    1    1    2    0    0  0.16947231815E+03 -0.87161593023E+03 -0.12552567639E+04  0.15451525468E+04  0.15294330000E+03 0.  0.
    8880022    1    1    2    0    0 -0.16947231815E+03  0.87161593023E+03  0.86120939932E+03  0.12463982024E+04  0.15294330000E+03 0.  0.
<mgrwt>
<rscale>  0 0.90101434E+03</rscale>
<asrwt>0</asrwt>
<pdfrwt beam="1">  1        2 0.18442334E+00 0.90101434E+03</pdfrwt>
<pdfrwt beam="2">  1       -2 0.24504601E+00 0.90101434E+03</pdfrwt>
<totfact> 0.13216201E+00</totfact>
</mgrwt>
</event>
<event>
 4    1  0.2202466E-008  0.1013478E+04  0.7818608E-02  0.9293885E-01
          2   -1    0    0  501    0  0.00000000000E+00  0.00000000000E+00  0.35888967763E+04  0.35888967763E+04  0.25500000000E-02 0. -1.
         -2   -1    0    0    0  501 -0.00000000000E+00 -0.00000000000E+00 -0.64395166428E+03  0.64395166428E+03  0.25500000000E-02 0.  1.
    8880022    1    1    2    0    0 -0.68528442132E+03  0.73084302181E+03 -0.10502121849E+03  0.10189049857E+04  0.15294330000E+03 0.  0.
    8880022    1    1    2    0    0  0.68528442132E+03 -0.73084302181E+03  0.30499663306E+04  0.32139434549E+04  0.15294330000E+03 0.  0.
<mgrwt>
<rscale>  0 0.10134781E+04</rscale>
<asrwt>0</asrwt>
<pdfrwt beam="1">  1        2 0.55213796E+00 0.10134781E+04</pdfrwt>
<pdfrwt beam="2">  1       -2 0.99069488E-01 0.10134781E+04</pdfrwt>
<totfact> 0.61394972E-01</totfact>
</mgrwt>
</event>
<event>
 4    1  0.2202466E-008  0.5246039E+03  0.7818608E-02  0.1007549E+00
         -2   -1    0    0    0  501 -0.00000000000E+00  0.00000000000E+00  0.16950923954E+04  0.16950923954E+04  0.25500000000E-02 0.  1.
          2   -1    0    0  501    0  0.00000000000E+00 -0.00000000000E+00 -0.85675068256E+03  0.85675068256E+03  0.25500000000E-02 0. -1.
    8880022    1    1    2    0    0 -0.47875015863E+03  0.15038579465E+03 -0.72951104599E+03  0.89855195779E+03  0.15294330000E+03 0.  0.
    8880022    1    1    2    0    0  0.47875015863E+03 -0.15038579465E+03  0.15678527588E+04  0.16532911201E+04  0.15294330000E+03 0.  0.
<mgrwt>
<rscale>  0 0.52460390E+03</rscale>
<asrwt>0</asrwt>
<pdfrwt beam="1">  1        2 0.13180780E+00 0.52460390E+03</pdfrwt>
<pdfrwt beam="2">  1       -2 0.26078344E+00 0.52460390E+03</pdfrwt>
<totfact> 0.18753858E+00</totfact>
</mgrwt>
</event>
<event>
 4    1  0.2202466E-008  0.6400469E+03  0.7818608E-02  0.9825637E-01
         -2   -1    0    0    0  501 -0.00000000000E+00  0.00000000000E+00  0.19384235490E+03  0.19384235492E+03  0.25500000000E-02 0.  1.
          2   -1    0    0  501    0  0.00000000000E+00 -0.00000000000E+00 -0.31552357296E+04  0.31552357296E+04  0.25500000000E-02 0. -1.
    8880022    1    1    2    0    0 -0.27655582180E+03  0.55658356902E+03 -0.24429421332E+04  0.25253962681E+04  0.15294330000E+03 0.  0.
    8880022    1    1    2    0    0  0.27655582180E+03 -0.55658356902E+03 -0.51845124158E+03  0.82368181647E+03  0.15294330000E+03 0.  0.
<mgrwt>
<rscale>  0 0.64004691E+03</rscale>
<asrwt>0</asrwt>
<pdfrwt beam="1">  1        2 0.48542085E+00 0.64004691E+03</pdfrwt>
<pdfrwt beam="2">  1       -2 0.29821903E-01 0.64004691E+03</pdfrwt>
<totfact> 0.15639230E+01</totfact>
</mgrwt>
</event>
<event>
 4    1  0.2202466E-008  0.4507792E+03  0.7818608E-02  0.1027490E+00
          2   -1    0    0  501    0  0.00000000000E+00  0.00000000000E+00  0.10343874297E+04  0.10343874297E+04  0.25500000000E-02 0. -1.
         -2   -1    0    0    0  501 -0.00000000000E+00 -0.00000000000E+00 -0.78054155538E+03  0.78054155539E+03  0.25500000000E-02 0.  1.
    8880022    1    1    2    0    0  0.35270377652E+03 -0.23539391259E+03 -0.65808374065E+03  0.79766917377E+03  0.15294330000E+03 0.  0.
    8880022    1    1    2    0    0 -0.35270377652E+03  0.23539391259E+03  0.91192961494E+03  0.10172598113E+04  0.15294330000E+03 0.  0.
<mgrwt>
<rscale>  0 0.45077922E+03</rscale>
<asrwt>0</asrwt>
<pdfrwt beam="1">  1        2 0.15913653E+00 0.45077922E+03</pdfrwt>
<pdfrwt beam="2">  1       -2 0.12008332E+00 0.45077922E+03</pdfrwt>
<totfact> 0.13497065E+01</totfact>
</mgrwt>
</event>
<event>
 4    1  0.2202466E-008  0.9238262E+03  0.7818608E-02  0.9396278E-01
         -2   -1    0    0    0  501 -0.00000000000E+00  0.00000000000E+00  0.24608607845E+04  0.24608607845E+04  0.25500000000E-02 0.  1.
          2   -1    0    0  501    0  0.00000000000E+00 -0.00000000000E+00 -0.72170617053E+03  0.72170617053E+03  0.25500000000E-02 0. -1.
    8880022    1    1    2    0    0  0.16225877070E+03  0.89651286587E+03  0.20164678278E+04  0.22180165421E+04  0.15294330000E+03 0.  0.
    8880022    1    1    2    0    0 -0.16225877070E+03 -0.89651286587E+03 -0.27731321392E+03  0.96455041287E+03  0.15294330000E+03 0.  0.
<mgrwt>
<rscale>  0 0.92382622E+03</rscale>
<asrwt>0</asrwt>
<pdfrwt beam="1">  1        2 0.11103172E+00 0.92382622E+03</pdfrwt>
<pdfrwt beam="2">  1       -2 0.37859397E+00 0.92382622E+03</pdfrwt>
<totfact> 0.41438325E-01</totfact>
</mgrwt>
</event>
<event>
 4    1  0.2202466E-008  0.8999088E+03  0.7818608E-02  0.9425695E-01
          2   -1    0    0  501    0  0.00000000000E+00  0.00000000000E+00  0.15065290354E+04  0.15065290354E+04  0.25500000000E-02 0. -1.
         -2   -1    0    0    0  501 -0.00000000000E+00 -0.00000000000E+00 -0.72315475816E+03  0.72315475816E+03  0.25500000000E-02 0.  1.
    8880022    1    1    2    0    0  0.84085454518E+03 -0.28179385095E+03 -0.17310851741E+03  0.91640730704E+03  0.15294330000E+03 0.  0.
    8880022    1    1    2    0    0 -0.84085454518E+03  0.28179385095E+03  0.95648279465E+03  0.13132764865E+04  0.15294330000E+03 0.  0.
<mgrwt>
<rscale>  0 0.89990877E+03</rscale>
<asrwt>0</asrwt>
<pdfrwt beam="1">  1        2 0.23177369E+00 0.89990877E+03</pdfrwt>
<pdfrwt beam="2">  1       -2 0.11125458E+00 0.89990877E+03</pdfrwt>
<totfact> 0.80904811E+00</totfact>
</mgrwt>
</event>
<event>
 4    1  0.2202466E-008  0.1223687E+04  0.7818608E-02  0.9092372E-01
          2   -1    0    0  501    0  0.00000000000E+00  0.00000000000E+00  0.15079696081E+04  0.15079696081E+04  0.25500000000E-02 0. -1.
         -2   -1    0    0    0  501 -0.00000000000E+00 -0.00000000000E+00 -0.13723259440E+04  0.13723259440E+04  0.25500000000E-02 0.  1.
    8880022    1    1    2    0    0  0.12027105199E+04 -0.16584682186E+03 -0.68933590931E+03  0.14044904456E+04  0.15294330000E+03 0.  0.
    8880022    1    1    2    0    0 -0.12027105199E+04  0.16584682186E+03  0.82497957342E+03  0.14758051065E+04  0.15294330000E+03 0.  0.
<mgrwt>
<rscale>  0 0.12236868E+04</rscale>
<asrwt>0</asrwt>
<pdfrwt beam="1">  1        2 0.23199533E+00 0.12236868E+04</pdfrwt>
<pdfrwt beam="2">  1       -2 0.21112707E+00 0.12236868E+04</pdfrwt>
<totfact> 0.13688685E+00</totfact>
</mgrwt>
</event>
<event>
 4    1  0.2202466E-008  0.2457153E+03  0.7818608E-02  0.1116043E+00
         -2   -1    0    0    0  501 -0.00000000000E+00  0.00000000000E+00  0.64220748486E+02  0.64220748537E+02  0.25500000000E-02 0.  1.
          2   -1    0    0  501    0  0.00000000000E+00 -0.00000000000E+00 -0.22572436720E+04  0.22572436720E+04  0.25500000000E-02 0. -1.
    8880022    1    1    2    0    0  0.77625929215E+02 -0.17595054592E+03 -0.20985786435E+03  0.32313519731E+03  0.15294330000E+03 0.  1.
    8880022    1    1    2    0    0 -0.77625929215E+02  0.17595054592E+03 -0.19831650591E+04  0.19983292232E+04  0.15294330000E+03 0.  0.
<mgrwt>
<rscale>  0 0.24571535E+03</rscale>
<asrwt>0</asrwt>
<pdfrwt beam="1">  1        2 0.34726819E+00 0.24571535E+03</pdfrwt>
<pdfrwt beam="2">  1       -2 0.98801169E-02 0.24571535E+03</pdfrwt>
<totfact> 0.37002952E+02</totfact>
</mgrwt>
</event>
<event>
 4    1  0.2202466E-008  0.8012386E+03  0.7818608E-02  0.9558226E-01
         -2   -1    0    0    0  501 -0.00000000000E+00  0.00000000000E+00  0.10198787069E+04  0.10198787069E+04  0.25500000000E-02 0.  1.
          2   -1    0    0  501    0  0.00000000000E+00 -0.00000000000E+00 -0.13047558989E+04  0.13047558989E+04  0.25500000000E-02 0. -1.
    8880022    1    1    2    0    0 -0.10401959106E+03  0.77959706919E+03  0.69374919879E+03  0.10598449271E+04  0.15294330000E+03 0.  0.
    8880022    1    1    2    0    0  0.10401959106E+03 -0.77959706919E+03 -0.97862639080E+03  0.12647896787E+04  0.15294330000E+03 0.  0.
<mgrwt>
<rscale>  0 0.80123862E+03</rscale>
<asrwt>0</asrwt>
<pdfrwt beam="1">  1        2 0.20073168E+00 0.80123862E+03</pdfrwt>
<pdfrwt beam="2">  1       -2 0.15690442E+00 0.80123862E+03</pdfrwt>
<totfact> 0.44333336E+00</totfact>
</mgrwt>
</event>
<event>
 4    1  0.2202466E-008  0.8105783E+03  0.7818608E-02  0.9544830E-01
          2   -1    0    0  501    0  0.00000000000E+00  0.00000000000E+00  0.14414434531E+04  0.14414434531E+04  0.25500000000E-02 0. -1.
         -2   -1    0    0    0  501 -0.00000000000E+00 -0.00000000000E+00 -0.17145081522E+04  0.17145081522E+04  0.25500000000E-02 0.  1.
    8880022    1    1    2    0    0 -0.69028079480E+03 -0.39643158467E+03 -0.14885732098E+04  0.16949594187E+04  0.15294330000E+03 0.  0.
    8880022    1    1    2    0    0  0.69028079480E+03  0.39643158467E+03  0.12155085107E+04  0.14609921867E+04  0.15294330000E+03 0.  0.
<mgrwt>
<rscale>  0 0.81057833E+03</rscale>
<asrwt>0</asrwt>
<pdfrwt beam="1">  1        2 0.22176053E+00 0.81057833E+03</pdfrwt>
<pdfrwt beam="2">  1       -2 0.26377049E+00 0.81057833E+03</pdfrwt>
<totfact> 0.74825677E-01</totfact>
</mgrwt>
</event>
<event>
 4    1  0.2202466E-008  0.3800025E+03  0.7818608E-02  0.1050933E+00
         -2   -1    0    0    0  501 -0.00000000000E+00  0.00000000000E+00  0.88144803126E+02  0.88144803163E+02  0.25500000000E-02 0.  1.
          2   -1    0    0  501    0  0.00000000000E+00 -0.00000000000E+00 -0.18013946621E+04  0.18013946621E+04  0.25500000000E-02 0. -1.
    8880022    1    1    2    0    0  0.34442586770E+03  0.48796571791E+02 -0.11409580183E+04  0.12025752103E+04  0.15294330000E+03 0.  0.
    8880022    1    1    2    0    0 -0.34442586770E+03 -0.48796571791E+02 -0.57229184069E+03  0.68696425503E+03  0.15294330000E+03 0.  0.
<mgrwt>
<rscale>  0 0.38000255E+03</rscale>
<asrwt>0</asrwt>
<pdfrwt beam="1">  1        2 0.27713761E+00 0.38000255E+03</pdfrwt>
<pdfrwt beam="2">  1       -2 0.13560740E-01 0.38000255E+03</pdfrwt>
<totfact> 0.37735904E+02</totfact>
</mgrwt>
</event>
<event>
 4    1  0.2202466E-008  0.1553062E+04  0.7818608E-02  0.8849915E-01
          2   -1    0    0  501    0  0.00000000000E+00  0.00000000000E+00  0.17664360422E+04  0.17664360422E+04  0.25500000000E-02 0. -1.
         -2   -1    0    0    0  501 -0.00000000000E+00 -0.00000000000E+00 -0.14627594457E+04  0.14627594457E+04  0.25500000000E-02 0.  1.
    8880022    1    1    2    0    0 -0.43508142274E+03 -0.14830080856E+04 -0.26457983309E+03  0.15754373892E+04  0.15294330000E+03 0.  0.
    8880022    1    1    2    0    0  0.43508142274E+03  0.14830080856E+04  0.56825642963E+03  0.16537580987E+04  0.15294330000E+03 0.  0.
<mgrwt>
<rscale>  0 0.15530616E+04</rscale>
<asrwt>0</asrwt>
<pdfrwt beam="1">  1        2 0.27175939E+00 0.15530616E+04</pdfrwt>
<pdfrwt beam="2">  1       -2 0.22503992E+00 0.15530616E+04</pdfrwt>
<totfact> 0.77289876E-01</totfact>
</mgrwt>
</event>
<event>
 4    1  0.2202466E-008  0.7451870E+03  0.7818608E-02  0.9642932E-01
         -2   -1    0    0    0  501 -0.00000000000E+00  0.00000000000E+00  0.14618300916E+04  0.14618300916E+04  0.25500000000E-02 0.  1.
          2   -1    0    0  501    0  0.00000000000E+00 -0.00000000000E+00 -0.79968268004E+03  0.79968268004E+03  0.25500000000E-02 0. -1.
    8880022    1    1    2    0    0 -0.72769561864E+03  0.48694042224E+02 -0.48821805784E+03  0.89087628105E+03  0.15294330000E+03 0.  0.
    8880022    1    1    2    0    0  0.72769561864E+03 -0.48694042224E+02  0.11503654694E+04  0.13706364906E+04  0.15294330000E+03 0.  0.
<mgrwt>
<rscale>  0 0.74518701E+03</rscale>
<asrwt>0</asrwt>
<pdfrwt beam="1">  1        2 0.12302810E+00 0.74518701E+03</pdfrwt>
<pdfrwt beam="2">  1       -2 0.22489694E+00 0.74518701E+03</pdfrwt>
<totfact> 0.32579930E+00</totfact>
</mgrwt>
</event>
<event>
 4    1  0.2202466E-008  0.3863721E+03  0.7818608E-02  0.1048603E+00
          2   -1    0    0  501    0  0.00000000000E+00  0.00000000000E+00  0.14958783810E+04  0.14958783810E+04  0.25500000000E-02 0. -1.
         -2   -1    0    0    0  501 -0.00000000000E+00 -0.00000000000E+00 -0.92310317839E+03  0.92310317839E+03  0.25500000000E-02 0.  1.
    8880022    1    1    2    0    0  0.76987427517E+02 -0.34635917922E+03 -0.85585476159E+03  0.93902650174E+03  0.15294330000E+03 0.  0.
    8880022    1    1    2    0    0 -0.76987427517E+02  0.34635917922E+03  0.14286299642E+04  0.14799550577E+04  0.15294330000E+03 0.  0.
<mgrwt>
<rscale>  0 0.38637210E+03</rscale>
<asrwt>0</asrwt>
<pdfrwt beam="1">  1        2 0.23013514E+00 0.38637210E+03</pdfrwt>
<pdfrwt beam="2">  1       -2 0.14201587E+00 0.38637210E+03</pdfrwt>
<totfact> 0.48942977E+00</totfact>
</mgrwt>
</event>
<event>
 4    1  0.2202466E-008  0.2958391E+03  0.7818608E-02  0.1087339E+00
         -2   -1    0    0    0  501 -0.00000000000E+00  0.00000000000E+00  0.19958411540E+03  0.19958411541E+03  0.25500000000E-02 0.  1.
          2   -1    0    0  501    0  0.00000000000E+00 -0.00000000000E+00 -0.67886763035E+03  0.67886763035E+03  0.25500000000E-02 0. -1.
    8880022    1    1    2    0    0 -0.13965707332E+03 -0.21124631817E+03 -0.50098977884E+03  0.58181742547E+03  0.15294330000E+03 0.  0.
    8880022    1    1    2    0    0  0.13965707332E+03  0.21124631817E+03  0.21706263887E+02  0.29663432029E+03  0.15294330000E+03 0.  0.
<mgrwt>
<rscale>  0 0.29583907E+03</rscale>
<asrwt>0</asrwt>
<pdfrwt beam="1">  1        2 0.10444117E+00 0.29583907E+03</pdfrwt>
<pdfrwt beam="2">  1       -2 0.30705249E-01 0.29583907E+03</pdfrwt>
<totfact> 0.42871510E+02</totfact>
</mgrwt>
</event>
<event>
 4    1  0.2202466E-008  0.8060752E+03  0.7818608E-02  0.9551265E-01
         -2   -1    0    0    0  501 -0.00000000000E+00  0.00000000000E+00  0.31075030520E+03  0.31075030521E+03  0.25500000000E-02 0.  1.
          2   -1    0    0  501    0  0.00000000000E+00 -0.00000000000E+00 -0.25797006841E+04  0.25797006841E+04  0.25500000000E-02 0. -1.
    8880022    1    1    2    0    0 -0.65381174344E+03  0.44597735619E+03 -0.50539883043E+03  0.95141222869E+03  0.15294330000E+03 0.  0.
    8880022    1    1    2    0    0  0.65381174344E+03 -0.44597735619E+03 -0.17635515485E+04  0.19390387607E+04  0.15294330000E+03 0.  0.
<mgrwt>
<rscale>  0 0.80607521E+03</rscale>
<asrwt>0</asrwt>
<pdfrwt beam="1">  1        2 0.39687701E+00 0.80607521E+03</pdfrwt>
<pdfrwt beam="2">  1       -2 0.47807741E-01 0.80607521E+03</pdfrwt>
<totfact> 0.13492324E+01</totfact>
</mgrwt>
</event>
<event>
 4    1  0.2202466E-008  0.8803739E+03  0.7818608E-02  0.9450453E-01
          2   -1    0    0  501    0  0.00000000000E+00  0.00000000000E+00  0.18751986699E+04  0.18751986699E+04  0.25500000000E-02 0. -1.
         -2   -1    0    0    0  501 -0.00000000000E+00 -0.00000000000E+00 -0.54535190383E+03  0.54535190384E+03  0.25500000000E-02 0.  1.
    8880022    1    1    2    0    0 -0.84742804951E+03  0.18311825671E+03  0.69420049507E+02  0.88310667041E+03  0.15294330000E+03 0.  0.
    8880022    1    1    2    0    0  0.84742804951E+03 -0.18311825671E+03  0.12604267165E+04  0.15374439033E+04  0.15294330000E+03 0.  0.
<mgrwt>
<rscale>  0 0.88037393E+03</rscale>
<asrwt>0</asrwt>
<pdfrwt beam="1">  1        2 0.28849210E+00 0.88037393E+03</pdfrwt>
<pdfrwt beam="2">  1       -2 0.83900293E-01 0.88037393E+03</pdfrwt>
<totfact> 0.98675481E+00</totfact>
</mgrwt>
</event>
<event>
 4    1  0.2202466E-008  0.1276431E+04  0.7818608E-02  0.9048467E-01
         -2   -1    0    0    0  501 -0.00000000000E+00  0.00000000000E+00  0.12991605125E+04  0.12991605125E+04  0.25500000000E-02 0.  1.
          2   -1    0    0  501    0  0.00000000000E+00 -0.00000000000E+00 -0.21694782285E+04  0.21694782285E+04  0.25500000000E-02 0. -1.
    8880022    1    1    2    0    0  0.10435632324E+04 -0.71892983967E+03 -0.15617126591E+04  0.20169834945E+04  0.15294330000E+03 0.  0.
    8880022    1    1    2    0    0 -0.10435632324E+04  0.71892983967E+03  0.69139494312E+03  0.14516552465E+04  0.15294330000E+03 0.  0.
<mgrwt>
<rscale>  0 0.12764310E+04</rscale>
<asrwt>0</asrwt>
<pdfrwt beam="1">  1        2 0.33376588E+00 0.12764310E+04</pdfrwt>
<pdfrwt beam="2">  1       -2 0.19987085E+00 0.12764310E+04</pdfrwt>
<totfact> 0.68945808E-01</totfact>
</mgrwt>
</event>
<event>
 4    1  0.2202466E-008  0.2152626E+03  0.7818608E-02  0.1137465E+00
         -2   -1    0    0    0  501 -0.00000000000E+00  0.00000000000E+00  0.35843304631E+03  0.35843304632E+03  0.25500000000E-02 0.  1.
          2   -1    0    0  501    0  0.00000000000E+00 -0.00000000000E+00 -0.41526997280E+03  0.41526997281E+03  0.25500000000E-02 0. -1.
    8880022    1    1    2    0    0 -0.10833544341E+03 -0.10587613539E+03 -0.34945536638E+03  0.41043517204E+03  0.15294330000E+03 0.  0.
    8880022    1    1    2    0    0  0.10833544341E+03  0.10587613539E+03  0.29261843989E+03  0.36326784708E+03  0.15294330000E+03 0.  1.
<mgrwt>
<rscale>  0 0.21526258E+03</rscale>
<asrwt>0</asrwt>
<pdfrwt beam="1">  1        2 0.63887688E-01 0.21526258E+03</pdfrwt>
<pdfrwt beam="2">  1       -2 0.55143546E-01 0.21526258E+03</pdfrwt>
<totfact> 0.24408199E+02</totfact>
</mgrwt>
</event>
<event>
 4    1  0.2202466E-008  0.1553636E+04  0.7818608E-02  0.8849548E-01
          2   -1    0    0  501    0  0.00000000000E+00  0.00000000000E+00  0.27736793142E+04  0.27736793142E+04  0.25500000000E-02 0. -1.
         -2   -1    0    0    0  501 -0.00000000000E+00 -0.00000000000E+00 -0.10147843913E+04  0.10147843913E+04  0.25500000000E-02 0.  1.
    8880022    1    1    2    0    0  0.13912005328E+04  0.67450397960E+03  0.16456226769E+03  0.15623274093E+04  0.15294330000E+03 0.  0.
    8880022    1    1    2    0    0 -0.13912005328E+04 -0.67450397960E+03  0.15943326552E+04  0.22261362962E+04  0.15294330000E+03 0.  0.
<mgrwt>
<rscale>  0 0.15536364E+04</rscale>
<asrwt>0</asrwt>
<pdfrwt beam="1">  1        2 0.42671990E+00 0.15536364E+04</pdfrwt>
<pdfrwt beam="2">  1       -2 0.15612068E+00 0.15536364E+04</pdfrwt>
<totfact> 0.60699891E-01</totfact>
</mgrwt>
</event>
<event>
 4    1  0.2202466E-008  0.4444915E+03  0.7818608E-02  0.1029378E+00
          2   -1    0    0  501    0  0.00000000000E+00  0.00000000000E+00  0.12784071292E+04  0.12784071292E+04  0.25500000000E-02 0. -1.
         -2   -1    0    0    0  501 -0.00000000000E+00 -0.00000000000E+00 -0.36866632254E+03  0.36866632254E+03  0.25500000000E-02 0.  1.
    8880022    1    1    2    0    0 -0.26460352703E+03 -0.32274754832E+03 -0.17274735172E+03  0.47687976158E+03  0.15294330000E+03 0.  0.
    8880022    1    1    2    0    0  0.26460352703E+03  0.32274754832E+03  0.10824881584E+04  0.11701936902E+04  0.15294330000E+03 0.  0.
<mgrwt>
<rscale>  0 0.44449146E+03</rscale>
<asrwt>0</asrwt>
<pdfrwt beam="1">  1        2 0.19667802E+00 0.44449146E+03</pdfrwt>
<pdfrwt beam="2">  1       -2 0.56717895E-01 0.44449146E+03</pdfrwt>
<totfact> 0.52508941E+01</totfact>
</mgrwt>
</event>
<event>
 4    1  0.2202466E-008  0.6395953E+03  0.7818608E-02  0.9826501E-01
          2   -1    0    0  501    0  0.00000000000E+00  0.00000000000E+00  0.15647853021E+04  0.15647853021E+04  0.25500000000E-02 0. -1.
         -2   -1    0    0    0  501 -0.00000000000E+00 -0.00000000000E+00 -0.49726733008E+03  0.49726733009E+03  0.25500000000E-02 0.  1.
    8880022    1    1    2    0    0  0.62095954049E+03  0.99853671049E+01 -0.17627786761E+03  0.66344253564E+03  0.15294330000E+03 0.  0.
    8880022    1    1    2    0    0 -0.62095954049E+03 -0.99853671049E+01  0.12437958396E+04  0.13986100965E+04  0.15294330000E+03 0.  0.
<mgrwt>
<rscale>  0 0.63959527E+03</rscale>
<asrwt>0</asrwt>
<pdfrwt beam="1">  1        2 0.24073620E+00 0.63959527E+03</pdfrwt>
<pdfrwt beam="2">  1       -2 0.76502666E-01 0.63959527E+03</pdfrwt>
<totfact> 0.18560629E+01</totfact>
</mgrwt>
</event>
<event>
 4    1  0.2202466E-008  0.1067431E+04  0.7818608E-02  0.9237530E-01
          2   -1    0    0  501    0  0.00000000000E+00  0.00000000000E+00  0.18936180566E+04  0.18936180566E+04  0.25500000000E-02 0. -1.
         -2   -1    0    0    0  501 -0.00000000000E+00 -0.00000000000E+00 -0.86817610895E+03  0.86817610896E+03  0.25500000000E-02 0.  1.
    8880022    1    1    2    0    0  0.90505131674E+03 -0.54488496107E+03 -0.25230870601E+03  0.10968449493E+04  0.15294330000E+03 0.  0.
    8880022    1    1    2    0    0 -0.90505131674E+03  0.54488496107E+03  0.12777506537E+04  0.16649492163E+04  0.15294330000E+03 0.  0.
<mgrwt>
<rscale>  0 0.10674311E+04</rscale>
<asrwt>0</asrwt>
<pdfrwt beam="1">  1        2 0.29132585E+00 0.10674311E+04</pdfrwt>
<pdfrwt beam="2">  1       -2 0.13356556E+00 0.10674311E+04</pdfrwt>
<totfact> 0.30688008E+00</totfact>
</mgrwt>
</event>
<event>
 4    1  0.2202466E-008  0.4317506E+03  0.7818608E-02  0.1033308E+00
          2   -1    0    0  501    0  0.00000000000E+00  0.00000000000E+00  0.29100242575E+04  0.29100242575E+04  0.25500000000E-02 0. -1.
         -2   -1    0    0    0  501 -0.00000000000E+00 -0.00000000000E+00 -0.14601405443E+03  0.14601405445E+03  0.25500000000E-02 0.  1.
    8880022    1    1    2    0    0 -0.29165345597E+03  0.27920453224E+03  0.23722096470E+03  0.49262800196E+03  0.15294330000E+03 0.  0.
    8880022    1    1    2    0    0  0.29165345597E+03 -0.27920453224E+03  0.25267892384E+04  0.25634103100E+04  0.15294330000E+03 0.  0.
<mgrwt>
<rscale>  0 0.43175058E+03</rscale>
<asrwt>0</asrwt>
<pdfrwt beam="1">  1        2 0.44769600E+00 0.43175058E+03</pdfrwt>
<pdfrwt beam="2">  1       -2 0.22463703E-01 0.43175058E+03</pdfrwt>
<totfact> 0.38611577E+01</totfact>
</mgrwt>
</event>
<event>
 4    1  0.2202466E-008  0.8600372E+03  0.7818608E-02  0.9476963E-01
          2   -1    0    0  501    0  0.00000000000E+00  0.00000000000E+00  0.12403402211E+04  0.12403402211E+04  0.25500000000E-02 0. -1.
         -2   -1    0    0    0  501 -0.00000000000E+00 -0.00000000000E+00 -0.66470422518E+03  0.66470422518E+03  0.25500000000E-02 0.  1.
    8880022    1    1    2    0    0 -0.11269095367E+03 -0.83879265145E+03 -0.17657620045E+02  0.86021846511E+03  0.15294330000E+03 0.  0.
    8880022    1    1    2    0    0  0.11269095367E+03  0.83879265145E+03  0.59329361597E+03  0.10448259812E+04  0.15294330000E+03 0.  0.
<mgrwt>
<rscale>  0 0.86003722E+03</rscale>
<asrwt>0</asrwt>
<pdfrwt beam="1">  1        2 0.19082157E+00 0.86003722E+03</pdfrwt>
<pdfrwt beam="2">  1       -2 0.10226219E+00 0.86003722E+03</pdfrwt>
<totfact> 0.14140934E+01</totfact>
</mgrwt>
</event>
<event>
 4    1  0.2202466E-008  0.6115434E+03  0.7818608E-02  0.9881742E-01
          2   -1    0    0  501    0  0.00000000000E+00  0.00000000000E+00  0.94542086581E+03  0.94542086582E+03  0.25500000000E-02 0. -1.
         -2   -1    0    0    0  501 -0.00000000000E+00 -0.00000000000E+00 -0.84999068324E+03  0.84999068325E+03  0.25500000000E-02 0.  1.
    8880022    1    1    2    0    0 -0.54184838556E+03 -0.23873411788E+03  0.70409210934E+03  0.93259369686E+03  0.15294330000E+03 0.  0.
    8880022    1    1    2    0    0  0.54184838556E+03  0.23873411788E+03 -0.60866192677E+03  0.86281785221E+03  0.15294330000E+03 0.  1.
<mgrwt>
<rscale>  0 0.61154338E+03</rscale>
<asrwt>0</asrwt>
<pdfrwt beam="1">  1        2 0.14544936E+00 0.61154338E+03</pdfrwt>
<pdfrwt beam="2">  1       -2 0.13076780E+00 0.61154338E+03</pdfrwt>
<totfact> 0.12101955E+01</totfact>
</mgrwt>
</event>
<event>
 4    1  0.2202466E-008  0.6891182E+03  0.7818608E-02  0.9736025E-01
         -2   -1    0    0    0  501 -0.00000000000E+00  0.00000000000E+00  0.56269814807E+03  0.56269814808E+03  0.25500000000E-02 0.  1.
          2   -1    0    0  501    0  0.00000000000E+00 -0.00000000000E+00 -0.14528367203E+04  0.14528367203E+04  0.25500000000E-02 0. -1.
    8880022    1    1    2    0    0 -0.18161269072E+03  0.64692280697E+03 -0.10974835363E+04  0.12958989363E+04  0.15294330000E+03 0.  0.
    8880022    1    1    2    0    0  0.18161269072E+03 -0.64692280697E+03  0.20734496408E+03  0.71963593209E+03  0.15294330000E+03 0.  0.
<mgrwt>
<rscale>  0 0.68911823E+03</rscale>
<asrwt>0</asrwt>
<pdfrwt beam="1">  1        2 0.22351334E+00 0.68911823E+03</pdfrwt>
<pdfrwt beam="2">  1       -2 0.86568946E-01 0.68911823E+03</pdfrwt>
<totfact> 0.16092710E+01</totfact>
</mgrwt>
</event>
<event>
 4    1  0.2202466E-008  0.9220487E+03  0.7818608E-02  0.9398432E-01
          2   -1    0    0  501    0  0.00000000000E+00  0.00000000000E+00  0.11411081606E+04  0.11411081606E+04  0.25500000000E-02 0. -1.
         -2   -1    0    0    0  501 -0.00000000000E+00 -0.00000000000E+00 -0.21156765053E+04  0.21156765053E+04  0.25500000000E-02 0.  1.
    8880022    1    1    2    0    0 -0.85740130199E+03  0.30272958119E+03  0.82339138583E+03  0.12361825186E+04  0.15294330000E+03 0.  0.
    8880022    1    1    2    0    0  0.85740130199E+03 -0.30272958119E+03 -0.17979597305E+04  0.20206021473E+04  0.15294330000E+03 0.  0.
<mgrwt>
<rscale>  0 0.92204872E+03</rscale>
<asrwt>0</asrwt>
<pdfrwt beam="1">  1        2 0.17555510E+00 0.92204872E+03</pdfrwt>
<pdfrwt beam="2">  1       -2 0.32548869E+00 0.92204872E+03</pdfrwt>
<totfact> 0.46463729E-01</totfact>
</mgrwt>
</event>
<event>
 4    1  0.2202466E-008  0.6720564E+03  0.7818608E-02  0.9766250E-01
          2   -1    0    0  501    0  0.00000000000E+00  0.00000000000E+00  0.84246319763E+03  0.84246319763E+03  0.25500000000E-02 0. -1.
         -2   -1    0    0    0  501 -0.00000000000E+00 -0.00000000000E+00 -0.75207635649E+03  0.75207635649E+03  0.25500000000E-02 0.  1.
    8880022    1    1    2    0    0 -0.44742146761E+03 -0.47757956079E+03 -0.38203401203E+03  0.77305229184E+03  0.15294330000E+03 0.  0.
    8880022    1    1    2    0    0  0.44742146761E+03  0.47757956079E+03  0.47242085317E+03  0.82148726228E+03  0.15294330000E+03 0. -1.
<mgrwt>
<rscale>  0 0.67205644E+03</rscale>
<asrwt>0</asrwt>
<pdfrwt beam="1">  1        2 0.12960972E+00 0.67205644E+03</pdfrwt>
<pdfrwt beam="2">  1       -2 0.11570405E+00 0.67205644E+03</pdfrwt>
<totfact> 0.19099624E+01</totfact>
</mgrwt>
</event>
<event>
 4    1  0.2202466E-008  0.9248186E+03  0.7818608E-02  0.9395078E-01
          2   -1    0    0  501    0  0.00000000000E+00  0.00000000000E+00  0.11553467530E+04  0.11553467530E+04  0.25500000000E-02 0. -1.
         -2   -1    0    0    0  501 -0.00000000000E+00 -0.00000000000E+00 -0.79345525454E+03  0.79345525455E+03  0.25500000000E-02 0.  1.
    8880022    1    1    2    0    0 -0.77309126164E+03  0.48397070899E+03  0.43317671401E+03  0.10212401601E+04  0.15294330000E+03 0.  0.
    8880022    1    1    2    0    0  0.77309126164E+03 -0.48397070899E+03 -0.71285215514E+02  0.92756184751E+03  0.15294330000E+03 0.  0.
<mgrwt>
<rscale>  0 0.92481858E+03</rscale>
<asrwt>0</asrwt>
<pdfrwt beam="1">  1        2 0.17774565E+00 0.92481858E+03</pdfrwt>
<pdfrwt beam="2">  1       -2 0.12207004E+00 0.92481858E+03</pdfrwt>
<totfact> 0.10250038E+01</totfact>
</mgrwt>
</event>
<event>
 4    1  0.2202466E-008  0.1982454E+04  0.7818608E-02  0.8614868E-01
          2   -1    0    0  501    0  0.00000000000E+00  0.00000000000E+00  0.22891165766E+04  0.22891165766E+04  0.25500000000E-02 0. -1.
         -2   -1    0    0    0  501 -0.00000000000E+00 -0.00000000000E+00 -0.19202274950E+04  0.19202274950E+04  0.25500000000E-02 0.  1.
    8880022    1    1    2    0    0 -0.76887867056E+03 -0.18208673563E+04  0.86935571995E+03  0.21646947499E+04  0.15294330000E+03 0.  0.
    8880022    1    1    2    0    0  0.76887867056E+03  0.18208673563E+04 -0.50046663835E+03  0.20446493216E+04  0.15294330000E+03 0.  0.
<mgrwt>
<rscale>  0 0.19824540E+04</rscale>
<asrwt>0</asrwt>
<pdfrwt beam="1">  1        2 0.35217178E+00 0.19824540E+04</pdfrwt>
<pdfrwt beam="2">  1       -2 0.29541962E+00 0.19824540E+04</pdfrwt>
<totfact> 0.13872656E-01</totfact>
</mgrwt>
</event>
<event>
 4    1  0.2202466E-008  0.1551875E+04  0.7818608E-02  0.8850671E-01
         -2   -1    0    0    0  501 -0.00000000000E+00  0.00000000000E+00  0.10607551267E+04  0.10607551267E+04  0.25500000000E-02 0.  1.
          2   -1    0    0  501    0  0.00000000000E+00 -0.00000000000E+00 -0.24574529521E+04  0.24574529521E+04  0.25500000000E-02 0. -1.
    8880022    1    1    2    0    0  0.14064448966E+04  0.63783825483E+03 -0.11836990642E+04  0.19517838031E+04  0.15294330000E+03 0.  0.
    8880022    1    1    2    0    0 -0.14064448966E+04 -0.63783825483E+03 -0.21299876117E+03  0.15664242757E+04  0.15294330000E+03 0.  0.
<mgrwt>
<rscale>  0 0.15518752E+04</rscale>
<asrwt>0</asrwt>
<pdfrwt beam="1">  1        2 0.37806968E+00 0.15518752E+04</pdfrwt>
<pdfrwt beam="2">  1       -2 0.16319310E+00 0.15518752E+04</pdfrwt>
<totfact> 0.82473288E-01</totfact>
</mgrwt>
</event>
<event>
 4    1  0.2202466E-008  0.8802843E+03  0.7818608E-02  0.9450568E-01
          2   -1    0    0  501    0  0.00000000000E+00  0.00000000000E+00  0.20580629532E+04  0.20580629532E+04  0.25500000000E-02 0. -1.
         -2   -1    0    0    0  501 -0.00000000000E+00 -0.00000000000E+00 -0.45589306309E+03  0.45589306310E+03  0.25500000000E-02 0.  1.
    8880022    1    1    2    0    0  0.63861700493E+03 -0.58623974028E+03  0.27659791984E+03  0.92271706082E+03  0.15294330000E+03 0.  0.
    8880022    1    1    2    0    0 -0.63861700493E+03  0.58623974028E+03  0.13255719703E+04  0.15912389555E+04  0.15294330000E+03 0.  0.
<mgrwt>
<rscale>  0 0.88028425E+03</rscale>
<asrwt>0</asrwt>
<pdfrwt beam="1">  1        2 0.31662507E+00 0.88028425E+03</pdfrwt>
<pdfrwt beam="2">  1       -2 0.70137394E-01 0.88028425E+03</pdfrwt>
<totfact> 0.11686237E+01</totfact>
</mgrwt>
</event>
<event>
 4    1  0.2202466E-008  0.3639862E+03  0.7818608E-02  0.1057017E+00
         -2   -1    0    0    0  501 -0.00000000000E+00  0.00000000000E+00  0.88218903412E+03  0.88218903413E+03  0.25500000000E-02 0.  1.
          2   -1    0    0  501    0  0.00000000000E+00 -0.00000000000E+00 -0.18489744992E+03  0.18489744994E+03  0.25500000000E-02 0. -1.
    8880022    1    1    2    0    0 -0.68930832885E+02  0.32302141363E+03  0.57984513684E+03  0.68462130343E+03  0.15294330000E+03 0.  0.
    8880022    1    1    2    0    0  0.68930832885E+02 -0.32302141363E+03  0.11744644736E+03  0.38246518063E+03  0.15294330000E+03 0.  0.
<mgrwt>
<rscale>  0 0.36398619E+03</rscale>
<asrwt>0</asrwt>
<pdfrwt beam="1">  1        2 0.28445761E-01 0.36398619E+03</pdfrwt>
<pdfrwt beam="2">  1       -2 0.13572139E+00 0.36398619E+03</pdfrwt>
<totfact> 0.76037507E+01</totfact>
</mgrwt>
</event>
<event>
 4    1  0.2202466E-008  0.8183427E+03  0.7818608E-02  0.9533840E-01
          2   -1    0    0  501    0  0.00000000000E+00  0.00000000000E+00  0.11176684623E+04  0.11176684623E+04  0.25500000000E-02 0. -1.
         -2   -1    0    0    0  501 -0.00000000000E+00 -0.00000000000E+00 -0.10067936015E+04  0.10067936015E+04  0.25500000000E-02 0.  1.
    8880022    1    1    2    0    0  0.13513188464E+03  0.79248501261E+03  0.73132273928E+03  0.10975052271E+04  0.15294330000E+03 0.  0.
    8880022    1    1    2    0    0 -0.13513188464E+03 -0.79248501261E+03 -0.62044787854E+03  0.10269568367E+04  0.15294330000E+03 0.  0.
<mgrwt>
<rscale>  0 0.81834270E+03</rscale>
<asrwt>0</asrwt>
<pdfrwt beam="1">  1        2 0.17194899E+00 0.81834270E+03</pdfrwt>
<pdfrwt beam="2">  1       -2 0.15489132E+00 0.81834270E+03</pdfrwt>
<totfact> 0.59106319E+00</totfact>
</mgrwt>
</event>
<event>
 4    1  0.2202466E-008  0.2944433E+03  0.7818608E-02  0.1088052E+00
          2   -1    0    0  501    0  0.00000000000E+00  0.00000000000E+00  0.12914298381E+04  0.12914298381E+04  0.25500000000E-02 0. -1.
         -2   -1    0    0    0  501 -0.00000000000E+00 -0.00000000000E+00 -0.21733942138E+04  0.21733942138E+04  0.25500000000E-02 0.  1.
    8880022    1    1    2    0    0 -0.16989819580E+03  0.18557972264E+03 -0.21464287100E+04  0.21665301960E+04  0.15294330000E+03 0.  0.
    8880022    1    1    2    0    0  0.16989819580E+03 -0.18557972264E+03  0.12644643343E+04  0.12982938559E+04  0.15294330000E+03 0. -1.
<mgrwt>
<rscale>  0 0.29444334E+03</rscale>
<asrwt>0</asrwt>
<pdfrwt beam="1">  1        2 0.19868151E+00 0.29444334E+03</pdfrwt>
<pdfrwt beam="2">  1       -2 0.33436834E+00 0.29444334E+03</pdfrwt>
<totfact> 0.40754949E-01</totfact>
</mgrwt>
</event>
<event>
 4    1  0.2202466E-008  0.8355319E+03  0.7818608E-02  0.9509964E-01
         -2   -1    0    0    0  501 -0.00000000000E+00  0.00000000000E+00  0.13621356540E+04  0.13621356540E+04  0.25500000000E-02 0.  1.
          2   -1    0    0  501    0  0.00000000000E+00 -0.00000000000E+00 -0.63500360121E+03  0.63500360121E+03  0.25500000000E-02 0. -1.
    8880022    1    1    2    0    0  0.71330324015E+03 -0.40733321942E+03 -0.75005030048E+02  0.83889169241E+03  0.15294330000E+03 0.  0.
    8880022    1    1    2    0    0 -0.71330324015E+03  0.40733321942E+03  0.80213708283E+03  0.11582475628E+04  0.15294330000E+03 0.  0.
<mgrwt>
<rscale>  0 0.83553188E+03</rscale>
<asrwt>0</asrwt>
<pdfrwt beam="1">  1        2 0.97692862E-01 0.83553188E+03</pdfrwt>
<pdfrwt beam="2">  1       -2 0.20955933E+00 0.83553188E+03</pdfrwt>
<totfact> 0.53959530E+00</totfact>
</mgrwt>
</event>
<event>
 4    1  0.2202466E-008  0.1172072E+04  0.7818608E-02  0.9137659E-01
         -2   -1    0    0    0  501 -0.00000000000E+00  0.00000000000E+00  0.61698265657E+03  0.61698265657E+03  0.25500000000E-02 0.  1.
          2   -1    0    0  501    0  0.00000000000E+00 -0.00000000000E+00 -0.24836203065E+04  0.24836203065E+04  0.25500000000E-02 0. -1.
    8880022    1    1    2    0    0  0.11040088341E+04 -0.36266437446E+03 -0.14320723760E+04  0.18505631298E+04  0.15294330000E+03 0.  0.
    8880022    1    1    2    0    0 -0.11040088341E+04  0.36266437446E+03 -0.43456527395E+03  0.12500398332E+04  0.15294330000E+03 0.  1.
<mgrwt>
<rscale>  0 0.11720719E+04</rscale>
<asrwt>0</asrwt>
<pdfrwt beam="1">  1        2 0.38209543E+00 0.11720719E+04</pdfrwt>
<pdfrwt beam="2">  1       -2 0.94920410E-01 0.11720719E+04</pdfrwt>
<totfact> 0.32796764E+00</totfact>
</mgrwt>
</event>
<event>
 4    1  0.2202466E-008  0.4138841E+03  0.7818608E-02  0.1039075E+00
          2   -1    0    0  501    0  0.00000000000E+00  0.00000000000E+00  0.30003568138E+04  0.30003568138E+04  0.25500000000E-02 0. -1.
         -2   -1    0    0    0  501 -0.00000000000E+00 -0.00000000000E+00 -0.61617750808E+03  0.61617750809E+03  0.25500000000E-02 0.  1.
    8880022    1    1    2    0    0  0.38080810455E+03 -0.53792275981E+02  0.29145463512E+04  0.29437867633E+04  0.15294330000E+03 0. -1.
    8880022    1    1    2    0    0 -0.38080810455E+03  0.53792275981E+02 -0.53036704557E+03  0.67274755851E+03  0.15294330000E+03 0.  0.
<mgrwt>
<rscale>  0 0.41388413E+03</rscale>
<asrwt>0</asrwt>
<pdfrwt beam="1">  1        2 0.46159335E+00 0.41388413E+03</pdfrwt>
<pdfrwt beam="2">  1       -2 0.94796542E-01 0.41388413E+03</pdfrwt>
<totfact> 0.19180992E+00</totfact>
</mgrwt>
</event>
<event>
 4    1  0.2202466E-008  0.3664589E+03  0.7818608E-02  0.1056055E+00
          2   -1    0    0  501    0  0.00000000000E+00  0.00000000000E+00  0.18190473075E+04  0.18190473075E+04  0.25500000000E-02 0. -1.
         -2   -1    0    0    0  501 -0.00000000000E+00 -0.00000000000E+00 -0.14416012521E+03  0.14416012524E+03  0.25500000000E-02 0.  1.
    8880022    1    1    2    0    0  0.12808812991E+01  0.33301480688E+03  0.15180054688E+03  0.39665546928E+03  0.15294330000E+03 0.  0.
    8880022    1    1    2    0    0 -0.12808812991E+01 -0.33301480688E+03  0.15230866354E+04  0.15665519635E+04  0.15294330000E+03 0.  0.
<mgrwt>
<rscale>  0 0.36645894E+03</rscale>
<asrwt>0</asrwt>
<pdfrwt beam="1">  1        2 0.27985343E+00 0.36645894E+03</pdfrwt>
<pdfrwt beam="2">  1       -2 0.22178481E-01 0.36645894E+03</pdfrwt>
<totfact> 0.16041921E+02</totfact>
</mgrwt>
</event>
<event>
 4    1  0.2202466E-008  0.3534848E+03  0.7818608E-02  0.1061194E+00
         -2   -1    0    0    0  501 -0.00000000000E+00  0.00000000000E+00  0.41416404988E+02  0.41416405067E+02  0.25500000000E-02 0.  1.
          2   -1    0    0  501    0  0.00000000000E+00 -0.00000000000E+00 -0.43382559255E+04  0.43382559255E+04  0.25500000000E-02 0. -1.
    8880022    1    1    2    0    0  0.28661147469E+03 -0.13933310752E+03 -0.93989761949E+03  0.10041708223E+04  0.15294330000E+03 0.  0.
    8880022    1    1    2    0    0 -0.28661147469E+03  0.13933310752E+03 -0.33569419010E+04  0.33755015082E+04  0.15294330000E+03 0.  0.
<mgrwt>
<rscale>  0 0.35348480E+03</rscale>
<asrwt>0</asrwt>
<pdfrwt beam="1">  1        2 0.66742363E+00 0.35348480E+03</pdfrwt>
<pdfrwt beam="2">  1       -2 0.63717580E-02 0.35348480E+03</pdfrwt>
<totfact> 0.30830005E+01</totfact>
</mgrwt>
</event>
<event>
 4    1  0.2202466E-008  0.8221053E+03  0.7818608E-02  0.9528560E-01
          2   -1    0    0  501    0  0.00000000000E+00  0.00000000000E+00  0.21903213034E+04  0.21903213034E+04  0.25500000000E-02 0. -1.
         -2   -1    0    0    0  501 -0.00000000000E+00 -0.00000000000E+00 -0.59313376333E+03  0.59313376334E+03  0.25500000000E-02 0.  1.
    8880022    1    1    2    0    0  0.11634769266E+03 -0.79933016871E+03 -0.16539345352E+03  0.83857745717E+03  0.15294330000E+03 0.  0.
    8880022    1    1    2    0    0 -0.11634769266E+03  0.79933016871E+03  0.17625809936E+04  0.19448776095E+04  0.15294330000E+03 0.  0.
<mgrwt>
<rscale>  0 0.82210532E+03</rscale>
<asrwt>0</asrwt>
<pdfrwt beam="1">  1        2 0.33697251E+00 0.82210532E+03</pdfrwt>
<pdfrwt beam="2">  1       -2 0.91251348E-01 0.82210532E+03</pdfrwt>
<totfact> 0.55069867E+00</totfact>
</mgrwt>
</event>
<event>
 4    1  0.2202466E-008  0.5576346E+03  0.7818608E-02  0.9997421E-01
          2   -1    0    0  501    0  0.00000000000E+00  0.00000000000E+00  0.10968778790E+04  0.10968778790E+04  0.25500000000E-02 0. -1.
         -2   -1    0    0    0  501 -0.00000000000E+00 -0.00000000000E+00 -0.50420438817E+03  0.50420438817E+03  0.25500000000E-02 0.  1.
    8880022    1    1    2    0    0  0.53519787500E+03 -0.33585121012E+02 -0.23331870963E+03  0.60447828665E+03  0.15294330000E+03 0.  0.
    8880022    1    1    2    0    0 -0.53519787500E+03  0.33585121012E+02  0.82599220049E+03  0.99660398054E+03  0.15294330000E+03 0.  0.
<mgrwt>
<rscale>  0 0.55763463E+03</rscale>
<asrwt>0</asrwt>
<pdfrwt beam="1">  1        2 0.16875044E+00 0.55763463E+03</pdfrwt>
<pdfrwt beam="2">  1       -2 0.77569907E-01 0.55763463E+03</pdfrwt>
<totfact> 0.33704968E+01</totfact>
</mgrwt>
</event>
<event>
 4    1  0.2202466E-008  0.5332094E+03  0.7818608E-02  0.1005457E+00
         -2   -1    0    0    0  501 -0.00000000000E+00  0.00000000000E+00  0.60348178151E+03  0.60348178151E+03  0.25500000000E-02 0.  1.
          2   -1    0    0  501    0  0.00000000000E+00 -0.00000000000E+00 -0.73914837880E+03  0.73914837881E+03  0.25500000000E-02 0. -1.
    8880022    1    1    2    0    0 -0.50873805596E+03 -0.45892945704E+02 -0.47208432263E+03  0.71216278528E+03  0.15294330000E+03 0.  0.
    8880022    1    1    2    0    0  0.50873805596E+03  0.45892945704E+02  0.33641772534E+03  0.63046737504E+03  0.15294330000E+03 0.  1.
<mgrwt>
<rscale>  0 0.53320936E+03</rscale>
<asrwt>0</asrwt>
<pdfrwt beam="1">  1        2 0.11371514E+00 0.53320936E+03</pdfrwt>
<pdfrwt beam="2">  1       -2 0.92843351E-01 0.53320936E+03</pdfrwt>
<totfact> 0.38888327E+01</totfact>
</mgrwt>
</event>
<event>
 4    1  0.2202466E-008  0.6669961E+03  0.7818608E-02  0.9775400E-01
          2   -1    0    0  501    0  0.00000000000E+00  0.00000000000E+00  0.32967849742E+04  0.32967849742E+04  0.25500000000E-02 0. -1.
         -2   -1    0    0    0  501 -0.00000000000E+00 -0.00000000000E+00 -0.14537359918E+03  0.14537359921E+03  0.25500000000E-02 0.  1.
    8880022    1    1    2    0    0 -0.54390112998E+02  0.64694191504E+03  0.11147315226E+04  0.12990420110E+04  0.15294330000E+03 0.  0.
    8880022    1    1    2    0    0  0.54390112998E+02 -0.64694191504E+03  0.20366798525E+04  0.21431165624E+04  0.15294330000E+03 0.  0.
<mgrwt>
<rscale>  0 0.66699609E+03</rscale>
<asrwt>0</asrwt>
<pdfrwt beam="1">  1        2 0.50719768E+00 0.66699609E+03</pdfrwt>
<pdfrwt beam="2">  1       -2 0.22365170E-01 0.66699609E+03</pdfrwt>
<totfact> 0.21269764E+01</totfact>
</mgrwt>
</event>
<event>
 4    1  0.2202466E-008  0.8392126E+03  0.7818608E-02  0.9504931E-01
         -2   -1    0    0    0  501 -0.00000000000E+00  0.00000000000E+00  0.77606365098E+03  0.77606365099E+03  0.25500000000E-02 0.  1.
          2   -1    0    0  501    0  0.00000000000E+00 -0.00000000000E+00 -0.26961524828E+04  0.26961524828E+04  0.25500000000E-02 0. -1.
    8880022    1    1    2    0    0 -0.30886714173E+03  0.76517139424E+03 -0.23741033329E+04  0.25180636335E+04  0.15294330000E+03 0.  0.
    8880022    1    1    2    0    0  0.30886714173E+03 -0.76517139424E+03  0.45401450105E+03  0.95415250038E+03  0.15294330000E+03 0.  0.
<mgrwt>
<rscale>  0 0.83921262E+03</rscale>
<asrwt>0</asrwt>
<pdfrwt beam="1">  1        2 0.41479269E+00 0.83921262E+03</pdfrwt>
<pdfrwt beam="2">  1       -2 0.11939441E+00 0.83921262E+03</pdfrwt>
<totfact> 0.14913170E+00</totfact>
</mgrwt>
</event>
<event>
 4    1  0.2202466E-008  0.1007339E+04  0.7818608E-02  0.9300532E-01
         -2   -1    0    0    0  501 -0.00000000000E+00  0.00000000000E+00  0.29458822752E+03  0.29458822753E+03  0.25500000000E-02 0.  1.
          2   -1    0    0  501    0  0.00000000000E+00 -0.00000000000E+00 -0.41295907799E+04  0.41295907799E+04  0.25500000000E-02 0. -1.
    8880022    1    1    2    0    0 -0.59369138593E+03 -0.79929345531E+03 -0.10165535712E+04  0.14311227430E+04  0.15294330000E+03 0.  0.
    8880022    1    1    2    0    0  0.59369138593E+03  0.79929345531E+03 -0.28184489811E+04  0.29930562644E+04  0.15294330000E+03 0.  0.
<mgrwt>
<rscale>  0 0.10073386E+04</rscale>
<asrwt>0</asrwt>
<pdfrwt beam="1">  1        2 0.63532162E+00 0.10073386E+04</pdfrwt>
<pdfrwt beam="2">  1       -2 0.45321269E-01 0.10073386E+04</pdfrwt>
<totfact> 0.13059974E+00</totfact>
</mgrwt>
</event>
<event>
 4    1  0.2202466E-008  0.2429027E+03  0.7818608E-02  0.1117874E+00
         -2   -1    0    0    0  501 -0.00000000000E+00  0.00000000000E+00  0.15468226766E+03  0.15468226769E+03  0.25500000000E-02 0.  1.
          2   -1    0    0  501    0  0.00000000000E+00 -0.00000000000E+00 -0.10717111382E+04  0.10717111382E+04  0.25500000000E-02 0. -1.
    8880022    1    1    2    0    0 -0.12261329364E+03  0.14344351188E+03  0.33605985586E+02  0.24521638640E+03  0.15294330000E+03 0.  1.
    8880022    1    1    2    0    0  0.12261329364E+03 -0.14344351188E+03 -0.95063485614E+03  0.98117701951E+03  0.15294330000E+03 0.  0.
<mgrwt>
<rscale>  0 0.24290268E+03</rscale>
<asrwt>0</asrwt>
<pdfrwt beam="1">  1        2 0.16487863E+00 0.24290268E+03</pdfrwt>
<pdfrwt beam="2">  1       -2 0.23797273E-01 0.24290268E+03</pdfrwt>
<totfact> 0.37220790E+02</totfact>
</mgrwt>
</event>
<event>
 4    1  0.2202466E-008  0.1218454E+04  0.7818608E-02  0.9096855E-01
          2   -1    0    0  501    0  0.00000000000E+00  0.00000000000E+00  0.27237183809E+04  0.27237183809E+04  0.25500000000E-02 0. -1.
         -2   -1    0    0    0  501 -0.00000000000E+00 -0.00000000000E+00 -0.62255665704E+03  0.62255665704E+03  0.25500000000E-02 0.  1.
    8880022    1    1    2    0    0 -0.44656957990E+03  0.11233050880E+04  0.46032257519E+03  0.13025080563E+04  0.15294330000E+03 0.  0.
    8880022    1    1    2    0    0  0.44656957990E+03 -0.11233050880E+04  0.16408391487E+04  0.20437669817E+04  0.15294330000E+03 0.  0.
<mgrwt>
<rscale>  0 0.12184541E+04</rscale>
<asrwt>0</asrwt>
<pdfrwt beam="1">  1        2 0.41903360E+00 0.12184541E+04</pdfrwt>
<pdfrwt beam="2">  1       -2 0.95777947E-01 0.12184541E+04</pdfrwt>
<totfact> 0.23141613E+00</totfact>
</mgrwt>
</event>
<event>
 4    1  0.2202466E-008  0.5486989E+03  0.7818608E-02  0.1001796E+00
         -2   -1    0    0    0  501 -0.00000000000E+00  0.00000000000E+00  0.17281183887E+04  0.17281183887E+04  0.25500000000E-02 0.  1.
          2   -1    0    0  501    0  0.00000000000E+00 -0.00000000000E+00 -0.31853143555E+04  0.31853143555E+04  0.25500000000E-02 0. -1.
    8880022    1    1    2    0    0  0.58158886481E+02  0.52373311771E+03  0.16599894819E+04  0.17483236450E+04  0.15294330000E+03 0.  0.
    8880022    1    1    2    0    0 -0.58158886481E+02 -0.52373311771E+03 -0.31171854488E+04  0.31651090992E+04  0.15294330000E+03 0. -1.
<mgrwt>
<rscale>  0 0.54869890E+03</rscale>
<asrwt>0</asrwt>
<pdfrwt beam="1">  1        2 0.49004836E+00 0.54869890E+03</pdfrwt>
<pdfrwt beam="2">  1       -2 0.26586437E+00 0.54869890E+03</pdfrwt>
<totfact> 0.80299229E-02</totfact>
</mgrwt>
</event>
<event>
 4    1  0.2202466E-008  0.7216446E+03  0.7818608E-02  0.9680917E-01
         -2   -1    0    0    0  501 -0.00000000000E+00  0.00000000000E+00  0.53495132728E+03  0.53495132729E+03  0.25500000000E-02 0.  1.
          2   -1    0    0  501    0  0.00000000000E+00 -0.00000000000E+00 -0.17773834274E+04  0.17773834274E+04  0.25500000000E-02 0. -1.
    8880022    1    1    2    0    0 -0.13350399446E+03 -0.69249980785E+03  0.15633477769E+03  0.73838439592E+03  0.15294330000E+03 0.  0.
    8880022    1    1    2    0    0  0.13350399446E+03  0.69249980785E+03 -0.13987668778E+04  0.15739503588E+04  0.15294330000E+03 0.  0.
<mgrwt>
<rscale>  0 0.72164462E+03</rscale>
<asrwt>0</asrwt>
<pdfrwt beam="1">  1        2 0.27344360E+00 0.72164462E+03</pdfrwt>
<pdfrwt beam="2">  1       -2 0.82300205E-01 0.72164462E+03</pdfrwt>
<totfact> 0.11910970E+01</totfact>
</mgrwt>
</event>
<event>
 4    1  0.2202466E-008  0.5674721E+03  0.7818608E-02  0.9975288E-01
         -2   -1    0    0    0  501 -0.00000000000E+00  0.00000000000E+00  0.27096331539E+03  0.27096331540E+03  0.25500000000E-02 0.  1.
          2   -1    0    0  501    0  0.00000000000E+00 -0.00000000000E+00 -0.27234251527E+04  0.27234251527E+04  0.25500000000E-02 0. -1.
    8880022    1    1    2    0    0 -0.34986343714E+03  0.41979576676E+03 -0.10221611111E+03  0.57660445439E+03  0.15294330000E+03 0.  0.
    8880022    1    1    2    0    0  0.34986343714E+03 -0.41979576676E+03 -0.23502457262E+04  0.24177840137E+04  0.15294330000E+03 0.  0.
<mgrwt>
<rscale>  0 0.56747208E+03</rscale>
<asrwt>0</asrwt>
<pdfrwt beam="1">  1        2 0.41898847E+00 0.56747208E+03</pdfrwt>
<pdfrwt beam="2">  1       -2 0.41686666E-01 0.56747208E+03</pdfrwt>
<totfact> 0.15287179E+01</totfact>
</mgrwt>
</event>
<event>
 4    1  0.2202466E-008  0.5114142E+03  0.7818608E-02  0.1010842E+00
          2   -1    0    0  501    0  0.00000000000E+00  0.00000000000E+00  0.14536580820E+04  0.14536580820E+04  0.25500000000E-02 0. -1.
         -2   -1    0    0    0  501 -0.00000000000E+00 -0.00000000000E+00 -0.41793266992E+03  0.41793266993E+03  0.25500000000E-02 0.  1.
    8880022    1    1    2    0    0  0.24116504044E+03 -0.42425495528E+03  0.12240604192E+04  0.13266003192E+04  0.15294330000E+03 0.  0.
    8880022    1    1    2    0    0 -0.24116504044E+03  0.42425495528E+03 -0.18833500720E+03  0.54499043273E+03  0.15294330000E+03 0.  0.
<mgrwt>
<rscale>  0 0.51141421E+03</rscale>
<asrwt>0</asrwt>
<pdfrwt beam="1">  1        2 0.22363970E+00 0.51141421E+03</pdfrwt>
<pdfrwt beam="2">  1       -2 0.64297335E-01 0.51141421E+03</pdfrwt>
<totfact> 0.31828924E+01</totfact>
</mgrwt>
</event>
<event>
 4    1  0.2202466E-008  0.8366967E+03  0.7818608E-02  0.9508368E-01
          2   -1    0    0  501    0  0.00000000000E+00  0.00000000000E+00  0.15832955857E+04  0.15832955857E+04  0.25500000000E-02 0. -1.
         -2   -1    0    0    0  501 -0.00000000000E+00 -0.00000000000E+00 -0.53985070031E+03  0.53985070031E+03  0.25500000000E-02 0.  1.
    8880022    1    1    2    0    0  0.82200468754E+03 -0.31273433740E+02  0.70124704947E+02  0.83963019315E+03  0.15294330000E+03 0.  0.
    8880022    1    1    2    0    0 -0.82200468754E+03  0.31273433740E+02  0.97332018048E+03  0.12835160929E+04  0.15294330000E+03 0.  0.
<mgrwt>
<rscale>  0 0.83669671E+03</rscale>
<asrwt>0</asrwt>
<pdfrwt beam="1">  1        2 0.24358394E+00 0.83669671E+03</pdfrwt>
<pdfrwt beam="2">  1       -2 0.83053954E-01 0.83669671E+03</pdfrwt>
<totfact> 0.14688284E+01</totfact>
</mgrwt>
</event>
<event>
 4    1  0.2202466E-008  0.6591547E+03  0.7818608E-02  0.9789751E-01
         -2   -1    0    0    0  501 -0.00000000000E+00  0.00000000000E+00  0.12625157604E+03  0.12625157606E+03  0.25500000000E-02 0.  1.
          2   -1    0    0  501    0  0.00000000000E+00 -0.00000000000E+00 -0.46479303858E+04  0.46479303858E+04  0.25500000000E-02 0. -1.
    8880022    1    1    2    0    0 -0.36488117965E+03 -0.52721431082E+03 -0.10446408858E+04  0.12352163527E+04  0.15294330000E+03 0.  0.
    8880022    1    1    2    0    0  0.36488117965E+03  0.52721431082E+03 -0.34770379240E+04  0.35389656092E+04  0.15294330000E+03 0.  0.
<mgrwt>
<rscale>  0 0.65915465E+03</rscale>
<asrwt>0</asrwt>
<pdfrwt beam="1">  1        2 0.71506608E+00 0.65915465E+03</pdfrwt>
<pdfrwt beam="2">  1       -2 0.19423323E-01 0.65915465E+03</pdfrwt>
<totfact> 0.22938151E+00</totfact>
</mgrwt>
</event>
<event>
 4    1  0.2202466E-008  0.1738691E+04  0.7818608E-02  0.8739600E-01
         -2   -1    0    0    0  501 -0.00000000000E+00  0.00000000000E+00  0.18868078500E+04  0.18868078500E+04  0.25500000000E-02 0.  1.
          2   -1    0    0  501    0  0.00000000000E+00 -0.00000000000E+00 -0.34140234046E+04  0.34140234046E+04  0.25500000000E-02 0. -1.
    8880022    1    1    2    0    0 -0.46659616020E+03 -0.16679157739E+04 -0.26944130271E+04  0.32066974006E+04  0.15294330000E+03 0.  0.
    8880022    1    1    2    0    0  0.46659616020E+03  0.16679157739E+04  0.11671974725E+04  0.20941338540E+04  0.15294330000E+03 0.  0.
<mgrwt>
<rscale>  0 0.17386911E+04</rscale>
<asrwt>0</asrwt>
<pdfrwt beam="1">  1        2 0.52523437E+00 0.17386911E+04</pdfrwt>
<pdfrwt beam="2">  1       -2 0.29027813E+00 0.17386911E+04</pdfrwt>
<totfact> 0.31057163E-02</totfact>
</mgrwt>
</event>
<event>
 4    1  0.2202466E-008  0.8007446E+03  0.7818608E-02  0.9558940E-01
          2   -1    0    0  501    0  0.00000000000E+00  0.00000000000E+00  0.24083403616E+04  0.24083403616E+04  0.25500000000E-02 0. -1.
         -2   -1    0    0    0  501 -0.00000000000E+00 -0.00000000000E+00 -0.86169757241E+03  0.86169757241E+03  0.25500000000E-02 0.  1.
    8880022    1    1    2    0    0 -0.63312643639E+03 -0.46578012797E+03 -0.58584140439E+03  0.99217035644E+03  0.15294330000E+03 0.  1.
    8880022    1    1    2    0    0  0.63312643639E+03  0.46578012797E+03  0.21324841935E+04  0.22778675775E+04  0.15294330000E+03 0.  0.
<mgrwt>
<rscale>  0 0.80074457E+03</rscale>
<asrwt>0</asrwt>
<pdfrwt beam="1">  1        2 0.37051390E+00 0.80074457E+03</pdfrwt>
<pdfrwt beam="2">  1       -2 0.13256886E+00 0.80074457E+03</pdfrwt>
<totfact> 0.16870881E+00</totfact>
</mgrwt>
</event>
<event>
 4    1  0.2202466E-008  0.7661673E+03  0.7818608E-02  0.9610322E-01
          2   -1    0    0  501    0  0.00000000000E+00  0.00000000000E+00  0.31212740549E+04  0.31212740549E+04  0.25500000000E-02 0. -1.
         -2   -1    0    0    0  501 -0.00000000000E+00 -0.00000000000E+00 -0.30439594701E+03  0.30439594702E+03  0.25500000000E-02 0.  1.
    8880022    1    1    2    0    0 -0.62719724476E+03 -0.41260664915E+03  0.34958081521E+03  0.84215142946E+03  0.15294330000E+03 0.  1.
    8880022    1    1    2    0    0  0.62719724476E+03  0.41260664915E+03  0.24672972927E+04  0.25835185725E+04  0.15294330000E+03 0.  0.
<mgrwt>
<rscale>  0 0.76616727E+03</rscale>
<asrwt>0</asrwt>
<pdfrwt beam="1">  1        2 0.48019602E+00 0.76616727E+03</pdfrwt>
<pdfrwt beam="2">  1       -2 0.46830144E-01 0.76616727E+03</pdfrwt>
<totfact> 0.67183122E+00</totfact>
</mgrwt>
</event>
<event>
 4    1  0.2202466E-008  0.8878443E+03  0.7818608E-02  0.9440906E-01
          2   -1    0    0  501    0  0.00000000000E+00  0.00000000000E+00  0.41091119926E+04  0.41091119926E+04  0.25500000000E-02 0. -1.
         -2   -1    0    0    0  501 -0.00000000000E+00 -0.00000000000E+00 -0.42851399515E+03  0.42851399516E+03  0.25500000000E-02 0.  1.
    8880022    1    1    2    0    0  0.33038983887E+03 -0.80976439910E+03  0.35264518885E+04  0.36364997460E+04  0.15294330000E+03 0.  0.
    8880022    1    1    2    0    0 -0.33038983887E+03  0.80976439910E+03  0.15414610895E+03  0.90112624177E+03  0.15294330000E+03 0.  0.
<mgrwt>
<rscale>  0 0.88784429E+03</rscale>
<asrwt>0</asrwt>
<pdfrwt beam="1">  1        2 0.63217106E+00 0.88784429E+03</pdfrwt>
<pdfrwt beam="2">  1       -2 0.65925232E-01 0.88784429E+03</pdfrwt>
<totfact> 0.63764834E-01</totfact>
</mgrwt>
</event>
<event>
 4    1  0.2202466E-008  0.4179929E+03  0.7818608E-02  0.1037722E+00
          2   -1    0    0  501    0  0.00000000000E+00  0.00000000000E+00  0.97304118963E+03  0.97304118963E+03  0.25500000000E-02 0. -1.
         -2   -1    0    0    0  501 -0.00000000000E+00 -0.00000000000E+00 -0.79385983795E+03  0.79385983795E+03  0.25500000000E-02 0.  1.
    8880022    1    1    2    0    0  0.34983980366E+03  0.17011321913E+03 -0.68755235787E+03  0.80464047460E+03  0.15294330000E+03 0.  0.
    8880022    1    1    2    0    0 -0.34983980366E+03 -0.17011321913E+03  0.86673370954E+03  0.96226055298E+03  0.15294330000E+03 0.  0.
<mgrwt>
<rscale>  0 0.41799288E+03</rscale>
<asrwt>0</asrwt>
<pdfrwt beam="1">  1        2 0.14969864E+00 0.41799288E+03</pdfrwt>
<pdfrwt beam="2">  1       -2 0.12213228E+00 0.41799288E+03</pdfrwt>
<totfact> 0.14232216E+01</totfact>
</mgrwt>
</event>
<event>
 4    1  0.2202466E-008  0.1101564E+04  0.7818608E-02  0.9203669E-01
          2   -1    0    0  501    0  0.00000000000E+00  0.00000000000E+00  0.33193736893E+04  0.33193736893E+04  0.25500000000E-02 0. -1.
         -2   -1    0    0    0  501 -0.00000000000E+00 -0.00000000000E+00 -0.56064375655E+03  0.56064375655E+03  0.25500000000E-02 0.  1.
    8880022    1    1    2    0    0  0.94318446230E+03 -0.54813774350E+03  0.23499546513E+03  0.11263509388E+04  0.15294330000E+03 0.  0.
    8880022    1    1    2    0    0 -0.94318446230E+03  0.54813774350E+03  0.25237344676E+04  0.27536665070E+04  0.15294330000E+03 0.  0.
<mgrwt>
<rscale>  0 0.11015641E+04</rscale>
<asrwt>0</asrwt>
<pdfrwt beam="1">  1        2 0.51067287E+00 0.11015641E+04</pdfrwt>
<pdfrwt beam="2">  1       -2 0.86252886E-01 0.11015641E+04</pdfrwt>
<totfact> 0.12759630E+00</totfact>
</mgrwt>
</event>
<event>
 4    1  0.2202466E-008  0.8665996E+03  0.7818608E-02  0.9468324E-01
          2   -1    0    0  501    0  0.00000000000E+00  0.00000000000E+00  0.86171789812E+03  0.86171789813E+03  0.25500000000E-02 0. -1.
         -2   -1    0    0    0  501 -0.00000000000E+00 -0.00000000000E+00 -0.12040410035E+04  0.12040410035E+04  0.25500000000E-02 0.  1.
    8880022    1    1    2    0    0  0.85198852568E+03 -0.41458672757E+02 -0.71396888922E+03  0.11228296831E+04  0.15294330000E+03 0.  1.
    8880022    1    1    2    0    0 -0.85198852568E+03  0.41458672757E+02  0.37164578387E+03  0.94292921851E+03  0.15294330000E+03 0.  0.
<mgrwt>
<rscale>  0 0.86659963E+03</rscale>
<asrwt>0</asrwt>
<pdfrwt beam="1">  1        2 0.13257198E+00 0.86659963E+03</pdfrwt>
<pdfrwt beam="2">  1       -2 0.18523708E+00 0.86659963E+03</pdfrwt>
<totfact> 0.52303488E+00</totfact>
</mgrwt>
</event>
<event>
 4    1  0.2202466E-008  0.4520589E+03  0.7818608E-02  0.1027110E+00
         -2   -1    0    0    0  501 -0.00000000000E+00  0.00000000000E+00  0.31138666231E+03  0.31138666232E+03  0.25500000000E-02 0.  1.
          2   -1    0    0  501    0  0.00000000000E+00 -0.00000000000E+00 -0.16993672589E+04  0.16993672589E+04  0.25500000000E-02 0. -1.
    8880022    1    1    2    0    0 -0.25366617829E+03  0.34149535619E+03 -0.14816621815E+04  0.15490900818E+04  0.15294330000E+03 0. -1.
    8880022    1    1    2    0    0  0.25366617829E+03 -0.34149535619E+03  0.93681584909E+02  0.46166383947E+03  0.15294330000E+03 0.  0.
<mgrwt>
<rscale>  0 0.45205891E+03</rscale>
<asrwt>0</asrwt>
<pdfrwt beam="1">  1        2 0.26144111E+00 0.45205891E+03</pdfrwt>
<pdfrwt beam="2">  1       -2 0.47905641E-01 0.45205891E+03</pdfrwt>
<totfact> 0.43418663E+01</totfact>
</mgrwt>
</event>
<event>
 4    1  0.2202466E-008  0.3841281E+03  0.7818608E-02  0.1049418E+00
          2   -1    0    0  501    0  0.00000000000E+00  0.00000000000E+00  0.10618914411E+04  0.10618914411E+04  0.25500000000E-02 0. -1.
         -2   -1    0    0    0  501 -0.00000000000E+00 -0.00000000000E+00 -0.50587933498E+03  0.50587933499E+03  0.25500000000E-02 0.  1.
    8880022    1    1    2    0    0  0.19960091440E+03 -0.29038292783E+03  0.94560823730E+03  0.10206514397E+04  0.15294330000E+03 0.  0.
    8880022    1    1    2    0    0 -0.19960091440E+03  0.29038292783E+03 -0.38959613121E+03  0.54711933641E+03  0.15294330000E+03 0.  1.
<mgrwt>
<rscale>  0 0.38412813E+03</rscale>
<asrwt>0</asrwt>
<pdfrwt beam="1">  1        2 0.16336791E+00 0.38412813E+03</pdfrwt>
<pdfrwt beam="2">  1       -2 0.77827591E-01 0.38412813E+03</pdfrwt>
<totfact> 0.36105929E+01</totfact>
</mgrwt>
</event>
<event>
 4    1  0.2202466E-008  0.1199315E+04  0.7818608E-02  0.9113456E-01
          2   -1    0    0  501    0  0.00000000000E+00  0.00000000000E+00  0.15375907261E+04  0.15375907261E+04  0.25500000000E-02 0. -1.
         -2   -1    0    0    0  501 -0.00000000000E+00 -0.00000000000E+00 -0.12479768160E+04  0.12479768160E+04  0.25500000000E-02 0.  1.
    8880022    1    1    2    0    0 -0.11595270535E+03  0.11838578846E+04  0.84178072249E+03  0.14652477465E+04  0.15294330000E+03 0.  0.
    8880022    1    1    2    0    0  0.11595270535E+03 -0.11838578846E+04 -0.55216681240E+03  0.13203197956E+04  0.15294330000E+03 0.  0.
<mgrwt>
<rscale>  0 0.11993149E+04</rscale>
<asrwt>0</asrwt>
<pdfrwt beam="1">  1        2 0.23655242E+00 0.11993149E+04</pdfrwt>
<pdfrwt beam="2">  1       -2 0.19199643E+00 0.11993149E+04</pdfrwt>
<totfact> 0.17627879E+00</totfact>
</mgrwt>
</event>
<event>
 4    1  0.2202466E-008  0.5919242E+03  0.7818608E-02  0.9922304E-01
          2   -1    0    0  501    0  0.00000000000E+00  0.00000000000E+00  0.26399035203E+04  0.26399035203E+04  0.25500000000E-02 0. -1.
         -2   -1    0    0    0  501 -0.00000000000E+00 -0.00000000000E+00 -0.23010096649E+03  0.23010096651E+03  0.25500000000E-02 0.  1.
    8880022    1    1    2    0    0 -0.24634564868E+03 -0.51603913689E+03  0.27137802688E+03  0.65116837754E+03  0.15294330000E+03 0.  0.
    8880022    1    1    2    0    0  0.24634564868E+03  0.51603913689E+03  0.21384245270E+04  0.22188361093E+04  0.15294330000E+03 0.  0.
<mgrwt>
<rscale>  0 0.59192417E+03</rscale>
<asrwt>0</asrwt>
<pdfrwt beam="1">  1        2 0.40613900E+00 0.59192417E+03</pdfrwt>
<pdfrwt beam="2">  1       -2 0.35400149E-01 0.59192417E+03</pdfrwt>
<totfact> 0.23286009E+01</totfact>
</mgrwt>
</event>
<event>
 4    1  0.2202466E-008  0.2822887E+03  0.7818608E-02  0.1094445E+00
          2   -1    0    0  501    0  0.00000000000E+00  0.00000000000E+00  0.14248492488E+03  0.14248492490E+03  0.25500000000E-02 0. -1.
         -2   -1    0    0    0  501 -0.00000000000E+00 -0.00000000000E+00 -0.63981619622E+03  0.63981619623E+03  0.25500000000E-02 0.  1.
    8880022    1    1    2    0    0  0.20008641836E+03 -0.12751740257E+03 -0.10987801029E+03  0.30291928451E+03  0.15294330000E+03 0.  0.
    8880022    1    1    2    0    0 -0.20008641836E+03  0.12751740257E+03 -0.38745326105E+03  0.47938183662E+03  0.15294330000E+03 0.  0.
<mgrwt>
<rscale>  0 0.28228871E+03</rscale>
<asrwt>0</asrwt>
<pdfrwt beam="1">  1        2 0.21920758E-01 0.28228871E+03</pdfrwt>
<pdfrwt beam="2">  1       -2 0.98433259E-01 0.28228871E+03</pdfrwt>
<totfact> 0.22317431E+02</totfact>
</mgrwt>
</event>
<event>
 4    1  0.2202466E-008  0.4234415E+03  0.7818608E-02  0.1035952E+00
         -2   -1    0    0    0  501 -0.00000000000E+00  0.00000000000E+00  0.75199223542E+03  0.75199223542E+03  0.25500000000E-02 0.  1.
          2   -1    0    0  501    0  0.00000000000E+00 -0.00000000000E+00 -0.13277420296E+04  0.13277420296E+04  0.25500000000E-02 0. -1.
    8880022    1    1    2    0    0 -0.27072094696E+03 -0.28743910766E+03  0.65400551929E+03  0.77911869700E+03  0.15294330000E+03 0.  0.
    8880022    1    1    2    0    0  0.27072094696E+03  0.28743910766E+03 -0.12297553135E+04  0.13006155680E+04  0.15294330000E+03 0.  0.
<mgrwt>
<rscale>  0 0.42344152E+03</rscale>
<asrwt>0</asrwt>
<pdfrwt beam="1">  1        2 0.20426800E+00 0.42344152E+03</pdfrwt>
<pdfrwt beam="2">  1       -2 0.11569111E+00 0.42344152E+03</pdfrwt>
<totfact> 0.10010222E+01</totfact>
</mgrwt>
</event>
<event>
 4    1  0.2202466E-008  0.7284892E+03  0.7818608E-02  0.9669715E-01
         -2   -1    0    0    0  501 -0.00000000000E+00  0.00000000000E+00  0.80870430902E+03  0.80870430902E+03  0.25500000000E-02 0.  1.
          2   -1    0    0  501    0  0.00000000000E+00 -0.00000000000E+00 -0.86087290108E+03  0.86087290109E+03  0.25500000000E-02 0. -1.
    8880022    1    1    2    0    0 -0.70207158516E+03 -0.12000129682E+03  0.38092539510E+03  0.82207094072E+03  0.15294330000E+03 0.  0.
    8880022    1    1    2    0    0  0.70207158516E+03  0.12000129682E+03 -0.43309398717E+03  0.84750626939E+03  0.15294330000E+03 0.  0.
<mgrwt>
<rscale>  0 0.72848917E+03</rscale>
<asrwt>0</asrwt>
<pdfrwt beam="1">  1        2 0.13244198E+00 0.72848917E+03</pdfrwt>
<pdfrwt beam="2">  1       -2 0.12441605E+00 0.72848917E+03</pdfrwt>
<totfact> 0.15401068E+01</totfact>
</mgrwt>
</event>
<event>
 4    1  0.2202466E-008  0.1768374E+04  0.7818608E-02  0.8723301E-01
          2   -1    0    0  501    0  0.00000000000E+00  0.00000000000E+00  0.41139840965E+04  0.41139840965E+04  0.25500000000E-02 0. -1.
         -2   -1    0    0    0  501 -0.00000000000E+00 -0.00000000000E+00 -0.15444365740E+04  0.15444365740E+04  0.25500000000E-02 0.  1.
    8880022    1    1    2    0    0 -0.20095036858E+03 -0.17502494531E+04 -0.73138283327E+03  0.19136527116E+04  0.15294330000E+03 0.  0.
    8880022    1    1    2    0    0  0.20095036858E+03  0.17502494531E+04  0.33009303558E+04  0.37447679588E+04  0.15294330000E+03 0.  0.
<mgrwt>
<rscale>  0 0.17683738E+04</rscale>
<asrwt>0</asrwt>
<pdfrwt beam="1">  1        2 0.63292062E+00 0.17683738E+04</pdfrwt>
<pdfrwt beam="2">  1       -2 0.23760563E+00 0.17683738E+04</pdfrwt>
<totfact> 0.19404181E-02</totfact>
</mgrwt>
</event>
<event>
 4    1  0.2202466E-008  0.7312955E+03  0.7818608E-02  0.9665160E-01
         -2   -1    0    0    0  501 -0.00000000000E+00  0.00000000000E+00  0.51681785128E+03  0.51681785128E+03  0.25500000000E-02 0.  1.
          2   -1    0    0  501    0  0.00000000000E+00 -0.00000000000E+00 -0.20367862699E+04  0.20367862699E+04  0.25500000000E-02 0. -1.
    8880022    1    1    2    0    0 -0.56133994465E+03  0.44305637074E+03  0.13555770066E+03  0.74375333568E+03  0.15294330000E+03 0.  0.
    8880022    1    1    2    0    0  0.56133994465E+03 -0.44305637074E+03 -0.16555261192E+04  0.18098507855E+04  0.15294330000E+03 0.  0.
<mgrwt>
<rscale>  0 0.73129552E+03</rscale>
<asrwt>0</asrwt>
<pdfrwt beam="1">  1        2 0.31335173E+00 0.73129552E+03</pdfrwt>
<pdfrwt beam="2">  1       -2 0.79510440E-01 0.73129552E+03</pdfrwt>
<totfact> 0.92842141E+00</totfact>
</mgrwt>
</event>
<event>
 4    1  0.2202466E-008  0.4657611E+03  0.7818608E-02  0.1023123E+00
         -2   -1    0    0    0  501 -0.00000000000E+00  0.00000000000E+00  0.52407036282E+03  0.52407036282E+03  0.25500000000E-02 0.  1.
          2   -1    0    0  501    0  0.00000000000E+00 -0.00000000000E+00 -0.10761917078E+04  0.10761917078E+04  0.25500000000E-02 0. -1.
    8880022    1    1    2    0    0 -0.13517002419E+03  0.41865357582E+03 -0.90372582065E+03  0.10166876432E+04  0.15294330000E+03 0.  0.
    8880022    1    1    2    0    0  0.13517002419E+03 -0.41865357582E+03  0.35160447566E+03  0.58357442739E+03  0.15294330000E+03 0.  0.
<mgrwt>
<rscale>  0 0.46576110E+03</rscale>
<asrwt>0</asrwt>
<pdfrwt beam="1">  1        2 0.16556795E+00 0.46576110E+03</pdfrwt>
<pdfrwt beam="2">  1       -2 0.80626210E-01 0.46576110E+03</pdfrwt>
<totfact> 0.32256758E+01</totfact>
</mgrwt>
</event>
<event>
 4    1  0.2202466E-008  0.1434190E+04  0.7818608E-02  0.8929435E-01
         -2   -1    0    0    0  501 -0.00000000000E+00  0.00000000000E+00  0.20709385317E+04  0.20709385317E+04  0.25500000000E-02 0.  1.
          2   -1    0    0  501    0  0.00000000000E+00 -0.00000000000E+00 -0.15268740486E+04  0.15268740486E+04  0.25500000000E-02 0. -1.
    8880022    1    1    2    0    0 -0.12223540839E+04 -0.73441122083E+03 -0.79146449961E+03  0.16380833479E+04  0.15294330000E+03 0.  0.
    8880022    1    1    2    0    0  0.12223540839E+04  0.73441122083E+03  0.13355289827E+04  0.19597292324E+04  0.15294330000E+03 0.  0.
<mgrwt>
<rscale>  0 0.14341900E+04</rscale>
<asrwt>0</asrwt>
<pdfrwt beam="1">  1        2 0.23490370E+00 0.14341900E+04</pdfrwt>
<pdfrwt beam="2">  1       -2 0.31860593E+00 0.14341900E+04</pdfrwt>
<totfact> 0.28390787E-01</totfact>
</mgrwt>
</event>
<event>
 4    1  0.2202466E-008  0.1176551E+04  0.7818608E-02  0.9133632E-01
          2   -1    0    0  501    0  0.00000000000E+00  0.00000000000E+00  0.20856464028E+04  0.20856464028E+04  0.25500000000E-02 0. -1.
         -2   -1    0    0    0  501 -0.00000000000E+00 -0.00000000000E+00 -0.86327799973E+03  0.86327799974E+03  0.25500000000E-02 0.  1.
    8880022    1    1    2    0    0  0.10802099270E+03 -0.11615560562E+04 -0.97739402397E+02  0.11806039346E+04  0.15294330000E+03 0.  0.
    8880022    1    1    2    0    0 -0.10802099270E+03  0.11615560562E+04  0.13201078055E+04  0.17683204680E+04  0.15294330000E+03 0.  0.
<mgrwt>
<rscale>  0 0.11765512E+04</rscale>
<asrwt>0</asrwt>
<pdfrwt beam="1">  1        2 0.32086867E+00 0.11765512E+04</pdfrwt>
<pdfrwt beam="2">  1       -2 0.13281200E+00 0.11765512E+04</pdfrwt>
<totfact> 0.24077935E+00</totfact>
</mgrwt>
</event>
<event>
 4    1  0.2202466E-008  0.2625102E+03  0.7818608E-02  0.1105644E+00
          2   -1    0    0  501    0  0.00000000000E+00  0.00000000000E+00  0.17552052180E+04  0.17552052180E+04  0.25500000000E-02 0. -1.
         -2   -1    0    0    0  501 -0.00000000000E+00 -0.00000000000E+00 -0.35677594772E+03  0.35677594773E+03  0.25500000000E-02 0.  1.
    8880022    1    1    2    0    0 -0.11936968323E+03 -0.17683560065E+03 -0.29697990491E+03  0.39636935788E+03  0.15294330000E+03 0.  0.
    8880022    1    1    2    0    0  0.11936968323E+03  0.17683560065E+03  0.16954091752E+04  0.17156118078E+04  0.15294330000E+03 0. -1.
<mgrwt>
<rscale>  0 0.26251020E+03</rscale>
<asrwt>0</asrwt>
<pdfrwt beam="1">  1        2 0.27003158E+00 0.26251020E+03</pdfrwt>
<pdfrwt beam="2">  1       -2 0.54888607E-01 0.26251020E+03</pdfrwt>
<totfact> 0.32363203E+01</totfact>
</mgrwt>
</event>
<event>
 4    1  0.2202466E-008  0.6117314E+03  0.7818608E-02  0.9881362E-01
          2   -1    0    0  501    0  0.00000000000E+00  0.00000000000E+00  0.15433643494E+04  0.15433643494E+04  0.25500000000E-02 0. -1.
         -2   -1    0    0    0  501 -0.00000000000E+00 -0.00000000000E+00 -0.67248910353E+03  0.67248910353E+03  0.25500000000E-02 0.  1.
    8880022    1    1    2    0    0 -0.32697825004E+03  0.49387126907E+03 -0.45052151702E+03  0.75972685665E+03  0.15294330000E+03 0.  0.
    8880022    1    1    2    0    0  0.32697825004E+03 -0.49387126907E+03  0.13213967629E+04  0.14561265963E+04  0.15294330000E+03 0.  0.
<mgrwt>
<rscale>  0 0.61173136E+03</rscale>
<asrwt>0</asrwt>
<pdfrwt beam="1">  1        2 0.23744067E+00 0.61173136E+03</pdfrwt>
<pdfrwt beam="2">  1       -2 0.10345986E+00 0.61173136E+03</pdfrwt>
<totfact> 0.95732107E+00</totfact>
</mgrwt>
</event>
<event>
 4    1  0.2202466E-008  0.8996905E+03  0.7818608E-02  0.9425968E-01
         -2   -1    0    0    0  501 -0.00000000000E+00  0.00000000000E+00  0.88631333814E+03  0.88631333814E+03  0.25500000000E-02 0.  1.
          2   -1    0    0  501    0  0.00000000000E+00 -0.00000000000E+00 -0.10469994294E+04  0.10469994294E+04  0.25500000000E-02 0. -1.
    8880022    1    1    2    0    0 -0.32309515727E+03 -0.82562755794E+03 -0.42581524152E+03  0.99537009098E+03  0.15294330000E+03 0.  0.
    8880022    1    1    2    0    0  0.32309515727E+03  0.82562755794E+03  0.26512915031E+03  0.93794267652E+03  0.15294330000E+03 0.  0.
<mgrwt>
<rscale>  0 0.89969050E+03</rscale>
<asrwt>0</asrwt>
<pdfrwt beam="1">  1        2 0.16107684E+00 0.89969050E+03</pdfrwt>
<pdfrwt beam="2">  1       -2 0.13635590E+00 0.89969050E+03</pdfrwt>
<totfact> 0.90527904E+00</totfact>
</mgrwt>
</event>
<event>
 4    1  0.2202466E-008  0.1643913E+04  0.7818608E-02  0.8794015E-01
         -2   -1    0    0    0  501 -0.00000000000E+00  0.00000000000E+00  0.13629317243E+04  0.13629317243E+04  0.25500000000E-02 0.  1.
          2   -1    0    0  501    0  0.00000000000E+00 -0.00000000000E+00 -0.40158270995E+04  0.40158270995E+04  0.25500000000E-02 0. -1.
    8880022    1    1    2    0    0  0.53352337436E+03  0.15473887407E+04 -0.32399713028E+04  0.36331618188E+04  0.15294330000E+03 0.  0.
    8880022    1    1    2    0    0 -0.53352337436E+03 -0.15473887407E+04  0.58707592769E+03  0.17455970050E+04  0.15294330000E+03 0.  0.
<mgrwt>
<rscale>  0 0.16439132E+04</rscale>
<asrwt>0</asrwt>
<pdfrwt beam="1">  1        2 0.61781955E+00 0.16439132E+04</pdfrwt>
<pdfrwt beam="2">  1       -2 0.20968181E+00 0.16439132E+04</pdfrwt>
<totfact> 0.35758171E-02</totfact>
</mgrwt>
</event>
<event>
 4    1  0.2202466E-008  0.1342531E+04  0.7818608E-02  0.8996501E-01
          2   -1    0    0  501    0  0.00000000000E+00  0.00000000000E+00  0.13141348107E+04  0.13141348107E+04  0.25500000000E-02 0. -1.
         -2   -1    0    0    0  501 -0.00000000000E+00 -0.00000000000E+00 -0.15402637919E+04  0.15402637919E+04  0.25500000000E-02 0.  1.
    8880022    1    1    2    0    0  0.11011348159E+04  0.75266257935E+03 -0.58542462871E+03  0.14646202546E+04  0.15294330000E+03 0.  0.
    8880022    1    1    2    0    0 -0.11011348159E+04 -0.75266257935E+03  0.35929564750E+03  0.13897783480E+04  0.15294330000E+03 0.  0.
<mgrwt>
<rscale>  0 0.13425314E+04</rscale>
<asrwt>0</asrwt>
<pdfrwt beam="1">  1        2 0.20217459E+00 0.13425314E+04</pdfrwt>
<pdfrwt beam="2">  1       -2 0.23696366E+00 0.13425314E+04</pdfrwt>
<totfact> 0.12006992E+00</totfact>
</mgrwt>
</event>
<event>
 4    1  0.2202466E-008  0.7694367E+03  0.7818608E-02  0.9605341E-01
         -2   -1    0    0    0  501 -0.00000000000E+00  0.00000000000E+00  0.86460092920E+03  0.86460092921E+03  0.25500000000E-02 0.  1.
          2   -1    0    0  501    0  0.00000000000E+00 -0.00000000000E+00 -0.17268252604E+04  0.17268252604E+04  0.25500000000E-02 0. -1.
    8880022    1    1    2    0    0  0.66930893646E+03 -0.34737116030E+03  0.57543663282E+03  0.96081223287E+03  0.15294330000E+03 0.  0.
    8880022    1    1    2    0    0 -0.66930893646E+03  0.34737116030E+03 -0.14376609640E+04  0.16306139567E+04  0.15294330000E+03 0.  0.
<mgrwt>
<rscale>  0 0.76943670E+03</rscale>
<asrwt>0</asrwt>
<pdfrwt beam="1">  1        2 0.26566542E+00 0.76943670E+03</pdfrwt>
<pdfrwt beam="2">  1       -2 0.13301553E+00 0.76943670E+03</pdfrwt>
<totfact> 0.39878184E+00</totfact>
</mgrwt>
</event>
<event>
 4    1  0.2202466E-008  0.1256522E+04  0.7818608E-02  0.9064772E-01
          2   -1    0    0  501    0  0.00000000000E+00  0.00000000000E+00  0.13918999828E+04  0.13918999828E+04  0.25500000000E-02 0. -1.
         -2   -1    0    0    0  501 -0.00000000000E+00 -0.00000000000E+00 -0.14618575077E+04  0.14618575077E+04  0.25500000000E-02 0.  1.
    8880022    1    1    2    0    0 -0.12253647732E+03 -0.12411449208E+04  0.64043668518E+03  0.14103214894E+04  0.15294330000E+03 0.  0.
    8880022    1    1    2    0    0  0.12253647732E+03  0.12411449208E+04 -0.71039421003E+03  0.14434360011E+04  0.15294330000E+03 0.  0.
<mgrwt>
<rscale>  0 0.12565220E+04</rscale>
<asrwt>0</asrwt>
<pdfrwt beam="1">  1        2 0.21413846E+00 0.12565220E+04</pdfrwt>
<pdfrwt beam="2">  1       -2 0.22490115E+00 0.12565220E+04</pdfrwt>
<totfact> 0.12985600E+00</totfact>
</mgrwt>
</event>
<event>
 4    1  0.2202466E-008  0.6495238E+03  0.7818608E-02  0.9807673E-01
          2   -1    0    0  501    0  0.00000000000E+00  0.00000000000E+00  0.81089728262E+03  0.81089728263E+03  0.25500000000E-02 0. -1.
         -2   -1    0    0    0  501 -0.00000000000E+00 -0.00000000000E+00 -0.11583594244E+04  0.11583594244E+04  0.25500000000E-02 0.  1.
    8880022    1    1    2    0    0  0.34934334911E+03 -0.52578397328E+03 -0.90452217699E+03  0.11135715441E+04  0.15294330000E+03 0.  0.
    8880022    1    1    2    0    0 -0.34934334911E+03  0.52578397328E+03  0.55706003525E+03  0.85568516290E+03  0.15294330000E+03 0.  0.
<mgrwt>
<rscale>  0 0.64952384E+03</rscale>
<asrwt>0</asrwt>
<pdfrwt beam="1">  1        2 0.12475343E+00 0.64952384E+03</pdfrwt>
<pdfrwt beam="2">  1       -2 0.17820914E+00 0.64952384E+03</pdfrwt>
<totfact> 0.65196030E+00</totfact>
</mgrwt>
</event>
<event>
 4    1  0.2202466E-008  0.4185454E+03  0.7818608E-02  0.1037541E+00
         -2   -1    0    0    0  501 -0.00000000000E+00  0.00000000000E+00  0.39114409012E+03  0.39114409013E+03  0.25500000000E-02 0.  1.
          2   -1    0    0  501    0  0.00000000000E+00 -0.00000000000E+00 -0.95221999186E+03  0.95221999187E+03  0.25500000000E-02 0. -1.
    8880022    1    1    2    0    0  0.38951656188E+03  0.80876537976E+01 -0.76937344969E+03  0.87585142589E+03  0.15294330000E+03 0.  0.
    8880022    1    1    2    0    0 -0.38951656188E+03 -0.80876537976E+01  0.20829754795E+03  0.46751265611E+03  0.15294330000E+03 0.  0.
<mgrwt>
<rscale>  0 0.41854536E+03</rscale>
<asrwt>0</asrwt>
<pdfrwt beam="1">  1        2 0.14649538E+00 0.41854536E+03</pdfrwt>
<pdfrwt beam="2">  1       -2 0.60176014E-01 0.41854536E+03</pdfrwt>
<totfact> 0.73094265E+01</totfact>
</mgrwt>
</event>
<event>
 4    1  0.2202466E-008  0.1414127E+04  0.7818608E-02  0.8943656E-01
         -2   -1    0    0    0  501 -0.00000000000E+00  0.00000000000E+00  0.18933631305E+04  0.18933631305E+04  0.25500000000E-02 0.  1.
          2   -1    0    0  501    0  0.00000000000E+00 -0.00000000000E+00 -0.13980549656E+04  0.13980549656E+04  0.25500000000E-02 0. -1.
    8880022    1    1    2    0    0  0.10752711145E+04  0.90562403577E+03 -0.56614485935E+03  0.15232447337E+04  0.15294330000E+03 0.  0.
    8880022    1    1    2    0    0 -0.10752711145E+04 -0.90562403577E+03  0.10614530243E+04  0.17681733624E+04  0.15294330000E+03 0.  0.
<mgrwt>
<rscale>  0 0.14141268E+04</rscale>
<asrwt>0</asrwt>
<pdfrwt beam="1">  1        2 0.21508538E+00 0.14141268E+04</pdfrwt>
<pdfrwt beam="2">  1       -2 0.29128664E+00 0.14141268E+04</pdfrwt>
<totfact> 0.49548469E-01</totfact>
</mgrwt>
</event>
<event>
 4    1  0.2202466E-008  0.9335568E+03  0.7818608E-02  0.9384579E-01
         -2   -1    0    0    0  501 -0.00000000000E+00  0.00000000000E+00  0.10446155060E+04  0.10446155060E+04  0.25500000000E-02 0.  1.
          2   -1    0    0  501    0  0.00000000000E+00 -0.00000000000E+00 -0.94113572414E+03  0.94113572414E+03  0.25500000000E-02 0. -1.
    8880022    1    1    2    0    0  0.32874186394E+03 -0.86027058823E+03 -0.28277542035E+03  0.97544363725E+03  0.15294330000E+03 0.  0.
    8880022    1    1    2    0    0 -0.32874186394E+03  0.86027058823E+03  0.38625520225E+03  0.10103075929E+04  0.15294330000E+03 0.  0.
<mgrwt>
<rscale>  0 0.93355683E+03</rscale>
<asrwt>0</asrwt>
<pdfrwt beam="1">  1        2 0.14479011E+00 0.93355683E+03</pdfrwt>
<pdfrwt beam="2">  1       -2 0.16071008E+00 0.93355683E+03</pdfrwt>
<totfact> 0.68328562E+00</totfact>
</mgrwt>
</event>
<event>
 4    1  0.2202466E-008  0.5612050E+03  0.7818608E-02  0.9989332E-01
          2   -1    0    0  501    0  0.00000000000E+00  0.00000000000E+00  0.88059835763E+03  0.88059835763E+03  0.25500000000E-02 0. -1.
         -2   -1    0    0    0  501 -0.00000000000E+00 -0.00000000000E+00 -0.41116383652E+03  0.41116383652E+03  0.25500000000E-02 0.  1.
    8880022    1    1    2    0    0  0.42794126478E+03 -0.32928059147E+03  0.17178979282E+01  0.56120766050E+03  0.15294330000E+03 0.  0.
    8880022    1    1    2    0    0 -0.42794126478E+03  0.32928059147E+03  0.46771662318E+03  0.73055453365E+03  0.15294330000E+03 0.  0.
<mgrwt>
<rscale>  0 0.56120503E+03</rscale>
<asrwt>0</asrwt>
<pdfrwt beam="1">  1        2 0.13547667E+00 0.56120503E+03</pdfrwt>
<pdfrwt beam="2">  1       -2 0.63255976E-01 0.56120503E+03</pdfrwt>
<totfact> 0.72091180E+01</totfact>
</mgrwt>
</event>
<event>
 4    1  0.2202466E-008  0.3095114E+03  0.7818608E-02  0.1080580E+00
         -2   -1    0    0    0  501 -0.00000000000E+00  0.00000000000E+00  0.69180587687E+03  0.69180587687E+03  0.25500000000E-02 0.  1.
          2   -1    0    0  501    0  0.00000000000E+00 -0.00000000000E+00 -0.13499468332E+04  0.13499468332E+04  0.25500000000E-02 0. -1.
    8880022    1    1    2    0    0  0.12065822140E+03 -0.24051454539E+03 -0.12961709748E+04  0.13326126601E+04  0.15294330000E+03 0.  0.
    8880022    1    1    2    0    0 -0.12065822140E+03  0.24051454539E+03  0.63803001849E+03  0.70914004995E+03  0.15294330000E+03 0.  1.
<mgrwt>
<rscale>  0 0.30951140E+03</rscale>
<asrwt>0</asrwt>
<pdfrwt beam="1">  1        2 0.20768413E+00 0.30951140E+03</pdfrwt>
<pdfrwt beam="2">  1       -2 0.10643167E+00 0.30951140E+03</pdfrwt>
<totfact> 0.12260298E+01</totfact>
</mgrwt>
</event>
<event>
 4    1  0.2202466E-008  0.2056648E+04  0.7818608E-02  0.8580585E-01
         -2   -1    0    0    0  501 -0.00000000000E+00  0.00000000000E+00  0.13343839566E+04  0.13343839566E+04  0.25500000000E-02 0.  1.
          2   -1    0    0  501    0  0.00000000000E+00 -0.00000000000E+00 -0.34627196282E+04  0.34627196282E+04  0.25500000000E-02 0. -1.
    8880022    1    1    2    0    0  0.19336765742E+04 -0.68359544935E+03 -0.17617192365E+04  0.27080351093E+04  0.15294330000E+03 0.  0.
    8880022    1    1    2    0    0 -0.19336765742E+04  0.68359544935E+03 -0.36661643502E+03  0.20890684755E+04  0.15294330000E+03 0.  0.
<mgrwt>
<rscale>  0 0.20566476E+04</rscale>
<asrwt>0</asrwt>
<pdfrwt beam="1">  1        2 0.53272609E+00 0.20566476E+04</pdfrwt>
<pdfrwt beam="2">  1       -2 0.20528984E+00 0.20566476E+04</pdfrwt>
<totfact> 0.94168313E-02</totfact>
</mgrwt>
</event>
<event>
 4    1  0.2202466E-008  0.1721712E+04  0.7818608E-02  0.8749077E-01
          2   -1    0    0  501    0  0.00000000000E+00  0.00000000000E+00  0.20459610146E+04  0.20459610146E+04  0.25500000000E-02 0. -1.
         -2   -1    0    0    0  501 -0.00000000000E+00 -0.00000000000E+00 -0.15387130749E+04  0.15387130749E+04  0.25500000000E-02 0.  1.
    8880022    1    1    2    0    0 -0.53935910599E+03  0.16278793613E+04  0.68676657999E+03  0.18536287246E+04  0.15294330000E+03 0.  0.
    8880022    1    1    2    0    0  0.53935910599E+03 -0.16278793613E+04 -0.17951864029E+03  0.17310453649E+04  0.15294330000E+03 0.  0.
<mgrwt>
<rscale>  0 0.17217117E+04</rscale>
<asrwt>0</asrwt>
<pdfrwt beam="1">  1        2 0.31476323E+00 0.17217117E+04</pdfrwt>
<pdfrwt beam="2">  1       -2 0.23672509E+00 0.17217117E+04</pdfrwt>
<totfact> 0.44838367E-01</totfact>
</mgrwt>
</event>
<event>
 4    1  0.2202466E-008  0.9055873E+03  0.7818608E-02  0.9418624E-01
          2   -1    0    0  501    0  0.00000000000E+00  0.00000000000E+00  0.88967252902E+03  0.88967252903E+03  0.25500000000E-02 0. -1.
         -2   -1    0    0    0  501 -0.00000000000E+00 -0.00000000000E+00 -0.14194644364E+04  0.14194644364E+04  0.25500000000E-02 0.  1.
    8880022    1    1    2    0    0 -0.87596306109E+03  0.17142156583E+03 -0.94854238850E+03  0.13114194422E+04  0.15294330000E+03 0.  0.
    8880022    1    1    2    0    0  0.87596306109E+03 -0.17142156583E+03  0.41875048114E+03  0.99771752320E+03  0.15294330000E+03 0.  0.
<mgrwt>
<rscale>  0 0.90558726E+03</rscale>
<asrwt>0</asrwt>
<pdfrwt beam="1">  1        2 0.13687270E+00 0.90558726E+03</pdfrwt>
<pdfrwt beam="2">  1       -2 0.21837914E+00 0.90558726E+03</pdfrwt>
<totfact> 0.30301456E+00</totfact>
</mgrwt>
</event>
<event>
 4    1  0.2202466E-008  0.7897707E+03  0.7818608E-02  0.9574943E-01
          2   -1    0    0  501    0  0.00000000000E+00  0.00000000000E+00  0.11463499864E+04  0.11463499864E+04  0.25500000000E-02 0. -1.
         -2   -1    0    0    0  501 -0.00000000000E+00 -0.00000000000E+00 -0.12048099577E+04  0.12048099577E+04  0.25500000000E-02 0.  1.
    8880022    1    1    2    0    0  0.76812319456E+03 -0.10165090636E+03  0.84132421399E+03  0.11539342420E+04  0.15294330000E+03 0.  0.
    8880022    1    1    2    0    0 -0.76812319456E+03  0.10165090636E+03 -0.89978418525E+03  0.11972257021E+04  0.15294330000E+03 0.  0.
<mgrwt>
<rscale>  0 0.78977073E+03</rscale>
<asrwt>0</asrwt>
<pdfrwt beam="1">  1        2 0.17636154E+00 0.78977073E+03</pdfrwt>
<pdfrwt beam="2">  1       -2 0.18535538E+00 0.78977073E+03</pdfrwt>
<totfact> 0.34618690E+00</totfact>
</mgrwt>
</event>
<event>
 4    1  0.2202466E-008  0.9526280E+03  0.7818608E-02  0.9362084E-01
          2   -1    0    0  501    0  0.00000000000E+00  0.00000000000E+00  0.27294497462E+04  0.27294497462E+04  0.25500000000E-02 0. -1.
         -2   -1    0    0    0  501 -0.00000000000E+00 -0.00000000000E+00 -0.38735181029E+03  0.38735181030E+03  0.25500000000E-02 0.  1.
    8880022    1    1    2    0    0 -0.78912417886E+03  0.51126456559E+03  0.17575687941E+04  0.19991368499E+04  0.15294330000E+03 0.  0.
    8880022    1    1    2    0    0  0.78912417886E+03 -0.51126456559E+03  0.58452914178E+03  0.11176647066E+04  0.15294330000E+03 0.  0.
<mgrwt>
<rscale>  0 0.95262799E+03</rscale>
<asrwt>0</asrwt>
<pdfrwt beam="1">  1        2 0.41991535E+00 0.95262799E+03</pdfrwt>
<pdfrwt beam="2">  1       -2 0.59592585E-01 0.95262799E+03</pdfrwt>
<totfact> 0.68549091E+00</totfact>
</mgrwt>
</event>
<event>
 4    1  0.2202466E-008  0.1491566E+04  0.7818608E-02  0.8890081E-01
          2   -1    0    0  501    0  0.00000000000E+00  0.00000000000E+00  0.11858048808E+04  0.11858048808E+04  0.25500000000E-02 0. -1.
         -2   -1    0    0    0  501 -0.00000000000E+00 -0.00000000000E+00 -0.23809030452E+04  0.23809030452E+04  0.25500000000E-02 0.  1.
    8880022    1    1    2    0    0 -0.14517310059E+04  0.30635537480E+03  0.22355608476E+03  0.15082259463E+04  0.15294330000E+03 0.  0.
    8880022    1    1    2    0    0  0.14517310059E+04 -0.30635537480E+03 -0.14186542492E+04  0.20584819797E+04  0.15294330000E+03 0.  0.
<mgrwt>
<rscale>  0 0.14915657E+04</rscale>
<asrwt>0</asrwt>
<pdfrwt beam="1">  1        2 0.18243152E+00 0.14915657E+04</pdfrwt>
<pdfrwt beam="2">  1       -2 0.36629278E+00 0.14915657E+04</pdfrwt>
<totfact> 0.22435802E-01</totfact>
</mgrwt>
</event>
<event>
 4    1  0.2202466E-008  0.9063322E+03  0.7818608E-02  0.9417700E-01
          2   -1    0    0  501    0  0.00000000000E+00  0.00000000000E+00  0.11056245979E+04  0.11056245979E+04  0.25500000000E-02 0. -1.
         -2   -1    0    0    0  501 -0.00000000000E+00 -0.00000000000E+00 -0.13830119961E+04  0.13830119961E+04  0.25500000000E-02 0.  1.
    8880022    1    1    2    0    0 -0.40322795550E+03  0.79715349604E+03  0.70780273835E+03  0.11499664559E+04  0.15294330000E+03 0.  0.
    8880022    1    1    2    0    0  0.40322795550E+03 -0.79715349604E+03 -0.98519013651E+03  0.13386701380E+04  0.15294330000E+03 0.  0.
<mgrwt>
<rscale>  0 0.90633224E+03</rscale>
<asrwt>0</asrwt>
<pdfrwt beam="1">  1        2 0.17009609E+00 0.90633224E+03</pdfrwt>
<pdfrwt beam="2">  1       -2 0.21277107E+00 0.90633224E+03</pdfrwt>
<totfact> 0.23865332E+00</totfact>
</mgrwt>
</event>
<event>
 4    1  0.2202466E-008  0.1691341E+03  0.7818608E-02  0.1178754E+00
         -2   -1    0    0    0  501 -0.00000000000E+00  0.00000000000E+00  0.47188738284E+02  0.47188738353E+02  0.25500000000E-02 0.  1.
          2   -1    0    0  501    0  0.00000000000E+00 -0.00000000000E+00 -0.28215977785E+04  0.28215977785E+04  0.25500000000E-02 0. -1.
    8880022    1    1    2    0    0 -0.53290466886E+02  0.48732040054E+02 -0.26582042246E+04  0.26635795536E+04  0.15294330000E+03 0. -1.
    8880022    1    1    2    0    0  0.53290466886E+02 -0.48732040054E+02 -0.11620481563E+03  0.20520696328E+03  0.15294330000E+03 0.  0.
<mgrwt>
<rscale>  0 0.16913408E+03</rscale>
<asrwt>0</asrwt>
<pdfrwt beam="1">  1        2 0.43409183E+00 0.16913408E+03</pdfrwt>
<pdfrwt beam="2">  1       -2 0.72598081E-02 0.16913408E+03</pdfrwt>
<totfact> 0.30216182E+02</totfact>
</mgrwt>
</event>
<event>
 4    1  0.2202466E-008  0.7423436E+03  0.7818608E-02  0.9647439E-01
         -2   -1    0    0    0  501 -0.00000000000E+00  0.00000000000E+00  0.77234729784E+03  0.77234729785E+03  0.25500000000E-02 0.  1.
          2   -1    0    0  501    0  0.00000000000E+00 -0.00000000000E+00 -0.89990589099E+03  0.89990589100E+03  0.25500000000E-02 0. -1.
    8880022    1    1    2    0    0  0.36720499219E+03  0.62677175537E+03 -0.44431637370E+03  0.86515376239E+03  0.15294330000E+03 0.  0.
    8880022    1    1    2    0    0 -0.36720499219E+03 -0.62677175537E+03  0.31675778055E+03  0.80709942645E+03  0.15294330000E+03 0.  0.
<mgrwt>
<rscale>  0 0.74234358E+03</rscale>
<asrwt>0</asrwt>
<pdfrwt beam="1">  1        2 0.13844706E+00 0.74234358E+03</pdfrwt>
<pdfrwt beam="2">  1       -2 0.11882266E+00 0.74234358E+03</pdfrwt>
<totfact> 0.16221804E+01</totfact>
</mgrwt>
</event>
<event>
 4    1  0.2202466E-008  0.1378502E+04  0.7818608E-02  0.8969529E-01
          2   -1    0    0  501    0  0.00000000000E+00  0.00000000000E+00  0.36903857317E+04  0.36903857317E+04  0.25500000000E-02 0. -1.
         -2   -1    0    0    0  501 -0.00000000000E+00 -0.00000000000E+00 -0.68394648587E+03  0.68394648587E+03  0.25500000000E-02 0.  1.
    8880022    1    1    2    0    0 -0.25236818634E+02 -0.13697584602E+04  0.25905047161E+04  0.29344473881E+04  0.15294330000E+03 0.  0.
    8880022    1    1    2    0    0  0.25236818634E+02  0.13697584602E+04  0.41593452974E+03  0.14398848295E+04  0.15294330000E+03 0.  0.
<mgrwt>
<rscale>  0 0.13785016E+04</rscale>
<asrwt>0</asrwt>
<pdfrwt beam="1">  1        2 0.56775165E+00 0.13785016E+04</pdfrwt>
<pdfrwt beam="2">  1       -2 0.10522254E+00 0.13785016E+04</pdfrwt>
<totfact> 0.42474561E-01</totfact>
</mgrwt>
</event>
<event>
 4    1  0.2202466E-008  0.1028046E+04  0.7818608E-02  0.9278308E-01
         -2   -1    0    0    0  501 -0.00000000000E+00  0.00000000000E+00  0.68041507128E+03  0.68041507129E+03  0.25500000000E-02 0.  1.
          2   -1    0    0  501    0  0.00000000000E+00 -0.00000000000E+00 -0.43628206325E+04  0.43628206325E+04  0.25500000000E-02 0. -1.
    8880022    1    1    2    0    0 -0.97178179174E+03  0.29854211264E+03  0.18234200695E+03  0.10440917126E+04  0.15294330000E+03 0.  0.
    8880022    1    1    2    0    0  0.97178179174E+03 -0.29854211264E+03 -0.38647475682E+04  0.39991439912E+04  0.15294330000E+03 0.  0.
<mgrwt>
<rscale>  0 0.10280462E+04</rscale>
<asrwt>0</asrwt>
<pdfrwt beam="1">  1        2 0.67120316E+00 0.10280462E+04</pdfrwt>
<pdfrwt beam="2">  1       -2 0.10467924E+00 0.10280462E+04</pdfrwt>
<totfact> 0.13038636E-01</totfact>
</mgrwt>
</event>
<event>
 4    1  0.2202466E-008  0.5742538E+03  0.7818608E-02  0.9960310E-01
          2   -1    0    0  501    0  0.00000000000E+00  0.00000000000E+00  0.20885318214E+04  0.20885318214E+04  0.25500000000E-02 0. -1.
         -2   -1    0    0    0  501 -0.00000000000E+00 -0.00000000000E+00 -0.89011452513E+03  0.89011452514E+03  0.25500000000E-02 0.  1.
    8880022    1    1    2    0    0  0.47009026566E+03 -0.29221723119E+03 -0.75157825709E+03  0.94585268283E+03  0.15294330000E+03 0.  0.
    8880022    1    1    2    0    0 -0.47009026566E+03  0.29221723119E+03  0.19499955534E+04  0.20327936638E+04  0.15294330000E+03 0.  0.
<mgrwt>
<rscale>  0 0.57425380E+03</rscale>
<asrwt>0</asrwt>
<pdfrwt beam="1">  1        2 0.32131259E+00 0.57425380E+03</pdfrwt>
<pdfrwt beam="2">  1       -2 0.13694070E+00 0.57425380E+03</pdfrwt>
<totfact> 0.24466933E+00</totfact>
</mgrwt>
</event>
<event>
 4    1  0.2202466E-008  0.8352624E+03  0.7818608E-02  0.9510334E-01
         -2   -1    0    0    0  501 -0.00000000000E+00  0.00000000000E+00  0.19405961133E+04  0.19405961133E+04  0.25500000000E-02 0.  1.
          2   -1    0    0  501    0  0.00000000000E+00 -0.00000000000E+00 -0.97014984378E+03  0.97014984379E+03  0.25500000000E-02 0. -1.
    8880022    1    1    2    0    0  0.59145060926E+03 -0.56961196217E+03  0.16398656613E+04  0.18403322120E+04  0.15294330000E+03 0.  0.
    8880022    1    1    2    0    0 -0.59145060926E+03  0.56961196217E+03 -0.66941939172E+03  0.10704137451E+04  0.15294330000E+03 0.  0.
<mgrwt>
<rscale>  0 0.83526239E+03</rscale>
<asrwt>0</asrwt>
<pdfrwt beam="1">  1        2 0.14925382E+00 0.83526239E+03</pdfrwt>
<pdfrwt beam="2">  1       -2 0.29855325E+00 0.83526239E+03</pdfrwt>
<totfact> 0.87964001E-01</totfact>
</mgrwt>
</event>
<event>
 4    1  0.2202466E-008  0.3985311E+03  0.7818608E-02  0.1044290E+00
         -2   -1    0    0    0  501 -0.00000000000E+00  0.00000000000E+00  0.41786674144E+03  0.41786674145E+03  0.25500000000E-02 0.  1.
          2   -1    0    0  501    0  0.00000000000E+00 -0.00000000000E+00 -0.17386158761E+04  0.17386158761E+04  0.25500000000E-02 0. -1.
    8880022    1    1    2    0    0 -0.27098059975E+03  0.24900778943E+03 -0.16134956691E+04  0.16619853465E+04  0.15294330000E+03 0.  0.
    8880022    1    1    2    0    0  0.27098059975E+03 -0.24900778943E+03  0.29274653446E+03  0.49449727107E+03  0.15294330000E+03 0.  0.
<mgrwt>
<rscale>  0 0.39853107E+03</rscale>
<asrwt>0</asrwt>
<pdfrwt beam="1">  1        2 0.26747936E+00 0.39853107E+03</pdfrwt>
<pdfrwt beam="2">  1       -2 0.64287192E-01 0.39853107E+03</pdfrwt>
<totfact> 0.22824690E+01</totfact>
</mgrwt>
</event>
<event>
 4    1  0.2202466E-008  0.5969678E+03  0.7818608E-02  0.9911717E-01
         -2   -1    0    0    0  501 -0.00000000000E+00  0.00000000000E+00  0.70125296082E+03  0.70125296083E+03  0.25500000000E-02 0.  1.
          2   -1    0    0  501    0  0.00000000000E+00 -0.00000000000E+00 -0.12206006174E+04  0.12206006174E+04  0.25500000000E-02 0. -1.
    8880022    1    1    2    0    0 -0.34043484497E+03 -0.46592174009E+03 -0.99379597379E+03  0.11593105891E+04  0.15294330000E+03 0.  0.
    8880022    1    1    2    0    0  0.34043484497E+03  0.46592174009E+03  0.47444831718E+03  0.76254298912E+03  0.15294330000E+03 0.  0.
<mgrwt>
<rscale>  0 0.59696784E+03</rscale>
<asrwt>0</asrwt>
<pdfrwt beam="1">  1        2 0.18778471E+00 0.59696784E+03</pdfrwt>
<pdfrwt beam="2">  1       -2 0.10788507E+00 0.59696784E+03</pdfrwt>
<totfact> 0.13202312E+01</totfact>
</mgrwt>
</event>
<event>
 4    1  0.2202466E-008  0.9613941E+03  0.7818608E-02  0.9351931E-01
         -2   -1    0    0    0  501 -0.00000000000E+00  0.00000000000E+00  0.53123934354E+03  0.53123934355E+03  0.25500000000E-02 0.  1.
          2   -1    0    0  501    0  0.00000000000E+00 -0.00000000000E+00 -0.23988435516E+04  0.23988435516E+04  0.25500000000E-02 0. -1.
    8880022    1    1    2    0    0 -0.17587870009E+03 -0.93271306095E+03 -0.17016733101E+04  0.19544745275E+04  0.15294330000E+03 0.  0.
    8880022    1    1    2    0    0  0.17587870009E+03  0.93271306095E+03 -0.16593089797E+03  0.97560836770E+03  0.15294330000E+03 0.  0.
<mgrwt>
<rscale>  0 0.96139410E+03</rscale>
<asrwt>0</asrwt>
<pdfrwt beam="1">  1        2 0.36905285E+00 0.96139410E+03</pdfrwt>
<pdfrwt beam="2">  1       -2 0.81729131E-01 0.96139410E+03</pdfrwt>
<totfact> 0.53148050E+00</totfact>
</mgrwt>
</event>
<event>
 4    1  0.2202466E-008  0.1731616E+04  0.7818608E-02  0.8743535E-01
          2   -1    0    0  501    0  0.00000000000E+00  0.00000000000E+00  0.28606683814E+04  0.28606683814E+04  0.25500000000E-02 0. -1.
         -2   -1    0    0    0  501 -0.00000000000E+00 -0.00000000000E+00 -0.19657145408E+04  0.19657145408E+04  0.25500000000E-02 0.  1.
    8880022    1    1    2    0    0  0.85332352863E+03 -0.14989806239E+04 -0.12012272916E+04  0.21074730401E+04  0.15294330000E+03 0.  0.
    8880022    1    1    2    0    0 -0.85332352863E+03  0.14989806239E+04  0.20961811322E+04  0.27189098822E+04  0.15294330000E+03 0.  0.
<mgrwt>
<rscale>  0 0.17316165E+04</rscale>
<asrwt>0</asrwt>
<pdfrwt beam="1">  1        2 0.44010282E+00 0.17316165E+04</pdfrwt>
<pdfrwt beam="2">  1       -2 0.30241762E+00 0.17316165E+04</pdfrwt>
<totfact> 0.59501170E-02</totfact>
</mgrwt>
</event>
<event>
 4    1  0.2202466E-008  0.1004272E+04  0.7818608E-02  0.9303872E-01
          2   -1    0    0  501    0  0.00000000000E+00  0.00000000000E+00  0.28578440374E+04  0.28578440374E+04  0.25500000000E-02 0. -1.
         -2   -1    0    0    0  501 -0.00000000000E+00 -0.00000000000E+00 -0.12065424161E+04  0.12065424161E+04  0.25500000000E-02 0.  1.
    8880022    1    1    2    0    0 -0.94831510123E+03 -0.29303259945E+03  0.25349937088E+04  0.27266746033E+04  0.15294330000E+03 0.  0.
    8880022    1    1    2    0    0  0.94831510123E+03  0.29303259945E+03 -0.88369208756E+03  0.13377118502E+04  0.15294330000E+03 0.  0.
<mgrwt>
<rscale>  0 0.10042715E+04</rscale>
<asrwt>0</asrwt>
<pdfrwt beam="1">  1        2 0.43966832E+00 0.10042715E+04</pdfrwt>
<pdfrwt beam="2">  1       -2 0.18562191E+00 0.10042715E+04</pdfrwt>
<totfact> 0.35834059E-01</totfact>
</mgrwt>
</event>
<event>
 4    1  0.2202466E-008  0.6018329E+03  0.7818608E-02  0.9901611E-01
          2   -1    0    0  501    0  0.00000000000E+00  0.00000000000E+00  0.18004482117E+04  0.18004482117E+04  0.25500000000E-02 0. -1.
         -2   -1    0    0    0  501 -0.00000000000E+00 -0.00000000000E+00 -0.49006358650E+03  0.49006358651E+03  0.25500000000E-02 0.  1.
    8880022    1    1    2    0    0  0.33753186671E+03  0.47421872573E+03 -0.22411866614E+03  0.64220868135E+03  0.15294330000E+03 0.  0.
    8880022    1    1    2    0    0 -0.33753186671E+03 -0.47421872573E+03  0.15345032913E+04  0.16483031168E+04  0.15294330000E+03 0.  0.
<mgrwt>
<rscale>  0 0.60183288E+03</rscale>
<asrwt>0</asrwt>
<pdfrwt beam="1">  1        2 0.27699203E+00 0.60183288E+03</pdfrwt>
<pdfrwt beam="2">  1       -2 0.75394398E-01 0.60183288E+03</pdfrwt>
<totfact> 0.14351360E+01</totfact>
</mgrwt>
</event>
<event>
 4    1  0.2202466E-008  0.7950935E+03  0.7818608E-02  0.9567146E-01
         -2   -1    0    0    0  501 -0.00000000000E+00  0.00000000000E+00  0.56952162206E+03  0.56952162207E+03  0.25500000000E-02 0.  1.
          2   -1    0    0  501    0  0.00000000000E+00 -0.00000000000E+00 -0.13334144648E+04  0.13334144648E+04  0.25500000000E-02 0. -1.
    8880022    1    1    2    0    0  0.77714803260E+03 -0.69447702946E+02 -0.77140318190E+03  0.11078070997E+04  0.15294330000E+03 0.  0.
    8880022    1    1    2    0    0 -0.77714803260E+03  0.69447702946E+02  0.75103391989E+01  0.79512898717E+03  0.15294330000E+03 0.  0.
<mgrwt>
<rscale>  0 0.79509352E+03</rscale>
<asrwt>0</asrwt>
<pdfrwt beam="1">  1        2 0.20514069E+00 0.79509352E+03</pdfrwt>
<pdfrwt beam="2">  1       -2 0.87618711E-01 0.79509352E+03</pdfrwt>
<totfact> 0.18053303E+01</totfact>
</mgrwt>
</event>
<event>
 4    1  0.2202466E-008  0.7187936E+03  0.7818608E-02  0.9685622E-01
         -2   -1    0    0    0  501 -0.00000000000E+00  0.00000000000E+00  0.92234412263E+03  0.92234412263E+03  0.25500000000E-02 0.  1.
          2   -1    0    0  501    0  0.00000000000E+00 -0.00000000000E+00 -0.64826287795E+03  0.64826287796E+03  0.25500000000E-02 0. -1.
    8880022    1    1    2    0    0 -0.47433614584E+03 -0.51795536623E+03  0.42653928107E+03  0.83582291902E+03  0.15294330000E+03 0.  0.
    8880022    1    1    2    0    0  0.47433614584E+03  0.51795536623E+03 -0.15245803639E+03  0.73478408157E+03  0.15294330000E+03 0.  0.
<mgrwt>
<rscale>  0 0.71879357E+03</rscale>
<asrwt>0</asrwt>
<pdfrwt beam="1">  1        2 0.99732751E-01 0.71879357E+03</pdfrwt>
<pdfrwt beam="2">  1       -2 0.14189910E+00 0.71879357E+03</pdfrwt>
<totfact> 0.15915857E+01</totfact>
</mgrwt>
</event>
<event>
 4    1  0.2202466E-008  0.6643986E+03  0.7818608E-02  0.9780130E-01
          2   -1    0    0  501    0  0.00000000000E+00  0.00000000000E+00  0.12685778524E+04  0.12685778524E+04  0.25500000000E-02 0. -1.
         -2   -1    0    0    0  501 -0.00000000000E+00 -0.00000000000E+00 -0.90088846549E+03  0.90088846549E+03  0.25500000000E-02 0.  1.
    8880022    1    1    2    0    0  0.53038849523E+03  0.36975915071E+03 -0.66595866746E+03  0.94070525946E+03  0.15294330000E+03 0.  0.
    8880022    1    1    2    0    0 -0.53038849523E+03 -0.36975915071E+03  0.10336480543E+04  0.12287610584E+04  0.15294330000E+03 0.  0.
<mgrwt>
<rscale>  0 0.66439855E+03</rscale>
<asrwt>0</asrwt>
<pdfrwt beam="1">  1        2 0.19516582E+00 0.66439855E+03</pdfrwt>
<pdfrwt beam="2">  1       -2 0.13859823E+00 0.66439855E+03</pdfrwt>
<totfact> 0.65786138E+00</totfact>
</mgrwt>
</event>
<event>
 4    1  0.2202466E-008  0.3313223E+03  0.7818608E-02  0.1070553E+00
          2   -1    0    0  501    0  0.00000000000E+00  0.00000000000E+00  0.26260185287E+03  0.26260185288E+03  0.25500000000E-02 0. -1.
         -2   -1    0    0    0  501 -0.00000000000E+00 -0.00000000000E+00 -0.16749920524E+04  0.16749920524E+04  0.25500000000E-02 0.  1.
    8880022    1    1    2    0    0 -0.29055513443E+03  0.44278115020E+02  0.13304862924E+03  0.35703841302E+03  0.15294330000E+03 0.  0.
    8880022    1    1    2    0    0  0.29055513443E+03 -0.44278115020E+02 -0.15454388288E+04  0.15805554923E+04  0.15294330000E+03 0.  0.
<mgrwt>
<rscale>  0 0.33132234E+03</rscale>
<asrwt>0</asrwt>
<pdfrwt beam="1">  1        2 0.40400286E-01 0.33132234E+03</pdfrwt>
<pdfrwt beam="2">  1       -2 0.25769108E+00 0.33132234E+03</pdfrwt>
<totfact> 0.80915261E+00</totfact>
</mgrwt>
</event>
<event>
 4    1  0.2202466E-008  0.8424023E+03  0.7818608E-02  0.9500591E-01
          2   -1    0    0  501    0  0.00000000000E+00  0.00000000000E+00  0.19008820304E+04  0.19008820304E+04  0.25500000000E-02 0. -1.
         -2   -1    0    0    0  501 -0.00000000000E+00 -0.00000000000E+00 -0.84860468176E+03  0.84860468177E+03  0.25500000000E-02 0.  1.
    8880022    1    1    2    0    0 -0.69720819294E+03 -0.44738216442E+03 -0.50269402650E+03  0.98099082699E+03  0.15294330000E+03 0.  0.
    8880022    1    1    2    0    0  0.69720819294E+03  0.44738216442E+03  0.15549713751E+04  0.17684958851E+04  0.15294330000E+03 0.  0.
<mgrwt>
<rscale>  0 0.84240235E+03</rscale>
<asrwt>0</asrwt>
<pdfrwt beam="1">  1        2 0.29244339E+00 0.84240235E+03</pdfrwt>
<pdfrwt beam="2">  1       -2 0.13055457E+00 0.84240235E+03</pdfrwt>
<totfact> 0.33210273E+00</totfact>
</mgrwt>
</event>
<event>
 4    1  0.2202466E-008  0.2735935E+03  0.7818608E-02  0.1099240E+00
         -2   -1    0    0    0  501 -0.00000000000E+00  0.00000000000E+00  0.14731101150E+04  0.14731101150E+04  0.25500000000E-02 0.  1.
          2   -1    0    0  501    0  0.00000000000E+00 -0.00000000000E+00 -0.18649028870E+03  0.18649028872E+03  0.25500000000E-02 0. -1.
    8880022    1    1    2    0    0 -0.22552969777E+03 -0.24456500883E+02  0.13510905972E+04  0.13785134094E+04  0.15294330000E+03 0.  0.
    8880022    1    1    2    0    0  0.22552969777E+03  0.24456500883E+02 -0.64470770982E+02  0.28108699425E+03  0.15294330000E+03 0.  0.
<mgrwt>
<rscale>  0 0.27359353E+03</rscale>
<asrwt>0</asrwt>
<pdfrwt beam="1">  1        2 0.28690813E-01 0.27359353E+03</pdfrwt>
<pdfrwt beam="2">  1       -2 0.22663233E+00 0.27359353E+03</pdfrwt>
<totfact> 0.18296287E+01</totfact>
</mgrwt>
</event>
<event>
 4    1  0.2202466E-008  0.2287557E+03  0.7818608E-02  0.1127519E+00
         -2   -1    0    0    0  501 -0.00000000000E+00  0.00000000000E+00  0.59781825765E+03  0.59781825766E+03  0.25500000000E-02 0.  1.
          2   -1    0    0  501    0  0.00000000000E+00 -0.00000000000E+00 -0.12982658667E+04  0.12982658667E+04  0.25500000000E-02 0. -1.
    8880022    1    1    2    0    0  0.16999234070E+03 -0.63324691143E+01 -0.12657480620E+04  0.12862532043E+04  0.15294330000E+03 0. -1.
    8880022    1    1    2    0    0 -0.16999234070E+03  0.63324691143E+01  0.56530045291E+03  0.60983092012E+03  0.15294330000E+03 0.  0.
<mgrwt>
<rscale>  0 0.22875565E+03</rscale>
<asrwt>0</asrwt>
<pdfrwt beam="1">  1        2 0.19973321E+00 0.22875565E+03</pdfrwt>
<pdfrwt beam="2">  1       -2 0.91972040E-01 0.22875565E+03</pdfrwt>
<totfact> 0.18920440E+01</totfact>
</mgrwt>
</event>
<event>
 4    1  0.2202466E-008  0.1310728E+04  0.7818608E-02  0.9021101E-01
          2   -1    0    0  501    0  0.00000000000E+00  0.00000000000E+00  0.19125729346E+04  0.19125729346E+04  0.25500000000E-02 0. -1.
         -2   -1    0    0    0  501 -0.00000000000E+00 -0.00000000000E+00 -0.11382280981E+04  0.11382280981E+04  0.25500000000E-02 0.  1.
    8880022    1    1    2    0    0 -0.12850935243E+04 -0.20772749471E+03  0.10875569491E+04  0.17031699412E+04  0.15294330000E+03 0.  0.
    8880022    1    1    2    0    0  0.12850935243E+04  0.20772749471E+03 -0.31321211253E+03  0.13476310914E+04  0.15294330000E+03 0.  0.
<mgrwt>
<rscale>  0 0.13107279E+04</rscale>
<asrwt>0</asrwt>
<pdfrwt beam="1">  1        2 0.29424199E+00 0.13107279E+04</pdfrwt>
<pdfrwt beam="2">  1       -2 0.17511201E+00 0.13107279E+04</pdfrwt>
<totfact> 0.14062164E+00</totfact>
</mgrwt>
</event>
<event>
 4    1  0.2202466E-008  0.7083484E+03  0.7818608E-02  0.9703061E-01
         -2   -1    0    0    0  501 -0.00000000000E+00  0.00000000000E+00  0.42183587900E+03  0.42183587901E+03  0.25500000000E-02 0.  1.
          2   -1    0    0  501    0  0.00000000000E+00 -0.00000000000E+00 -0.15626657641E+04  0.15626657641E+04  0.25500000000E-02 0. -1.
    8880022    1    1    2    0    0 -0.26188864441E+03 -0.64014070952E+03 -0.85504153417E+02  0.71349029658E+03  0.15294330000E+03 0.  0.
    8880022    1    1    2    0    0  0.26188864441E+03  0.64014070952E+03 -0.10553257317E+04  0.12710113465E+04  0.15294330000E+03 0.  0.
<mgrwt>
<rscale>  0 0.70834839E+03</rscale>
<asrwt>0</asrwt>
<pdfrwt beam="1">  1        2 0.24041011E+00 0.70834839E+03</pdfrwt>
<pdfrwt beam="2">  1       -2 0.64897828E-01 0.70834839E+03</pdfrwt>
<totfact> 0.26401166E+01</totfact>
</mgrwt>
</event>
<event>
 4    1  0.2202466E-008  0.1179169E+04  0.7818608E-02  0.9131288E-01
         -2   -1    0    0    0  501 -0.00000000000E+00  0.00000000000E+00  0.14060527492E+04  0.14060527492E+04  0.25500000000E-02 0.  1.
          2   -1    0    0  501    0  0.00000000000E+00 -0.00000000000E+00 -0.16385858447E+04  0.16385858447E+04  0.25500000000E-02 0. -1.
    8880022    1    1    2    0    0 -0.25575930790E+03 -0.11408919616E+04 -0.10748378631E+04  0.15955298106E+04  0.15294330000E+03 0.  0.
    8880022    1    1    2    0    0  0.25575930790E+03  0.11408919616E+04  0.84230476760E+03  0.14491087834E+04  0.15294330000E+03 0.  0.
<mgrwt>
<rscale>  0 0.11791688E+04</rscale>
<asrwt>0</asrwt>
<pdfrwt beam="1">  1        2 0.25209013E+00 0.11791688E+04</pdfrwt>
<pdfrwt beam="2">  1       -2 0.21631581E+00 0.11791688E+04</pdfrwt>
<totfact> 0.10766870E+00</totfact>
</mgrwt>
</event>
<event>
 4    1  0.2202466E-008  0.4219788E+03  0.7818608E-02  0.1036424E+00
          2   -1    0    0  501    0  0.00000000000E+00  0.00000000000E+00  0.31946389891E+04  0.31946389891E+04  0.25500000000E-02 0. -1.
         -2   -1    0    0    0  501 -0.00000000000E+00 -0.00000000000E+00 -0.23753362054E+03  0.23753362055E+03  0.25500000000E-02 0.  1.
    8880022    1    1    2    0    0 -0.30303322914E+03 -0.25068967018E+03 -0.22745815727E+02  0.42259137928E+03  0.15294330000E+03 0.  1.
    8880022    1    1    2    0    0  0.30303322914E+03  0.25068967018E+03  0.29798511843E+04  0.30095812303E+04  0.15294330000E+03 0.  0.
<mgrwt>
<rscale>  0 0.42197879E+03</rscale>
<asrwt>0</asrwt>
<pdfrwt beam="1">  1        2 0.49148290E+00 0.42197879E+03</pdfrwt>
<pdfrwt beam="2">  1       -2 0.36543635E-01 0.42197879E+03</pdfrwt>
<totfact> 0.10688640E+01</totfact>
</mgrwt>
</event>
<event>
 4    1  0.2202466E-008  0.6076347E+03  0.7818608E-02  0.9889692E-01
          2   -1    0    0  501    0  0.00000000000E+00  0.00000000000E+00  0.11358997065E+04  0.11358997065E+04  0.25500000000E-02 0. -1.
         -2   -1    0    0    0  501 -0.00000000000E+00 -0.00000000000E+00 -0.35565589297E+03  0.35565589298E+03  0.25500000000E-02 0.  1.
    8880022    1    1    2    0    0  0.56719556521E+03  0.15529781335E+03  0.60891015792E+03  0.86022755912E+03  0.15294330000E+03 0.  0.
    8880022    1    1    2    0    0 -0.56719556521E+03 -0.15529781335E+03  0.17133365564E+03  0.63132804040E+03  0.15294330000E+03 0.  0.
<mgrwt>
<rscale>  0 0.60763465E+03</rscale>
<asrwt>0</asrwt>
<pdfrwt beam="1">  1        2 0.17475380E+00 0.60763465E+03</pdfrwt>
<pdfrwt beam="2">  1       -2 0.54716291E-01 0.60763465E+03</pdfrwt>
<totfact> 0.67038494E+01</totfact>
</mgrwt>
</event>
<event>
 4    1  0.2202466E-008  0.4719611E+03  0.7818608E-02  0.1021368E+00
         -2   -1    0    0    0  501 -0.00000000000E+00  0.00000000000E+00  0.76468248530E+03  0.76468248530E+03  0.25500000000E-02 0.  1.
          2   -1    0    0  501    0  0.00000000000E+00 -0.00000000000E+00 -0.14003752396E+04  0.14003752396E+04  0.25500000000E-02 0. -1.
    8880022    1    1    2    0    0  0.31167157725E+03 -0.31971311556E+03 -0.12812293866E+04  0.13653922668E+04  0.15294330000E+03 0.  0.
    8880022    1    1    2    0    0 -0.31167157725E+03  0.31971311556E+03  0.64553663223E+03  0.79966545811E+03  0.15294330000E+03 0.  0.
<mgrwt>
<rscale>  0 0.47196112E+03</rscale>
<asrwt>0</asrwt>
<pdfrwt beam="1">  1        2 0.21544234E+00 0.47196112E+03</pdfrwt>
<pdfrwt beam="2">  1       -2 0.11764346E+00 0.47196112E+03</pdfrwt>
<totfact> 0.86576351E+00</totfact>
</mgrwt>
</event>
<event>
 4    1  0.2202466E-008  0.7571406E+03  0.7818608E-02  0.9624214E-01
          2   -1    0    0  501    0  0.00000000000E+00  0.00000000000E+00  0.17507648032E+04  0.17507648032E+04  0.25500000000E-02 0. -1.
         -2   -1    0    0    0  501 -0.00000000000E+00 -0.00000000000E+00 -0.65255757817E+03  0.65255757817E+03  0.25500000000E-02 0.  1.
    8880022    1    1    2    0    0  0.82395693850E+02  0.73694041612E+03  0.13972993833E+04  0.15892474467E+04  0.15294330000E+03 0.  0.
    8880022    1    1    2    0    0 -0.82395693850E+02 -0.73694041612E+03 -0.29909215818E+03  0.81407493475E+03  0.15294330000E+03 0.  1.
<mgrwt>
<rscale>  0 0.75714059E+03</rscale>
<asrwt>0</asrwt>
<pdfrwt beam="1">  1        2 0.26934844E+00 0.75714059E+03</pdfrwt>
<pdfrwt beam="2">  1       -2 0.10039347E+00 0.75714059E+03</pdfrwt>
<totfact> 0.77370809E+00</totfact>
</mgrwt>
</event>
<event>
 4    1  0.2202466E-008  0.5059369E+03  0.7818608E-02  0.1012241E+00
          2   -1    0    0  501    0  0.00000000000E+00  0.00000000000E+00  0.16126863469E+04  0.16126863469E+04  0.25500000000E-02 0. -1.
         -2   -1    0    0    0  501 -0.00000000000E+00 -0.00000000000E+00 -0.37081131126E+03  0.37081131127E+03  0.25500000000E-02 0.  1.
    8880022    1    1    2    0    0 -0.23570994646E+03 -0.42073902617E+03  0.13709741393E+04  0.14613494622E+04  0.15294330000E+03 0.  0.
    8880022    1    1    2    0    0  0.23570994646E+03  0.42073902617E+03 -0.12909910365E+03  0.52214819600E+03  0.15294330000E+03 0.  0.
<mgrwt>
<rscale>  0 0.50593691E+03</rscale>
<asrwt>0</asrwt>
<pdfrwt beam="1">  1        2 0.24810559E+00 0.50593691E+03</pdfrwt>
<pdfrwt beam="2">  1       -2 0.57047894E-01 0.50593691E+03</pdfrwt>
<totfact> 0.33532282E+01</totfact>
</mgrwt>
</event>
<event>
 4    1  0.2202466E-008  0.1197189E+04  0.7818608E-02  0.9115321E-01
          2   -1    0    0  501    0  0.00000000000E+00  0.00000000000E+00  0.49051530030E+04  0.49051530030E+04  0.25500000000E-02 0. -1.
         -2   -1    0    0    0  501 -0.00000000000E+00 -0.00000000000E+00 -0.75316448121E+03  0.75316448121E+03  0.25500000000E-02 0.  1.
    8880022    1    1    2    0    0  0.77795044085E+03 -0.89702964704E+03 -0.13734776858E+03  0.12050415506E+04  0.15294330000E+03 0.  0.
    8880022    1    1    2    0    0 -0.77795044085E+03  0.89702964704E+03  0.42893362903E+04  0.44532759336E+04  0.15294330000E+03 0.  0.
<mgrwt>
<rscale>  0 0.11971887E+04</rscale>
<asrwt>0</asrwt>
<pdfrwt beam="1">  1        2 0.75463891E+00 0.11971887E+04</pdfrwt>
<pdfrwt beam="2">  1       -2 0.11587146E+00 0.11971887E+04</pdfrwt>
<totfact> 0.27178549E-02</totfact>
</mgrwt>
</event>
<event>
 4    1  0.2202466E-008  0.8587851E+03  0.7818608E-02  0.9478621E-01
          2   -1    0    0  501    0  0.00000000000E+00  0.00000000000E+00  0.21029554733E+04  0.21029554733E+04  0.25500000000E-02 0. -1.
         -2   -1    0    0    0  501 -0.00000000000E+00 -0.00000000000E+00 -0.12619397002E+04  0.12619397002E+04  0.25500000000E-02 0.  1.
    8880022    1    1    2    0    0 -0.77268934609E+03  0.34215685199E+03 -0.10091692005E+04  0.13251166987E+04  0.15294330000E+03 0.  0.
    8880022    1    1    2    0    0  0.77268934609E+03 -0.34215685199E+03  0.18501849736E+04  0.20397784748E+04  0.15294330000E+03 0.  0.
<mgrwt>
<rscale>  0 0.85878507E+03</rscale>
<asrwt>0</asrwt>
<pdfrwt beam="1">  1        2 0.32353161E+00 0.85878507E+03</pdfrwt>
<pdfrwt beam="2">  1       -2 0.19414457E+00 0.85878507E+03</pdfrwt>
<totfact> 0.87128397E-01</totfact>
</mgrwt>
</event>
<event>
 4    1  0.2202466E-008  0.1344673E+04  0.7818608E-02  0.8994871E-01
          2   -1    0    0  501    0  0.00000000000E+00  0.00000000000E+00  0.85135301830E+03  0.85135301830E+03  0.25500000000E-02 0. -1.
         -2   -1    0    0    0  501 -0.00000000000E+00 -0.00000000000E+00 -0.46669632226E+04  0.46669632226E+04  0.25500000000E-02 0.  1.
    8880022    1    1    2    0    0  0.32107060326E+03 -0.12967908999E+04 -0.39445770137E+04  0.41674731481E+04  0.15294330000E+03 0.  0.
    8880022    1    1    2    0    0 -0.32107060326E+03  0.12967908999E+04  0.12896680935E+03  0.13508430928E+04  0.15294330000E+03 0.  0.
<mgrwt>
<rscale>  0 0.13446727E+04</rscale>
<asrwt>0</asrwt>
<pdfrwt beam="1">  1        2 0.13097739E+00 0.13446727E+04</pdfrwt>
<pdfrwt beam="2">  1       -2 0.71799433E+00 0.13446727E+04</pdfrwt>
<totfact> 0.59536370E-03</totfact>
</mgrwt>
</event>
<event>
 4    1  0.2202466E-008  0.2986072E+03  0.7818608E-02  0.1085939E+00
         -2   -1    0    0    0  501 -0.00000000000E+00  0.00000000000E+00  0.14975241050E+04  0.14975241050E+04  0.25500000000E-02 0.  1.
          2   -1    0    0  501    0  0.00000000000E+00 -0.00000000000E+00 -0.16292074967E+04  0.16292074967E+04  0.25500000000E-02 0. -1.
    8880022    1    1    2    0    0  0.25463043560E+03 -0.30626197048E+02 -0.16003735189E+04  0.16279931436E+04  0.15294330000E+03 0.  0.
    8880022    1    1    2    0    0 -0.25463043560E+03  0.30626197048E+02  0.14686901273E+04  0.14987384581E+04  0.15294330000E+03 0.  0.
<mgrwt>
<rscale>  0 0.29860723E+03</rscale>
<asrwt>0</asrwt>
<pdfrwt beam="1">  1        2 0.25064731E+00 0.29860723E+03</pdfrwt>
<pdfrwt beam="2">  1       -2 0.23038832E+00 0.29860723E+03</pdfrwt>
<totfact> 0.10954795E+00</totfact>
</mgrwt>
</event>
<event>
 4    1  0.2202466E-008  0.6096060E+03  0.7818608E-02  0.9885675E-01
          2   -1    0    0  501    0  0.00000000000E+00  0.00000000000E+00  0.16882237078E+04  0.16882237078E+04  0.25500000000E-02 0. -1.
         -2   -1    0    0    0  501 -0.00000000000E+00 -0.00000000000E+00 -0.25577291577E+03  0.25577291579E+03  0.25500000000E-02 0.  1.
    8880022    1    1    2    0    0  0.27255532931E+02 -0.58947858786E+03  0.10791011128E+04  0.12393864346E+04  0.15294330000E+03 0.  0.
    8880022    1    1    2    0    0 -0.27255532931E+02  0.58947858786E+03  0.35334967925E+03  0.70461018901E+03  0.15294330000E+03 0.  0.
<mgrwt>
<rscale>  0 0.60960604E+03</rscale>
<asrwt>0</asrwt>
<pdfrwt beam="1">  1        2 0.25972672E+00 0.60960604E+03</pdfrwt>
<pdfrwt beam="2">  1       -2 0.39349680E-01 0.60960604E+03</pdfrwt>
<totfact> 0.63265328E+01</totfact>
</mgrwt>
</event>
<event>
 4    1  0.2202466E-008  0.1942307E+04  0.7818608E-02  0.8634079E-01
          2   -1    0    0  501    0  0.00000000000E+00  0.00000000000E+00  0.30004546916E+04  0.30004546916E+04  0.25500000000E-02 0. -1.
         -2   -1    0    0    0  501 -0.00000000000E+00 -0.00000000000E+00 -0.20660690904E+04  0.20660690904E+04  0.25500000000E-02 0.  1.
    8880022    1    1    2    0    0 -0.37540124882E+02 -0.19359119842E+04  0.20521311945E+04  0.28255616369E+04  0.15294330000E+03 0.  0.
    8880022    1    1    2    0    0  0.37540124882E+02  0.19359119842E+04 -0.11177455932E+04  0.22409621451E+04  0.15294330000E+03 0.  0.
<mgrwt>
<rscale>  0 0.19423069E+04</rscale>
<asrwt>0</asrwt>
<pdfrwt beam="1">  1        2 0.46160841E+00 0.19423069E+04</pdfrwt>
<pdfrwt beam="2">  1       -2 0.31785678E+00 0.19423069E+04</pdfrwt>
<totfact> 0.38199545E-02</totfact>
</mgrwt>
</event>
<event>
 4    1  0.2202466E-008  0.8570223E+03  0.7818608E-02  0.9480960E-01
          2   -1    0    0  501    0  0.00000000000E+00  0.00000000000E+00  0.25184569816E+04  0.25184569816E+04  0.25500000000E-02 0. -1.
         -2   -1    0    0    0  501 -0.00000000000E+00 -0.00000000000E+00 -0.47753221802E+03  0.47753221803E+03  0.25500000000E-02 0.  1.
    8880022    1    1    2    0    0 -0.32670449146E+03  0.77740582290E+03  0.85837308665E+02  0.86131024306E+03  0.15294330000E+03 0.  0.
    8880022    1    1    2    0    0  0.32670449146E+03 -0.77740582290E+03  0.19550874549E+04  0.21346789565E+04  0.15294330000E+03 0.  0.
<mgrwt>
<rscale>  0 0.85702234E+03</rscale>
<asrwt>0</asrwt>
<pdfrwt beam="1">  1        2 0.38745493E+00 0.85702234E+03</pdfrwt>
<pdfrwt beam="2">  1       -2 0.73466494E-01 0.85702234E+03</pdfrwt>
<totfact> 0.58574419E+00</totfact>
</mgrwt>
</event>
<event>
 4    1  0.2202466E-008  0.1116622E+04  0.7818608E-02  0.9189141E-01
          2   -1    0    0  501    0  0.00000000000E+00  0.00000000000E+00  0.36524872952E+04  0.36524872952E+04  0.25500000000E-02 0. -1.
         -2   -1    0    0    0  501 -0.00000000000E+00 -0.00000000000E+00 -0.14659294140E+04  0.14659294140E+04  0.25500000000E-02 0.  1.
    8880022    1    1    2    0    0  0.11045639700E+04  0.58239273439E+02  0.33347883126E+04  0.35167681356E+04  0.15294330000E+03 0.  0.
    8880022    1    1    2    0    0 -0.11045639700E+04 -0.58239273439E+02 -0.11482304313E+04  0.16016485736E+04  0.15294330000E+03 0.  0.
<mgrwt>
<rscale>  0 0.11166222E+04</rscale>
<asrwt>0</asrwt>
<pdfrwt beam="1">  1        2 0.56192112E+00 0.11166222E+04</pdfrwt>
<pdfrwt beam="2">  1       -2 0.22552760E+00 0.11166222E+04</pdfrwt>
<totfact> 0.58442872E-02</totfact>
</mgrwt>
</event>
<event>
 4    1  0.2202466E-008  0.7677818E+03  0.7818608E-02  0.9607859E-01
         -2   -1    0    0    0  501 -0.00000000000E+00  0.00000000000E+00  0.44993027311E+03  0.44993027312E+03  0.25500000000E-02 0.  1.
          2   -1    0    0  501    0  0.00000000000E+00 -0.00000000000E+00 -0.15806788415E+04  0.15806788415E+04  0.25500000000E-02 0. -1.
    8880022    1    1    2    0    0 -0.26698103726E+03  0.70343330198E+03 -0.98538317411E+03  0.12491873108E+04  0.15294330000E+03 0.  0.
    8880022    1    1    2    0    0  0.26698103726E+03 -0.70343330198E+03 -0.14536539424E+03  0.78142180380E+03  0.15294330000E+03 0.  0.
<mgrwt>
<rscale>  0 0.76778183E+03</rscale>
<asrwt>0</asrwt>
<pdfrwt beam="1">  1        2 0.24318136E+00 0.76778183E+03</pdfrwt>
<pdfrwt beam="2">  1       -2 0.69220043E-01 0.76778183E+03</pdfrwt>
<totfact> 0.22282750E+01</totfact>
</mgrwt>
</event>
<event>
 4    1  0.2202466E-008  0.1739785E+04  0.7818608E-02  0.8738993E-01
         -2   -1    0    0    0  501 -0.00000000000E+00  0.00000000000E+00  0.14914885619E+04  0.14914885619E+04  0.25500000000E-02 0.  1.
          2   -1    0    0  501    0  0.00000000000E+00 -0.00000000000E+00 -0.29035975308E+04  0.29035975308E+04  0.25500000000E-02 0. -1.
    8880022    1    1    2    0    0 -0.56466149630E+03 -0.16384806749E+04 -0.19118386894E+04  0.25849526794E+04  0.15294330000E+03 0.  0.
    8880022    1    1    2    0    0  0.56466149630E+03  0.16384806749E+04  0.49972972050E+03  0.18101334133E+04  0.15294330000E+03 0.  0.
<mgrwt>
<rscale>  0 0.17397854E+04</rscale>
<asrwt>0</asrwt>
<pdfrwt beam="1">  1        2 0.44670731E+00 0.17397854E+04</pdfrwt>
<pdfrwt beam="2">  1       -2 0.22945978E+00 0.17397854E+04</pdfrwt>
<totfact> 0.15745042E-01</totfact>
</mgrwt>
</event>
<event>
 4    1  0.2202466E-008  0.8052209E+03  0.7818608E-02  0.9552491E-01
          2   -1    0    0  501    0  0.00000000000E+00  0.00000000000E+00  0.24939869470E+04  0.24939869470E+04  0.25500000000E-02 0. -1.
         -2   -1    0    0    0  501 -0.00000000000E+00 -0.00000000000E+00 -0.93727482577E+03  0.93727482577E+03  0.25500000000E-02 0.  1.
    8880022    1    1    2    0    0 -0.70113301921E+03  0.36524168693E+03 -0.68005530294E+03  0.10539714743E+04  0.15294330000E+03 0.  0.
    8880022    1    1    2    0    0  0.70113301921E+03 -0.36524168693E+03  0.22367674241E+04  0.23772902985E+04  0.15294330000E+03 0.  0.
<mgrwt>
<rscale>  0 0.80522087E+03</rscale>
<asrwt>0</asrwt>
<pdfrwt beam="1">  1        2 0.38369029E+00 0.80522087E+03</pdfrwt>
<pdfrwt beam="2">  1       -2 0.14419613E+00 0.80522087E+03</pdfrwt>
<totfact> 0.12137070E+00</totfact>
</mgrwt>
</event>
<event>
 4    1  0.2202466E-008  0.3454660E+03  0.7818608E-02  0.1064492E+00
          2   -1    0    0  501    0  0.00000000000E+00  0.00000000000E+00  0.12509206469E+04  0.12509206469E+04  0.25500000000E-02 0. -1.
         -2   -1    0    0    0  501 -0.00000000000E+00 -0.00000000000E+00 -0.11496490188E+03  0.11496490191E+03  0.25500000000E-02 0.  1.
    8880022    1    1    2    0    0  0.24090272500E+03  0.19473310882E+03  0.84966128291E+03  0.91720829438E+03  0.15294330000E+03 0.  0.
    8880022    1    1    2    0    0 -0.24090272500E+03 -0.19473310882E+03  0.28629446206E+03  0.44867725439E+03  0.15294330000E+03 0.  0.
<mgrwt>
<rscale>  0 0.34546600E+03</rscale>
<asrwt>0</asrwt>
<pdfrwt beam="1">  1        2 0.19244933E+00 0.34546600E+03</pdfrwt>
<pdfrwt beam="2">  1       -2 0.17686908E-01 0.34546600E+03</pdfrwt>
<totfact> 0.48371003E+02</totfact>
</mgrwt>
</event>
<event>
 4    1  0.2202466E-008  0.5911068E+03  0.7818608E-02  0.9924030E-01
         -2   -1    0    0    0  501 -0.00000000000E+00  0.00000000000E+00  0.76893105037E+03  0.76893105038E+03  0.25500000000E-02 0.  1.
          2   -1    0    0  501    0  0.00000000000E+00 -0.00000000000E+00 -0.68693161799E+03  0.68693161800E+03  0.25500000000E-02 0. -1.
    8880022    1    1    2    0    0 -0.35123720812E+03 -0.45016441896E+03 -0.38251512981E+03  0.70407745172E+03  0.15294330000E+03 0.  0.
    8880022    1    1    2    0    0  0.35123720812E+03  0.45016441896E+03  0.46451456220E+03  0.75178521665E+03  0.15294330000E+03 0.  0.
<mgrwt>
<rscale>  0 0.59110679E+03</rscale>
<asrwt>0</asrwt>
<pdfrwt beam="1">  1        2 0.10568179E+00 0.59110679E+03</pdfrwt>
<pdfrwt beam="2">  1       -2 0.11829708E+00 0.59110679E+03</pdfrwt>
<totfact> 0.23777998E+01</totfact>
</mgrwt>
</event>
<event>
 4    1  0.2202466E-008  0.1169639E+04  0.7818608E-02  0.9139854E-01
         -2   -1    0    0    0  501 -0.00000000000E+00  0.00000000000E+00  0.22434417368E+04  0.22434417368E+04  0.25500000000E-02 0.  1.
          2   -1    0    0  501    0  0.00000000000E+00 -0.00000000000E+00 -0.13338914839E+04  0.13338914839E+04  0.25500000000E-02 0. -1.
    8880022    1    1    2    0    0 -0.81966286524E+03  0.82025440706E+03 -0.86307235157E+03  0.14535989963E+04  0.15294330000E+03 0.  0.
    8880022    1    1    2    0    0  0.81966286524E+03 -0.82025440706E+03  0.17726226044E+04  0.21237342244E+04  0.15294330000E+03 0.  0.
<mgrwt>
<rscale>  0 0.11696393E+04</rscale>
<asrwt>0</asrwt>
<pdfrwt beam="1">  1        2 0.20521408E+00 0.11696393E+04</pdfrwt>
<pdfrwt beam="2">  1       -2 0.34514488E+00 0.11696393E+04</pdfrwt>
<totfact> 0.25960783E-01</totfact>
</mgrwt>
</event>
<event>
 4    1  0.2202466E-008  0.2003226E+03  0.7818608E-02  0.1149467E+00
         -2   -1    0    0    0  501 -0.00000000000E+00  0.00000000000E+00  0.21593615435E+03  0.21593615436E+03  0.25500000000E-02 0.  1.
          2   -1    0    0  501    0  0.00000000000E+00 -0.00000000000E+00 -0.20618134863E+04  0.20618134863E+04  0.25500000000E-02 0. -1.
    8880022    1    1    2    0    0 -0.27039907005E+02 -0.12651620787E+03  0.16339908879E+03  0.25851193910E+03  0.15294330000E+03 0.  0.
    8880022    1    1    2    0    0  0.27039907005E+02  0.12651620787E+03 -0.20092764208E+04  0.20192377016E+04  0.15294330000E+03 0. -1.
<mgrwt>
<rscale>  0 0.20032264E+03</rscale>
<asrwt>0</asrwt>
<pdfrwt beam="1">  1        2 0.31720206E+00 0.20032264E+03</pdfrwt>
<pdfrwt beam="2">  1       -2 0.33220948E-01 0.20032264E+03</pdfrwt>
<totfact> 0.60731927E+01</totfact>
</mgrwt>
</event>
<event>
 4    1  0.2202466E-008  0.1410402E+04  0.7818608E-02  0.8946323E-01
          2   -1    0    0  501    0  0.00000000000E+00  0.00000000000E+00  0.42376098950E+04  0.42376098950E+04  0.25500000000E-02 0. -1.
         -2   -1    0    0    0  501 -0.00000000000E+00 -0.00000000000E+00 -0.10432418108E+04  0.10432418108E+04  0.25500000000E-02 0.  1.
    8880022    1    1    2    0    0 -0.10390656425E+04 -0.94137419506E+03  0.35554362140E+04  0.38249655043E+04  0.15294330000E+03 0.  0.
    8880022    1    1    2    0    0  0.10390656425E+04  0.94137419506E+03 -0.36106812974E+03  0.14558862015E+04  0.15294330000E+03 0.  0.
<mgrwt>
<rscale>  0 0.14104022E+04</rscale>
<asrwt>0</asrwt>
<pdfrwt beam="1">  1        2 0.65193999E+00 0.14104022E+04</pdfrwt>
<pdfrwt beam="2">  1       -2 0.16049874E+00 0.14104022E+04</pdfrwt>
<totfact> 0.52648596E-02</totfact>
</mgrwt>
</event>
<event>
 4    1  0.2202466E-008  0.2237859E+03  0.7818608E-02  0.1131092E+00
          2   -1    0    0  501    0  0.00000000000E+00  0.00000000000E+00  0.24446875059E+04  0.24446875059E+04  0.25500000000E-02 0. -1.
         -2   -1    0    0    0  501 -0.00000000000E+00 -0.00000000000E+00 -0.62536367895E+02  0.62536367947E+02  0.25500000000E-02 0.  1.
    8880022    1    1    2    0    0 -0.92786116513E+02  0.13445892426E+03  0.22190572781E+04  0.22303128306E+04  0.15294330000E+03 0.  0.
    8880022    1    1    2    0    0  0.92786116513E+02 -0.13445892426E+03  0.16309385990E+03  0.27691104327E+03  0.15294330000E+03 0.  1.
<mgrwt>
<rscale>  0 0.22378588E+03</rscale>
<asrwt>0</asrwt>
<pdfrwt beam="1">  1        2 0.37610572E+00 0.22378588E+03</pdfrwt>
<pdfrwt beam="2">  1       -2 0.96209810E-02 0.22378588E+03</pdfrwt>
<totfact> 0.30800544E+02</totfact>
</mgrwt>
</event>
<event>
 4    1  0.2202466E-008  0.3326212E+03  0.7818608E-02  0.1069983E+00
          2   -1    0    0  501    0  0.00000000000E+00  0.00000000000E+00  0.15535694401E+04  0.15535694401E+04  0.25500000000E-02 0. -1.
         -2   -1    0    0    0  501 -0.00000000000E+00 -0.00000000000E+00 -0.51749667110E+03  0.51749667111E+03  0.25500000000E-02 0.  1.
    8880022    1    1    2    0    0  0.18756167133E+03  0.22817940059E+03 -0.44360886816E+03  0.55445982752E+03  0.15294330000E+03 0.  0.
    8880022    1    1    2    0    0 -0.18756167133E+03 -0.22817940059E+03  0.14796816372E+04  0.15166062837E+04  0.15294330000E+03 0.  0.
<mgrwt>
<rscale>  0 0.33262121E+03</rscale>
<asrwt>0</asrwt>
<pdfrwt beam="1">  1        2 0.23901068E+00 0.33262121E+03</pdfrwt>
<pdfrwt beam="2">  1       -2 0.79614874E-01 0.33262121E+03</pdfrwt>
<totfact> 0.18350742E+01</totfact>
</mgrwt>
</event>
<event>
 4    1  0.2202466E-008  0.1623489E+04  0.7818608E-02  0.8806246E-01
          2   -1    0    0  501    0  0.00000000000E+00  0.00000000000E+00  0.18409602081E+04  0.18409602081E+04  0.25500000000E-02 0. -1.
         -2   -1    0    0    0  501 -0.00000000000E+00 -0.00000000000E+00 -0.15219661244E+04  0.15219661244E+04  0.25500000000E-02 0.  1.
    8880022    1    1    2    0    0 -0.16162283749E+04  0.11416383951E+02 -0.24998016342E+03  0.16426217547E+04  0.15294330000E+03 0.  0.
    8880022    1    1    2    0    0  0.16162283749E+04 -0.11416383951E+02  0.56897424703E+03  0.17203045778E+04  0.15294330000E+03 0.  0.
<mgrwt>
<rscale>  0 0.16234889E+04</rscale>
<asrwt>0</asrwt>
<pdfrwt beam="1">  1        2 0.28322465E+00 0.16234889E+04</pdfrwt>
<pdfrwt beam="2">  1       -2 0.23414863E+00 0.16234889E+04</pdfrwt>
<totfact> 0.61148247E-01</totfact>
</mgrwt>
</event>
<event>
 4    1  0.2202466E-008  0.2020197E+04  0.7818608E-02  0.8597236E-01
         -2   -1    0    0    0  501 -0.00000000000E+00  0.00000000000E+00  0.18026392368E+04  0.18026392368E+04  0.25500000000E-02 0.  1.
          2   -1    0    0  501    0  0.00000000000E+00 -0.00000000000E+00 -0.29422732969E+04  0.29422732969E+04  0.25500000000E-02 0. -1.
    8880022    1    1    2    0    0 -0.19910743574E+04 -0.30566030637E+03  0.56926554676E+03  0.20988711812E+04  0.15294330000E+03 0.  0.
    8880022    1    1    2    0    0  0.19910743574E+04  0.30566030637E+03 -0.17088996068E+04  0.26460413525E+04  0.15294330000E+03 0.  0.
<mgrwt>
<rscale>  0 0.20201973E+04</rscale>
<asrwt>0</asrwt>
<pdfrwt beam="1">  1        2 0.45265743E+00 0.20201973E+04</pdfrwt>
<pdfrwt beam="2">  1       -2 0.27732911E+00 0.20201973E+04</pdfrwt>
<totfact> 0.73142201E-02</totfact>
</mgrwt>
</event>
<event>
 4    1  0.2202466E-008  0.5467374E+03  0.7818608E-02  0.1002252E+00
         -2   -1    0    0    0  501 -0.00000000000E+00  0.00000000000E+00  0.32484880644E+03  0.32484880645E+03  0.25500000000E-02 0.  1.
          2   -1    0    0  501    0  0.00000000000E+00 -0.00000000000E+00 -0.18579365438E+04  0.18579365438E+04  0.25500000000E-02 0. -1.
    8880022    1    1    2    0    0 -0.22631494411E+03 -0.47361557589E+03  0.88259719719E+01  0.54680866713E+03  0.15294330000E+03 0.  0.
    8880022    1    1    2    0    0  0.22631494411E+03  0.47361557589E+03 -0.15419137093E+04  0.16359766831E+04  0.15294330000E+03 0.  0.
<mgrwt>
<rscale>  0 0.54673743E+03</rscale>
<asrwt>0</asrwt>
<pdfrwt beam="1">  1        2 0.28583639E+00 0.54673743E+03</pdfrwt>
<pdfrwt beam="2">  1       -2 0.49976741E-01 0.54673743E+03</pdfrwt>
<totfact> 0.32196629E+01</totfact>
</mgrwt>
</event>
<event>
 4    1  0.2202466E-008  0.1456973E+04  0.7818608E-02  0.8913581E-01
          2   -1    0    0  501    0  0.00000000000E+00  0.00000000000E+00  0.15721551278E+04  0.15721551278E+04  0.25500000000E-02 0. -1.
         -2   -1    0    0    0  501 -0.00000000000E+00 -0.00000000000E+00 -0.20881597229E+04  0.20881597229E+04  0.25500000000E-02 0.  1.
    8880022    1    1    2    0    0 -0.13389864068E+04  0.55361904483E+03 -0.13459655521E+04  0.19835305808E+04  0.15294330000E+03 0.  0.
    8880022    1    1    2    0    0  0.13389864068E+04 -0.55361904483E+03  0.82996095710E+03  0.16767842699E+04  0.15294330000E+03 0.  0.
<mgrwt>
<rscale>  0 0.14569730E+04</rscale>
<asrwt>0</asrwt>
<pdfrwt beam="1">  1        2 0.24187002E+00 0.14569730E+04</pdfrwt>
<pdfrwt beam="2">  1       -2 0.32125534E+00 0.14569730E+04</pdfrwt>
<totfact> 0.25707849E-01</totfact>
</mgrwt>
</event>
<event>
 4    1  0.2202466E-008  0.9827569E+03  0.7818608E-02  0.9327661E-01
          2   -1    0    0  501    0  0.00000000000E+00  0.00000000000E+00  0.67909146969E+03  0.67909146970E+03  0.25500000000E-02 0. -1.
         -2   -1    0    0    0  501 -0.00000000000E+00 -0.00000000000E+00 -0.19955112313E+04  0.19955112313E+04  0.25500000000E-02 0.  1.
    8880022    1    1    2    0    0 -0.27942548459E+03 -0.92969938854E+03 -0.13750021910E+04  0.16901012492E+04  0.15294330000E+03 0.  0.
    8880022    1    1    2    0    0  0.27942548459E+03  0.92969938854E+03  0.58582429362E+02  0.98450145176E+03  0.15294330000E+03 0.  0.
<mgrwt>
<rscale>  0 0.98275694E+03</rscale>
<asrwt>0</asrwt>
<pdfrwt beam="1">  1        2 0.10447561E+00 0.98275694E+03</pdfrwt>
<pdfrwt beam="2">  1       -2 0.30700173E+00 0.98275694E+03</pdfrwt>
<totfact> 0.12363825E+00</totfact>
</mgrwt>
</event>
<event>
 4    1  0.2202466E-008  0.1277204E+04  0.7818608E-02  0.9047841E-01
          2   -1    0    0  501    0  0.00000000000E+00  0.00000000000E+00  0.46116780104E+04  0.46116780104E+04  0.25500000000E-02 0. -1.
         -2   -1    0    0    0  501 -0.00000000000E+00 -0.00000000000E+00 -0.89535684487E+03  0.89535684487E+03  0.25500000000E-02 0.  1.
    8880022    1    1    2    0    0  0.10865830938E+04  0.65360130998E+03 -0.28346375701E+03  0.13082816389E+04  0.15294330000E+03 0.  0.
    8880022    1    1    2    0    0 -0.10865830938E+04 -0.65360130998E+03  0.39997849225E+04  0.41987532163E+04  0.15294330000E+03 0.  0.
<mgrwt>
<rscale>  0 0.12772036E+04</rscale>
<asrwt>0</asrwt>
<pdfrwt beam="1">  1        2 0.70948893E+00 0.12772036E+04</pdfrwt>
<pdfrwt beam="2">  1       -2 0.13774721E+00 0.12772036E+04</pdfrwt>
<totfact> 0.36107956E-02</totfact>
</mgrwt>
</event>
<event>
 4    1  0.2202466E-008  0.3767365E+03  0.7818608E-02  0.1052147E+00
         -2   -1    0    0    0  501 -0.00000000000E+00  0.00000000000E+00  0.93964259208E+03  0.93964259209E+03  0.25500000000E-02 0.  1.
          2   -1    0    0  501    0  0.00000000000E+00 -0.00000000000E+00 -0.23038407125E+03  0.23038407127E+03  0.25500000000E-02 0. -1.
    8880022    1    1    2    0    0  0.33310355079E+03 -0.87067467714E+02  0.11326652258E+02  0.37690670669E+03  0.15294330000E+03 0.  0.
    8880022    1    1    2    0    0 -0.33310355079E+03  0.87067467714E+02  0.69793186857E+03  0.79311995667E+03  0.15294330000E+03 0.  1.
<mgrwt>
<rscale>  0 0.37673648E+03</rscale>
<asrwt>0</asrwt>
<pdfrwt beam="1">  1        2 0.35443703E-01 0.37673648E+03</pdfrwt>
<pdfrwt beam="2">  1       -2 0.14456040E+00 0.37673648E+03</pdfrwt>
<totfact> 0.50637054E+01</totfact>
</mgrwt>
</event>
<event>
 4    1  0.2202466E-008  0.6210105E+03  0.7818608E-02  0.9862750E-01
         -2   -1    0    0    0  501 -0.00000000000E+00  0.00000000000E+00  0.86907764400E+03  0.86907764400E+03  0.25500000000E-02 0.  1.
          2   -1    0    0  501    0  0.00000000000E+00 -0.00000000000E+00 -0.90691465256E+03  0.90691465256E+03  0.25500000000E-02 0. -1.
    8880022    1    1    2    0    0 -0.12576163522E+03 -0.58859700119E+03  0.61567424962E+03  0.87447633093E+03  0.15294330000E+03 0.  0.
    8880022    1    1    2    0    0  0.12576163522E+03  0.58859700119E+03 -0.65351125818E+03  0.90151596563E+03  0.15294330000E+03 0. -1.
<mgrwt>
<rscale>  0 0.62101052E+03</rscale>
<asrwt>0</asrwt>
<pdfrwt beam="1">  1        2 0.13952533E+00 0.62101052E+03</pdfrwt>
<pdfrwt beam="2">  1       -2 0.13370425E+00 0.62101052E+03</pdfrwt>
<totfact> 0.12112662E+01</totfact>
</mgrwt>
</event>
<event>
 4    1  0.2202466E-008  0.1525443E+04  0.7818608E-02  0.8867708E-01
         -2   -1    0    0    0  501 -0.00000000000E+00  0.00000000000E+00  0.11252871239E+04  0.11252871239E+04  0.25500000000E-02 0.  1.
          2   -1    0    0  501    0  0.00000000000E+00 -0.00000000000E+00 -0.25210108926E+04  0.25210108926E+04  0.25500000000E-02 0. -1.
    8880022    1    1    2    0    0 -0.58424604483E+03 -0.14008002015E+04 -0.14707901006E+04  0.21190091596E+04  0.15294330000E+03 0.  0.
    8880022    1    1    2    0    0  0.58424604483E+03  0.14008002015E+04  0.75066331948E+02  0.15272888570E+04  0.15294330000E+03 0.  0.
<mgrwt>
<rscale>  0 0.15254430E+04</rscale>
<asrwt>0</asrwt>
<pdfrwt beam="1">  1        2 0.38784783E+00 0.15254430E+04</pdfrwt>
<pdfrwt beam="2">  1       -2 0.17312110E+00 0.15254430E+04</pdfrwt>
<totfact> 0.64412169E-01</totfact>
</mgrwt>
</event>
<event>
 4    1  0.2202466E-008  0.2646895E+03  0.7818608E-02  0.1104358E+00
         -2   -1    0    0    0  501 -0.00000000000E+00  0.00000000000E+00  0.11825398819E+03  0.11825398821E+03  0.25500000000E-02 0.  1.
          2   -1    0    0  501    0  0.00000000000E+00 -0.00000000000E+00 -0.18154347502E+04  0.18154347502E+04  0.25500000000E-02 0. -1.
    8880022    1    1    2    0    0 -0.14116116333E+03 -0.16353108734E+03 -0.16421422470E+04  0.16633375192E+04  0.15294330000E+03 0.  0.
    8880022    1    1    2    0    0  0.14116116333E+03  0.16353108734E+03 -0.55038515021E+02  0.27035121917E+03  0.15294330000E+03 0.  0.
<mgrwt>
<rscale>  0 0.26468952E+03</rscale>
<asrwt>0</asrwt>
<pdfrwt beam="1">  1        2 0.27929763E+00 0.26468952E+03</pdfrwt>
<pdfrwt beam="2">  1       -2 0.18192923E-01 0.26468952E+03</pdfrwt>
<totfact> 0.23143300E+02</totfact>
</mgrwt>
</event>
<event>
 4    1  0.2202466E-008  0.4687902E+03  0.7818608E-02  0.1022262E+00
         -2   -1    0    0    0  501 -0.00000000000E+00  0.00000000000E+00  0.12421985209E+04  0.12421985209E+04  0.25500000000E-02 0.  1.
          2   -1    0    0  501    0  0.00000000000E+00 -0.00000000000E+00 -0.12859697875E+04  0.12859697875E+04  0.25500000000E-02 0. -1.
    8880022    1    1    2    0    0 -0.40342267026E+03  0.18336504082E+03 -0.11958015637E+04  0.12844086662E+04  0.15294330000E+03 0.  0.
    8880022    1    1    2    0    0  0.40342267026E+03 -0.18336504082E+03  0.11520302971E+04  0.12437596422E+04  0.15294330000E+03 0.  0.
<mgrwt>
<rscale>  0 0.46879019E+03</rscale>
<asrwt>0</asrwt>
<pdfrwt beam="1">  1        2 0.19784151E+00 0.46879019E+03</pdfrwt>
<pdfrwt beam="2">  1       -2 0.19110746E+00 0.46879019E+03</pdfrwt>
<totfact> 0.27932986E+00</totfact>
</mgrwt>
</event>
<event>
 4    1  0.2202466E-008  0.1441567E+04  0.7818608E-02  0.8924268E-01
          2   -1    0    0  501    0  0.00000000000E+00  0.00000000000E+00  0.30446437539E+04  0.30446437539E+04  0.25500000000E-02 0. -1.
         -2   -1    0    0    0  501 -0.00000000000E+00 -0.00000000000E+00 -0.15894861390E+04  0.15894861390E+04  0.25500000000E-02 0.  1.
    8880022    1    1    2    0    0  0.76339390040E+03 -0.12132406323E+04 -0.10226657186E+04  0.17674727449E+04  0.15294330000E+03 0.  0.
    8880022    1    1    2    0    0 -0.76339390040E+03  0.12132406323E+04  0.24778233335E+04  0.28666571479E+04  0.15294330000E+03 0.  0.
<mgrwt>
<rscale>  0 0.14415668E+04</rscale>
<asrwt>0</asrwt>
<pdfrwt beam="1">  1        2 0.46840672E+00 0.14415668E+04</pdfrwt>
<pdfrwt beam="2">  1       -2 0.24453633E+00 0.14415668E+04</pdfrwt>
<totfact> 0.10752670E-01</totfact>
</mgrwt>
</event>
<event>
 4    1  0.2202466E-008  0.5119566E+03  0.7818608E-02  0.1010704E+00
          2   -1    0    0  501    0  0.00000000000E+00  0.00000000000E+00  0.96625040145E+03  0.96625040145E+03  0.25500000000E-02 0. -1.
         -2   -1    0    0    0  501 -0.00000000000E+00 -0.00000000000E+00 -0.83392986357E+03  0.83392986358E+03  0.25500000000E-02 0.  1.
    8880022    1    1    2    0    0  0.44502253019E+03 -0.20165020873E+03  0.80551063180E+03  0.95443537760E+03  0.15294330000E+03 0.  0.
    8880022    1    1    2    0    0 -0.44502253019E+03  0.20165020873E+03 -0.67319009392E+03  0.84574488744E+03  0.15294330000E+03 0.  0.
<mgrwt>
<rscale>  0 0.51195655E+03</rscale>
<asrwt>0</asrwt>
<pdfrwt beam="1">  1        2 0.14865391E+00 0.51195655E+03</pdfrwt>
<pdfrwt beam="2">  1       -2 0.12829690E+00 0.51195655E+03</pdfrwt>
<totfact> 0.12498955E+01</totfact>
</mgrwt>
</event>
<event>
 4    1  0.2202466E-008  0.5373572E+03  0.7818608E-02  0.1004463E+00
          2   -1    0    0  501    0  0.00000000000E+00  0.00000000000E+00  0.14647000058E+04  0.14647000058E+04  0.25500000000E-02 0. -1.
         -2   -1    0    0    0  501 -0.00000000000E+00 -0.00000000000E+00 -0.34524917304E+03  0.34524917305E+03  0.25500000000E-02 0.  1.
    8880022    1    1    2    0    0  0.50188904433E+03 -0.11605363323E+03 -0.33007827679E+02  0.53836997345E+03  0.15294330000E+03 0.  0.
    8880022    1    1    2    0    0 -0.50188904433E+03  0.11605363323E+03  0.11524586605E+04  0.12715792054E+04  0.15294330000E+03 0.  0.
<mgrwt>
<rscale>  0 0.53735715E+03</rscale>
<asrwt>0</asrwt>
<pdfrwt beam="1">  1        2 0.22533846E+00 0.53735715E+03</pdfrwt>
<pdfrwt beam="2">  1       -2 0.53115258E-01 0.53735715E+03</pdfrwt>
<totfact> 0.46596268E+01</totfact>
</mgrwt>
</event>
<event>
 4    1  0.2202466E-008  0.5169072E+03  0.7818608E-02  0.1009458E+00
          2   -1    0    0  501    0  0.00000000000E+00  0.00000000000E+00  0.60809849554E+03  0.60809849554E+03  0.25500000000E-02 0. -1.
         -2   -1    0    0    0  501 -0.00000000000E+00 -0.00000000000E+00 -0.10274496069E+04  0.10274496069E+04  0.25500000000E-02 0.  1.
    8880022    1    1    2    0    0 -0.54898834138E+01  0.49373199722E+03 -0.82835163268E+03  0.97640130289E+03  0.15294330000E+03 0.  0.
    8880022    1    1    2    0    0  0.54898834138E+01 -0.49373199722E+03  0.40900052133E+03  0.65914679955E+03  0.15294330000E+03 0. -1.
<mgrwt>
<rscale>  0 0.51690722E+03</rscale>
<asrwt>0</asrwt>
<pdfrwt beam="1">  1        2 0.93553615E-01 0.51690722E+03</pdfrwt>
<pdfrwt beam="2">  1       -2 0.15806917E+00 0.51690722E+03</pdfrwt>
<totfact> 0.13265500E+01</totfact>
</mgrwt>
</event>
<event>
 4    1  0.2202466E-008  0.5993173E+03  0.7818608E-02  0.9906823E-01
          2   -1    0    0  501    0  0.00000000000E+00  0.00000000000E+00  0.13152807108E+04  0.13152807108E+04  0.25500000000E-02 0. -1.
         -2   -1    0    0    0  501 -0.00000000000E+00 -0.00000000000E+00 -0.92830055439E+03  0.92830055440E+03  0.25500000000E-02 0.  1.
    8880022    1    1    2    0    0 -0.57797098501E+03 -0.41702606391E+02  0.11359440765E+04  0.12843481478E+04  0.15294330000E+03 0.  0.
    8880022    1    1    2    0    0  0.57797098501E+03  0.41702606391E+02 -0.74896392007E+03  0.95923311738E+03  0.15294330000E+03 0.  0.
<mgrwt>
<rscale>  0 0.59931729E+03</rscale>
<asrwt>0</asrwt>
<pdfrwt beam="1">  1        2 0.20235088E+00 0.59931729E+03</pdfrwt>
<pdfrwt beam="2">  1       -2 0.14281547E+00 0.59931729E+03</pdfrwt>
<totfact> 0.57854411E+00</totfact>
</mgrwt>
</event>
<event>
 4    1  0.2202466E-008  0.6092004E+03  0.7818608E-02  0.9886500E-01
          2   -1    0    0  501    0  0.00000000000E+00  0.00000000000E+00  0.92702710613E+03  0.92702710613E+03  0.25500000000E-02 0. -1.
         -2   -1    0    0    0  501 -0.00000000000E+00 -0.00000000000E+00 -0.57110620828E+03  0.57110620828E+03  0.25500000000E-02 0.  1.
    8880022    1    1    2    0    0  0.53465102413E+03 -0.24876045693E+03  0.58756448020E+03  0.84637884776E+03  0.15294330000E+03 0.  0.
    8880022    1    1    2    0    0 -0.53465102413E+03  0.24876045693E+03 -0.23164358235E+03  0.65175446665E+03  0.15294330000E+03 0.  0.
<mgrwt>
<rscale>  0 0.60920041E+03</rscale>
<asrwt>0</asrwt>
<pdfrwt beam="1">  1        2 0.14261955E+00 0.60920041E+03</pdfrwt>
<pdfrwt beam="2">  1       -2 0.87862495E-01 0.60920041E+03</pdfrwt>
<totfact> 0.32353637E+01</totfact>
</mgrwt>
</event>
<event>
 4    1  0.2202466E-008  0.6232637E+03  0.7818608E-02  0.9858283E-01
         -2   -1    0    0    0  501 -0.00000000000E+00  0.00000000000E+00  0.42768068912E+03  0.42768068913E+03  0.25500000000E-02 0.  1.
          2   -1    0    0  501    0  0.00000000000E+00 -0.00000000000E+00 -0.22971917427E+04  0.22971917427E+04  0.25500000000E-02 0. -1.
    8880022    1    1    2    0    0 -0.16408717279E+03  0.58149921162E+03 -0.19941397545E+04  0.20892704341E+04  0.15294330000E+03 0.  0.
    8880022    1    1    2    0    0  0.16408717279E+03 -0.58149921162E+03  0.12462870092E+03  0.63560199771E+03  0.15294330000E+03 0.  0.
<mgrwt>
<rscale>  0 0.62326366E+03</rscale>
<asrwt>0</asrwt>
<pdfrwt beam="1">  1        2 0.35341411E+00 0.62326366E+03</pdfrwt>
<pdfrwt beam="2">  1       -2 0.65797030E-01 0.62326366E+03</pdfrwt>
<totfact> 0.10320505E+01</totfact>
</mgrwt>
</event>
<event>
 4    1  0.2202466E-008  0.7608982E+03  0.7818608E-02  0.9618406E-01
          2   -1    0    0  501    0  0.00000000000E+00  0.00000000000E+00  0.20192188802E+04  0.20192188802E+04  0.25500000000E-02 0. -1.
         -2   -1    0    0    0  501 -0.00000000000E+00 -0.00000000000E+00 -0.66148707166E+03  0.66148707167E+03  0.25500000000E-02 0.  1.
    8880022    1    1    2    0    0  0.65802907441E+03  0.35010299211E+03  0.16877348253E+04  0.18513278644E+04  0.15294330000E+03 0.  0.
    8880022    1    1    2    0    0 -0.65802907441E+03 -0.35010299211E+03 -0.33000301680E+03  0.82937808746E+03  0.15294330000E+03 0.  0.
<mgrwt>
<rscale>  0 0.76089817E+03</rscale>
<asrwt>0</asrwt>
<pdfrwt beam="1">  1        2 0.31064906E+00 0.76089817E+03</pdfrwt>
<pdfrwt beam="2">  1       -2 0.10176724E+00 0.76089817E+03</pdfrwt>
<totfact> 0.53434167E+00</totfact>
</mgrwt>
</event>
<event>
 4    1  0.2202466E-008  0.1630719E+04  0.7818608E-02  0.8801895E-01
          2   -1    0    0  501    0  0.00000000000E+00  0.00000000000E+00  0.31420091042E+04  0.31420091042E+04  0.25500000000E-02 0. -1.
         -2   -1    0    0    0  501 -0.00000000000E+00 -0.00000000000E+00 -0.10764452802E+04  0.10764452802E+04  0.25500000000E-02 0.  1.
    8880022    1    1    2    0    0  0.79073601596E+03 -0.14179521980E+04  0.20079511599E+04  0.25867182677E+04  0.15294330000E+03 0.  0.
    8880022    1    1    2    0    0 -0.79073601596E+03  0.14179521980E+04  0.57612663991E+02  0.16317361167E+04  0.15294330000E+03 0.  0.
<mgrwt>
<rscale>  0 0.16307187E+04</rscale>
<asrwt>0</asrwt>
<pdfrwt beam="1">  1        2 0.48338601E+00 0.16307187E+04</pdfrwt>
<pdfrwt beam="2">  1       -2 0.16560697E+00 0.16307187E+04</pdfrwt>
<totfact> 0.30236656E-01</totfact>
</mgrwt>
</event>
<event>
 4    1  0.2202466E-008  0.5210114E+03  0.7818608E-02  0.1008436E+00
          2   -1    0    0  501    0  0.00000000000E+00  0.00000000000E+00  0.30630651383E+04  0.30630651383E+04  0.25500000000E-02 0. -1.
         -2   -1    0    0    0  501 -0.00000000000E+00 -0.00000000000E+00 -0.11709165750E+03  0.11709165752E+03  0.25500000000E-02 0.  1.
    8880022    1    1    2    0    0 -0.14560247507E+03  0.47629946254E+03  0.68892226197E+03  0.86375158166E+03  0.15294330000E+03 0.  0.
    8880022    1    1    2    0    0  0.14560247507E+03 -0.47629946254E+03  0.22570512188E+04  0.23164052142E+04  0.15294330000E+03 0.  0.
<mgrwt>
<rscale>  0 0.52101143E+03</rscale>
<asrwt>0</asrwt>
<pdfrwt beam="1">  1        2 0.47124083E+00 0.52101143E+03</pdfrwt>
<pdfrwt beam="2">  1       -2 0.18014100E-01 0.52101143E+03</pdfrwt>
<totfact> 0.44855873E+01</totfact>
</mgrwt>
</event>
<event>
 4    1  0.2202466E-008  0.5260251E+03  0.7818608E-02  0.1007201E+00
          2   -1    0    0  501    0  0.00000000000E+00  0.00000000000E+00  0.17168141102E+04  0.17168141102E+04  0.25500000000E-02 0. -1.
         -2   -1    0    0    0  501 -0.00000000000E+00 -0.00000000000E+00 -0.20253672611E+03  0.20253672613E+03  0.25500000000E-02 0.  1.
    8880022    1    1    2    0    0  0.12488228616E+02 -0.50314486427E+03  0.11908368283E+04  0.13018428150E+04  0.15294330000E+03 0.  0.
    8880022    1    1    2    0    0 -0.12488228616E+02  0.50314486427E+03  0.32344055584E+03  0.61750802138E+03  0.15294330000E+03 0.  0.
<mgrwt>
<rscale>  0 0.52602506E+03</rscale>
<asrwt>0</asrwt>
<pdfrwt beam="1">  1        2 0.26412525E+00 0.52602506E+03</pdfrwt>
<pdfrwt beam="2">  1       -2 0.31159496E-01 0.52602506E+03</pdfrwt>
<totfact> 0.96117232E+01</totfact>
</mgrwt>
</event>
<event>
 4    1  0.2202466E-008  0.6164173E+03  0.7818608E-02  0.9871919E-01
          2   -1    0    0  501    0  0.00000000000E+00  0.00000000000E+00  0.24612046146E+04  0.24612046146E+04  0.25500000000E-02 0. -1.
         -2   -1    0    0    0  501 -0.00000000000E+00 -0.00000000000E+00 -0.43270758554E+03  0.43270758555E+03  0.25500000000E-02 0.  1.
    8880022    1    1    2    0    0  0.58974622308E+03  0.93690837418E+02 -0.14621963808E+03  0.63352223026E+03  0.15294330000E+03 0.  0.
    8880022    1    1    2    0    0 -0.58974622308E+03 -0.93690837418E+02  0.21747166671E+04  0.22603899699E+04  0.15294330000E+03 0.  0.
<mgrwt>
<rscale>  0 0.61641726E+03</rscale>
<asrwt>0</asrwt>
<pdfrwt beam="1">  1        2 0.37864686E+00 0.61641726E+03</pdfrwt>
<pdfrwt beam="2">  1       -2 0.66570398E-01 0.61641726E+03</pdfrwt>
<totfact> 0.81683526E+00</totfact>
</mgrwt>
</event>
<event>
 4    1  0.2202466E-008  0.9486258E+03  0.7818608E-02  0.9366758E-01
         -2   -1    0    0    0  501 -0.00000000000E+00  0.00000000000E+00  0.51945954420E+03  0.51945954420E+03  0.25500000000E-02 0.  1.
          2   -1    0    0  501    0  0.00000000000E+00 -0.00000000000E+00 -0.19380460182E+04  0.19380460182E+04  0.25500000000E-02 0. -1.
    8880022    1    1    2    0    0  0.84725608341E+03 -0.39831697530E+03 -0.30899391423E+03  0.99768139992E+03  0.15294330000E+03 0.  0.
    8880022    1    1    2    0    0 -0.84725608341E+03  0.39831697530E+03 -0.11095925598E+04  0.14598241625E+04  0.15294330000E+03 0.  0.
<mgrwt>
<rscale>  0 0.94862581E+03</rscale>
<asrwt>0</asrwt>
<pdfrwt beam="1">  1        2 0.29816092E+00 0.94862581E+03</pdfrwt>
<pdfrwt beam="2">  1       -2 0.79916854E-01 0.94862581E+03</pdfrwt>
<totfact> 0.10093796E+01</totfact>
</mgrwt>
</event>
<event>
 4    1  0.2202466E-008  0.1392733E+04  0.7818608E-02  0.8959096E-01
          2   -1    0    0  501    0  0.00000000000E+00  0.00000000000E+00  0.38695359811E+04  0.38695359811E+04  0.25500000000E-02 0. -1.
         -2   -1    0    0    0  501 -0.00000000000E+00 -0.00000000000E+00 -0.10442021571E+04  0.10442021571E+04  0.25500000000E-02 0.  1.
    8880022    1    1    2    0    0 -0.72418232450E+03 -0.11797766272E+04 -0.35891076531E+03  0.14382355578E+04  0.15294330000E+03 0.  0.
    8880022    1    1    2    0    0  0.72418232450E+03  0.11797766272E+04  0.31842445892E+04  0.34755025804E+04  0.15294330000E+03 0.  0.
<mgrwt>
<rscale>  0 0.13927328E+04</rscale>
<asrwt>0</asrwt>
<pdfrwt beam="1">  1        2 0.59531322E+00 0.13927328E+04</pdfrwt>
<pdfrwt beam="2">  1       -2 0.16064649E+00 0.13927328E+04</pdfrwt>
<totfact> 0.10519215E-01</totfact>
</mgrwt>
</event>
<event>
 4    1  0.2202466E-008  0.7729126E+03  0.7818608E-02  0.9600074E-01
         -2   -1    0    0    0  501 -0.00000000000E+00  0.00000000000E+00  0.10815402004E+04  0.10815402004E+04  0.25500000000E-02 0.  1.
          2   -1    0    0  501    0  0.00000000000E+00 -0.00000000000E+00 -0.87572486885E+03  0.87572486885E+03  0.25500000000E-02 0. -1.
    8880022    1    1    2    0    0  0.41266122863E+03 -0.63538409073E+03  0.69759096201E+03  0.10411661902E+04  0.15294330000E+03 0.  0.
    8880022    1    1    2    0    0 -0.41266122863E+03  0.63538409073E+03 -0.49177563048E+03  0.91609887901E+03  0.15294330000E+03 0.  0.
<mgrwt>
<rscale>  0 0.77291260E+03</rscale>
<asrwt>0</asrwt>
<pdfrwt beam="1">  1        2 0.13472690E+00 0.77291260E+03</pdfrwt>
<pdfrwt beam="2">  1       -2 0.16639080E+00 0.77291260E+03</pdfrwt>
<totfact> 0.69979421E+00</totfact>
</mgrwt>
</event>
<event>
 4    1  0.2202466E-008  0.7471565E+03  0.7818608E-02  0.9639822E-01
         -2   -1    0    0    0  501 -0.00000000000E+00  0.00000000000E+00  0.15224106576E+04  0.15224106576E+04  0.25500000000E-02 0.  1.
          2   -1    0    0  501    0  0.00000000000E+00 -0.00000000000E+00 -0.71923834438E+03  0.71923834439E+03  0.25500000000E-02 0. -1.
    8880022    1    1    2    0    0 -0.12623769967E+03 -0.72035775749E+03  0.11863058045E+04  0.14019858667E+04  0.15294330000E+03 0.  0.
    8880022    1    1    2    0    0  0.12623769967E+03  0.72035775749E+03 -0.38313349130E+03  0.83966313529E+03  0.15294330000E+03 0.  0.
<mgrwt>
<rscale>  0 0.74715655E+03</rscale>
<asrwt>0</asrwt>
<pdfrwt beam="1">  1        2 0.11065205E+00 0.74715655E+03</pdfrwt>
<pdfrwt beam="2">  1       -2 0.23421702E+00 0.74715655E+03</pdfrwt>
<totfact> 0.32738348E+00</totfact>
</mgrwt>
</event>
<event>
 4    1  0.2202466E-008  0.1695356E+03  0.7818608E-02  0.1178333E+00
         -2   -1    0    0    0  501 -0.00000000000E+00  0.00000000000E+00  0.50245731592E+03  0.50245731593E+03  0.25500000000E-02 0.  1.
          2   -1    0    0  501    0  0.00000000000E+00 -0.00000000000E+00 -0.77581716011E+03  0.77581716012E+03  0.25500000000E-02 0. -1.
    8880022    1    1    2    0    0 -0.73138564069E+02 -0.11927167461E+01  0.47844335301E+03  0.50759271782E+03  0.15294330000E+03 0.  1.
    8880022    1    1    2    0    0  0.73138564069E+02  0.11927167461E+01 -0.75180319720E+03  0.77068175823E+03  0.15294330000E+03 0.  0.
<mgrwt>
<rscale>  0 0.16953562E+03</rscale>
<asrwt>0</asrwt>
<pdfrwt beam="1">  1        2 0.11935649E+00 0.16953562E+03</pdfrwt>
<pdfrwt beam="2">  1       -2 0.77301125E-01 0.16953562E+03</pdfrwt>
<totfact> 0.58992809E+01</totfact>
</mgrwt>
</event>
<event>
 4    1  0.2202466E-008  0.7595995E+03  0.7818608E-02  0.9620409E-01
         -2   -1    0    0    0  501 -0.00000000000E+00  0.00000000000E+00  0.10834151894E+04  0.10834151894E+04  0.25500000000E-02 0.  1.
          2   -1    0    0  501    0  0.00000000000E+00 -0.00000000000E+00 -0.11412445319E+04  0.11412445319E+04  0.25500000000E-02 0. -1.
    8880022    1    1    2    0    0  0.45666970958E+03 -0.58741171323E+03 -0.84125460676E+03  0.11334463864E+04  0.15294330000E+03 0.  0.
    8880022    1    1    2    0    0 -0.45666970958E+03  0.58741171323E+03  0.78342526428E+03  0.10912133349E+04  0.15294330000E+03 0.  0.
<mgrwt>
<rscale>  0 0.75959950E+03</rscale>
<asrwt>0</asrwt>
<pdfrwt beam="1">  1        2 0.17557608E+00 0.75959950E+03</pdfrwt>
<pdfrwt beam="2">  1       -2 0.16667926E+00 0.75959950E+03</pdfrwt>
<totfact> 0.47218953E+00</totfact>
</mgrwt>
</event>
<event>
 4    1  0.2202466E-008  0.1678956E+04  0.7818608E-02  0.8773459E-01
         -2   -1    0    0    0  501 -0.00000000000E+00  0.00000000000E+00  0.21326742153E+04  0.21326742153E+04  0.25500000000E-02 0.  1.
          2   -1    0    0  501    0  0.00000000000E+00 -0.00000000000E+00 -0.21055637300E+04  0.21055637300E+04  0.25500000000E-02 0. -1.
    8880022    1    1    2    0    0  0.11851692187E+03  0.16677692965E+04  0.13064812014E+04  0.21273893555E+04  0.15294330000E+03 0.  0.
    8880022    1    1    2    0    0 -0.11851692187E+03 -0.16677692965E+04 -0.12793707161E+04  0.21108485899E+04  0.15294330000E+03 0.  0.
<mgrwt>
<rscale>  0 0.16789557E+04</rscale>
<asrwt>0</asrwt>
<pdfrwt beam="1">  1        2 0.32393288E+00 0.16789557E+04</pdfrwt>
<pdfrwt beam="2">  1       -2 0.32810373E+00 0.16789557E+04</pdfrwt>
<totfact> 0.11429403E-01</totfact>
</mgrwt>
</event>
<event>
 4    1  0.2202466E-008  0.9811108E+03  0.7818608E-02  0.9329508E-01
          2   -1    0    0  501    0  0.00000000000E+00  0.00000000000E+00  0.48817751807E+03  0.48817751808E+03  0.25500000000E-02 0. -1.
         -2   -1    0    0    0  501 -0.00000000000E+00 -0.00000000000E+00 -0.20083264677E+04  0.20083264677E+04  0.25500000000E-02 0.  1.
    8880022    1    1    2    0    0 -0.91109619771E+03 -0.33028831722E+03 -0.59168606613E+03  0.11457184243E+04  0.15294330000E+03 0.  0.
    8880022    1    1    2    0    0  0.91109619771E+03  0.33028831722E+03 -0.92846288349E+03  0.13507855614E+04  0.15294330000E+03 0.  0.
<mgrwt>
<rscale>  0 0.98111075E+03</rscale>
<asrwt>0</asrwt>
<pdfrwt beam="1">  1        2 0.75104235E-01 0.98111075E+03</pdfrwt>
<pdfrwt beam="2">  1       -2 0.30897330E+00 0.98111075E+03</pdfrwt>
<totfact> 0.17921759E+00</totfact>
</mgrwt>
</event>
<event>
 4    1  0.2202466E-008  0.7618636E+03  0.7818608E-02  0.9616920E-01
          2   -1    0    0  501    0  0.00000000000E+00  0.00000000000E+00  0.25212414366E+04  0.25212414366E+04  0.25500000000E-02 0. -1.
         -2   -1    0    0    0  501 -0.00000000000E+00 -0.00000000000E+00 -0.34309922587E+03  0.34309922588E+03  0.25500000000E-02 0.  1.
    8880022    1    1    2    0    0 -0.28426609030E+03 -0.69009949192E+03  0.19105471265E+04  0.20568486805E+04  0.15294330000E+03 0.  0.
    8880022    1    1    2    0    0  0.28426609030E+03  0.69009949192E+03  0.26759508420E+03  0.80749198197E+03  0.15294330000E+03 0.  0.
<mgrwt>
<rscale>  0 0.76186362E+03</rscale>
<asrwt>0</asrwt>
<pdfrwt beam="1">  1        2 0.38788330E+00 0.76186362E+03</pdfrwt>
<pdfrwt beam="2">  1       -2 0.52784496E-01 0.76186362E+03</pdfrwt>
<totfact> 0.11988814E+01</totfact>
</mgrwt>
</event>
<event>
 4    1  0.2965311E-008  0.1552676E+04  0.7818608E-02  0.8850161E-01
         -2   -1    0    0    0  501 -0.00000000000E+00  0.00000000000E+00  0.23330670531E+04  0.23330670531E+04  0.25500000000E-02 0.  1.
          2   -1    0    0  501    0  0.00000000000E+00 -0.00000000000E+00 -0.16571796359E+04  0.16571796359E+04  0.25500000000E-02 0. -1.
    8880022    1    1    2    0    0  0.13071282740E+03 -0.15395856617E+04 -0.88619011664E+03  0.17877735955E+04  0.15294330000E+03 0.  0.
    8880022    1    1    2    0    0 -0.13071282740E+03  0.15395856617E+04  0.15620775338E+04  0.22024730935E+04  0.15294330000E+03 0.  0.
<mgrwt>
<rscale>  0 0.15526756E+04</rscale>
<asrwt>0</asrwt>
<pdfrwt beam="1">  1        2 0.25495071E+00 0.15526756E+04</pdfrwt>
<pdfrwt beam="2">  1       -2 0.35893339E+00 0.15526756E+04</pdfrwt>
<totfact> 0.13233948E-01</totfact>
</mgrwt>
</event>
<event>
 4    1  0.2202466E-008  0.1018214E+04  0.7818608E-02  0.9288790E-01
         -2   -1    0    0    0  501 -0.00000000000E+00  0.00000000000E+00  0.81528555247E+03  0.81528555248E+03  0.25500000000E-02 0.  1.
          2   -1    0    0  501    0  0.00000000000E+00 -0.00000000000E+00 -0.20857752133E+04  0.20857752133E+04  0.25500000000E-02 0. -1.
    8880022    1    1    2    0    0  0.53947312009E+03 -0.84990459638E+03  0.27098373776E+03  0.10536569221E+04  0.15294330000E+03 0.  0.
    8880022    1    1    2    0    0 -0.53947312009E+03  0.84990459638E+03 -0.15414733986E+04  0.18474038437E+04  0.15294330000E+03 0.  0.
<mgrwt>
<rscale>  0 0.10182145E+04</rscale>
<asrwt>0</asrwt>
<pdfrwt beam="1">  1        2 0.32088849E+00 0.10182145E+04</pdfrwt>
<pdfrwt beam="2">  1       -2 0.12542855E+00 0.10182145E+04</pdfrwt>
<totfact> 0.28377378E+00</totfact>
</mgrwt>
</event>
<event>
 4    1  0.2202466E-008  0.8697511E+03  0.7818608E-02  0.9464205E-01
          2   -1    0    0  501    0  0.00000000000E+00  0.00000000000E+00  0.95687337893E+03  0.95687337894E+03  0.25500000000E-02 0. -1.
         -2   -1    0    0    0  501 -0.00000000000E+00 -0.00000000000E+00 -0.10532463006E+04  0.10532463006E+04  0.25500000000E-02 0.  1.
    8880022    1    1    2    0    0 -0.83321729706E+03  0.19703855632E+03 -0.55011826849E+03  0.10291243944E+04  0.15294330000E+03 0.  0.
    8880022    1    1    2    0    0  0.83321729706E+03 -0.19703855632E+03  0.45374534679E+03  0.98099528518E+03  0.15294330000E+03 0.  0.
<mgrwt>
<rscale>  0 0.86975106E+03</rscale>
<asrwt>0</asrwt>
<pdfrwt beam="1">  1        2 0.14721129E+00 0.86975106E+03</pdfrwt>
<pdfrwt beam="2">  1       -2 0.16203789E+00 0.86975106E+03</pdfrwt>
<totfact> 0.65673751E+00</totfact>
</mgrwt>
</event>
<event>
 4    1  0.2202466E-008  0.4650182E+03  0.7818608E-02  0.1023336E+00
          2   -1    0    0  501    0  0.00000000000E+00  0.00000000000E+00  0.14993758899E+04  0.14993758899E+04  0.25500000000E-02 0. -1.
         -2   -1    0    0    0  501 -0.00000000000E+00 -0.00000000000E+00 -0.55998156476E+03  0.55998156477E+03  0.25500000000E-02 0.  1.
    8880022    1    1    2    0    0  0.43895236300E+03  0.13078984686E+02  0.13569274998E+04  0.14343967825E+04  0.15294330000E+03 0. -1.
    8880022    1    1    2    0    0 -0.43895236300E+03 -0.13078984686E+02 -0.41753317468E+03  0.62496067219E+03  0.15294330000E+03 0.  0.
<mgrwt>
<rscale>  0 0.46501816E+03</rscale>
<asrwt>0</asrwt>
<pdfrwt beam="1">  1        2 0.23067322E+00 0.46501816E+03</pdfrwt>
<pdfrwt beam="2">  1       -2 0.86151008E-01 0.46501816E+03</pdfrwt>
<totfact> 0.15921987E+01</totfact>
</mgrwt>
</event>
<event>
 4    1  0.2202466E-008  0.8970678E+03  0.7818608E-02  0.9429254E-01
          2   -1    0    0  501    0  0.00000000000E+00  0.00000000000E+00  0.13528372253E+04  0.13528372253E+04  0.25500000000E-02 0. -1.
         -2   -1    0    0    0  501 -0.00000000000E+00 -0.00000000000E+00 -0.16957374298E+04  0.16957374298E+04  0.25500000000E-02 0.  1.
    8880022    1    1    2    0    0  0.85760894362E+03  0.21411647379E+03 -0.13996234365E+04  0.16624308652E+04  0.15294330000E+03 0.  0.
    8880022    1    1    2    0    0 -0.85760894362E+03 -0.21411647379E+03  0.10567232319E+04  0.13861437900E+04  0.15294330000E+03 0.  0.
<mgrwt>
<rscale>  0 0.89706779E+03</rscale>
<asrwt>0</asrwt>
<pdfrwt beam="1">  1        2 0.20812880E+00 0.89706779E+03</pdfrwt>
<pdfrwt beam="2">  1       -2 0.26088268E+00 0.89706779E+03</pdfrwt>
<totfact> 0.86138613E-01</totfact>
</mgrwt>
</event>
<event>
 4    1  0.2202466E-008  0.6076849E+03  0.7818608E-02  0.9889589E-01
          2   -1    0    0  501    0  0.00000000000E+00  0.00000000000E+00  0.97743876818E+03  0.97743876818E+03  0.25500000000E-02 0. -1.
         -2   -1    0    0    0  501 -0.00000000000E+00 -0.00000000000E+00 -0.14339092706E+04  0.14339092706E+04  0.25500000000E-02 0.  1.
    8880022    1    1    2    0    0  0.12687559147E+03  0.57427506252E+03 -0.12629545200E+04  0.14015473719E+04  0.15294330000E+03 0.  0.
    8880022    1    1    2    0    0 -0.12687559147E+03 -0.57427506252E+03  0.80648401758E+03  0.10098006669E+04  0.15294330000E+03 0.  0.
<mgrwt>
<rscale>  0 0.60768488E+03</rscale>
<asrwt>0</asrwt>
<pdfrwt beam="1">  1        2 0.15037520E+00 0.60768488E+03</pdfrwt>
<pdfrwt beam="2">  1       -2 0.22060143E+00 0.60768488E+03</pdfrwt>
<totfact> 0.26879250E+00</totfact>
</mgrwt>
</event>
<event>
 4    1  0.2202466E-008  0.9171679E+03  0.7818608E-02  0.9404372E-01
         -2   -1    0    0    0  501 -0.00000000000E+00  0.00000000000E+00  0.94681021897E+03  0.94681021897E+03  0.25500000000E-02 0.  1.
          2   -1    0    0  501    0  0.00000000000E+00 -0.00000000000E+00 -0.15987800317E+04  0.15987800317E+04  0.25500000000E-02 0. -1.
    8880022    1    1    2    0    0  0.50816593126E+03 -0.74804587472E+03 -0.11743702349E+04  0.14900813220E+04  0.15294330000E+03 0.  0.
    8880022    1    1    2    0    0 -0.50816593126E+03  0.74804587472E+03  0.52240042222E+03  0.10555089287E+04  0.15294330000E+03 0.  0.
<mgrwt>
<rscale>  0 0.91716787E+03</rscale>
<asrwt>0</asrwt>
<pdfrwt beam="1">  1        2 0.24596616E+00 0.91716787E+03</pdfrwt>
<pdfrwt beam="2">  1       -2 0.14566311E+00 0.91716787E+03</pdfrwt>
<totfact> 0.36301768E+00</totfact>
</mgrwt>
</event>
<event>
 4    1  0.2202466E-008  0.1449418E+04  0.7818608E-02  0.8918804E-01
         -2   -1    0    0    0  501 -0.00000000000E+00  0.00000000000E+00  0.10267814487E+04  0.10267814487E+04  0.25500000000E-02 0.  1.
          2   -1    0    0  501    0  0.00000000000E+00 -0.00000000000E+00 -0.29628135855E+04  0.29628135855E+04  0.25500000000E-02 0. -1.
    8880022    1    1    2    0    0 -0.72193126733E+03  0.12474923303E+04  0.14162588160E+03  0.14563211913E+04  0.15294330000E+03 0.  0.
    8880022    1    1    2    0    0  0.72193126733E+03 -0.12474923303E+04 -0.20776580184E+04  0.25332738429E+04  0.15294330000E+03 0.  0.
<mgrwt>
<rscale>  0 0.14494183E+04</rscale>
<asrwt>0</asrwt>
<pdfrwt beam="1">  1        2 0.45581747E+00 0.14494183E+04</pdfrwt>
<pdfrwt beam="2">  1       -2 0.15796638E+00 0.14494183E+04</pdfrwt>
<totfact> 0.45610217E-01</totfact>
</mgrwt>
</event>
<event>
 4    1  0.2202466E-008  0.7750962E+03  0.7818608E-02  0.9596781E-01
         -2   -1    0    0    0  501 -0.00000000000E+00  0.00000000000E+00  0.80050471520E+03  0.80050471521E+03  0.25500000000E-02 0.  1.
          2   -1    0    0  501    0  0.00000000000E+00 -0.00000000000E+00 -0.25274068929E+04  0.25274068929E+04  0.25500000000E-02 0. -1.
    8880022    1    1    2    0    0 -0.59251780628E+03 -0.47571535790E+03 -0.22586536187E+04  0.23879468744E+04  0.15294330000E+03 0. -1.
    8880022    1    1    2    0    0  0.59251780628E+03  0.47571535790E+03  0.53175144106E+03  0.93996473369E+03  0.15294330000E+03 0.  0.
<mgrwt>
<rscale>  0 0.77509619E+03</rscale>
<asrwt>0</asrwt>
<pdfrwt beam="1">  1        2 0.38883183E+00 0.77509619E+03</pdfrwt>
<pdfrwt beam="2">  1       -2 0.12315457E+00 0.77509619E+03</pdfrwt>
<totfact> 0.17480821E+00</totfact>
</mgrwt>
</event>
<event>
 4    1  0.2202466E-008  0.7326259E+03  0.7818608E-02  0.9663009E-01
         -2   -1    0    0    0  501 -0.00000000000E+00  0.00000000000E+00  0.25614282033E+03  0.25614282034E+03  0.25500000000E-02 0.  1.
          2   -1    0    0  501    0  0.00000000000E+00 -0.00000000000E+00 -0.26116344382E+04  0.26116344382E+04  0.25500000000E-02 0. -1.
    8880022    1    1    2    0    0 -0.40627915093E+03  0.59015781788E+03 -0.54028787124E+03  0.91030304587E+03  0.15294330000E+03 0.  0.
    8880022    1    1    2    0    0  0.40627915093E+03 -0.59015781788E+03 -0.18152037467E+04  0.19574742127E+04  0.15294330000E+03 0.  0.
<mgrwt>
<rscale>  0 0.73262586E+03</rscale>
<asrwt>0</asrwt>
<pdfrwt beam="1">  1        2 0.40178990E+00 0.73262586E+03</pdfrwt>
<pdfrwt beam="2">  1       -2 0.39406590E-01 0.73262586E+03</pdfrwt>
<totfact> 0.19185710E+01</totfact>
</mgrwt>
</event>
<event>
 4    1  0.2202466E-008  0.3603385E+03  0.7818608E-02  0.1058450E+00
          2   -1    0    0  501    0  0.00000000000E+00  0.00000000000E+00  0.17059667796E+04  0.17059667796E+04  0.25500000000E-02 0. -1.
         -2   -1    0    0    0  501 -0.00000000000E+00 -0.00000000000E+00 -0.11395376790E+04  0.11395376790E+04  0.25500000000E-02 0.  1.
    8880022    1    1    2    0    0  0.29606843924E+03 -0.13709733237E+03  0.16576317590E+04  0.16963451597E+04  0.15294330000E+03 0.  0.
    8880022    1    1    2    0    0 -0.29606843924E+03  0.13709733237E+03 -0.10912026585E+04  0.11491592988E+04  0.15294330000E+03 0.  1.
<mgrwt>
<rscale>  0 0.36033852E+03</rscale>
<asrwt>0</asrwt>
<pdfrwt beam="1">  1        2 0.26245643E+00 0.36033852E+03</pdfrwt>
<pdfrwt beam="2">  1       -2 0.17531349E+00 0.36033852E+03</pdfrwt>
<totfact> 0.21741186E+00</totfact>
</mgrwt>
</event>
<event>
 4    1  0.2202466E-008  0.5912159E+03  0.7818608E-02  0.9923800E-01
         -2   -1    0    0    0  501 -0.00000000000E+00  0.00000000000E+00  0.71326416047E+03  0.71326416047E+03  0.25500000000E-02 0.  1.
          2   -1    0    0  501    0  0.00000000000E+00 -0.00000000000E+00 -0.11124123269E+04  0.11124123269E+04  0.25500000000E-02 0. -1.
    8880022    1    1    2    0    0 -0.10383708690E+03  0.56157135959E+03 -0.88235605928E+03  0.10621150601E+04  0.15294330000E+03 0. -1.
    8880022    1    1    2    0    0  0.10383708690E+03 -0.56157135959E+03  0.48320789284E+03  0.76356142729E+03  0.15294330000E+03 0.  0.
<mgrwt>
<rscale>  0 0.59121585E+03</rscale>
<asrwt>0</asrwt>
<pdfrwt beam="1">  1        2 0.17114036E+00 0.59121585E+03</pdfrwt>
<pdfrwt beam="2">  1       -2 0.10973295E+00 0.59121585E+03</pdfrwt>
<totfact> 0.14705186E+01</totfact>
</mgrwt>
</event>
<event>
 4    1  0.2202466E-008  0.1601381E+04  0.7818608E-02  0.8819700E-01
         -2   -1    0    0    0  501 -0.00000000000E+00  0.00000000000E+00  0.17928541483E+04  0.17928541483E+04  0.25500000000E-02 0.  1.
          2   -1    0    0  501    0  0.00000000000E+00 -0.00000000000E+00 -0.28209856317E+04  0.28209856317E+04  0.25500000000E-02 0. -1.
    8880022    1    1    2    0    0 -0.15936333763E+04 -0.36909620305E+02  0.11056457916E+04  0.19459891900E+04  0.15294330000E+03 0.  0.
    8880022    1    1    2    0    0  0.15936333763E+04  0.36909620305E+02 -0.21337772751E+04  0.26678505900E+04  0.15294330000E+03 0.  0.
<mgrwt>
<rscale>  0 0.16013811E+04</rscale>
<asrwt>0</asrwt>
<pdfrwt beam="1">  1        2 0.43399779E+00 0.16013811E+04</pdfrwt>
<pdfrwt beam="2">  1       -2 0.27582371E+00 0.16013811E+04</pdfrwt>
<totfact> 0.92968605E-02</totfact>
</mgrwt>
</event>
<event>
 4    1  0.2202466E-008  0.4254849E+03  0.7818608E-02  0.1035296E+00
         -2   -1    0    0    0  501 -0.00000000000E+00  0.00000000000E+00  0.21084331087E+03  0.21084331088E+03  0.25500000000E-02 0.  1.
          2   -1    0    0  501    0  0.00000000000E+00 -0.00000000000E+00 -0.13511399184E+04  0.13511399184E+04  0.25500000000E-02 0. -1.
    8880022    1    1    2    0    0 -0.51184596912E+02  0.39373324225E+03 -0.10416699434E+04  0.11252171581E+04  0.15294330000E+03 0.  0.
    8880022    1    1    2    0    0  0.51184596912E+02 -0.39373324225E+03 -0.98626664155E+02  0.43676607115E+03  0.15294330000E+03 0.  1.
<mgrwt>
<rscale>  0 0.42548488E+03</rscale>
<asrwt>0</asrwt>
<pdfrwt beam="1">  1        2 0.20786767E+00 0.42548488E+03</pdfrwt>
<pdfrwt beam="2">  1       -2 0.32437433E-01 0.42548488E+03</pdfrwt>
<totfact> 0.14337787E+02</totfact>
</mgrwt>
</event>
<event>
 4    1  0.2202466E-008  0.6268001E+03  0.7818608E-02  0.9851313E-01
         -2   -1    0    0    0  501 -0.00000000000E+00  0.00000000000E+00  0.13073490867E+03  0.13073490869E+03  0.25500000000E-02 0.  1.
          2   -1    0    0  501    0  0.00000000000E+00 -0.00000000000E+00 -0.31345724243E+04  0.31345724243E+04  0.25500000000E-02 0. -1.
    8880022    1    1    2    0    0 -0.26953491537E+03 -0.54482809369E+03 -0.18336642279E+04  0.19378345843E+04  0.15294330000E+03 0.  0.
    8880022    1    1    2    0    0  0.26953491537E+03  0.54482809369E+03 -0.11701732877E+04  0.13274727487E+04  0.15294330000E+03 0.  0.
<mgrwt>
<rscale>  0 0.62680011E+03</rscale>
<asrwt>0</asrwt>
<pdfrwt beam="1">  1        2 0.48224185E+00 0.62680011E+03</pdfrwt>
<pdfrwt beam="2">  1       -2 0.20113065E-01 0.62680011E+03</pdfrwt>
<totfact> 0.32762667E+01</totfact>
</mgrwt>
</event>
<event>
 4    1  0.2202466E-008  0.1099503E+04  0.7818608E-02  0.9205676E-01
         -2   -1    0    0    0  501 -0.00000000000E+00  0.00000000000E+00  0.16337837335E+04  0.16337837335E+04  0.25500000000E-02 0.  1.
          2   -1    0    0  501    0  0.00000000000E+00 -0.00000000000E+00 -0.94797373356E+03  0.94797373357E+03  0.25500000000E-02 0. -1.
    8880022    1    1    2    0    0 -0.61050951186E+03  0.90155076499E+03  0.94762001080E+03  0.14515133426E+04  0.15294330000E+03 0.  0.
    8880022    1    1    2    0    0  0.61050951186E+03 -0.90155076499E+03 -0.26181001091E+03  0.11302441244E+04  0.15294330000E+03 0.  0.
<mgrwt>
<rscale>  0 0.10995032E+04</rscale>
<asrwt>0</asrwt>
<pdfrwt beam="1">  1        2 0.14584211E+00 0.10995032E+04</pdfrwt>
<pdfrwt beam="2">  1       -2 0.25135134E+00 0.10995032E+04</pdfrwt>
<totfact> 0.16918888E+00</totfact>
</mgrwt>
</event>
<event>
 4    1  0.2202466E-008  0.5252233E+03  0.7818608E-02  0.1007397E+00
          2   -1    0    0  501    0  0.00000000000E+00  0.00000000000E+00  0.26153910512E+04  0.26153910512E+04  0.25500000000E-02 0. -1.
         -2   -1    0    0    0  501 -0.00000000000E+00 -0.00000000000E+00 -0.68180465651E+03  0.68180465652E+03  0.25500000000E-02 0.  1.
    8880022    1    1    2    0    0 -0.24048599117E+03 -0.44117379438E+03 -0.54893061171E+03  0.75972646281E+03  0.15294330000E+03 0.  0.
    8880022    1    1    2    0    0  0.24048599117E+03  0.44117379438E+03  0.24825170064E+04  0.25374692449E+04  0.15294330000E+03 0.  0.
<mgrwt>
<rscale>  0 0.52522327E+03</rscale>
<asrwt>0</asrwt>
<pdfrwt beam="1">  1        2 0.40236785E+00 0.52522327E+03</pdfrwt>
<pdfrwt beam="2">  1       -2 0.10489302E+00 0.52522327E+03</pdfrwt>
<totfact> 0.24426354E+00</totfact>
</mgrwt>
</event>
<event>
 4    1  0.2202466E-008  0.1052045E+04  0.7818608E-02  0.9253235E-01
         -2   -1    0    0    0  501 -0.00000000000E+00  0.00000000000E+00  0.14197361277E+04  0.14197361277E+04  0.25500000000E-02 0.  1.
          2   -1    0    0  501    0  0.00000000000E+00 -0.00000000000E+00 -0.87464905830E+03  0.87464905831E+03  0.25500000000E-02 0. -1.
    8880022    1    1    2    0    0  0.71199752772E+03  0.75925454831E+03 -0.10566929847E+03  0.10573389250E+04  0.15294330000E+03 0.  0.
    8880022    1    1    2    0    0 -0.71199752772E+03 -0.75925454831E+03  0.65075636787E+03  0.12370462610E+04  0.15294330000E+03 0.  0.
<mgrwt>
<rscale>  0 0.10520454E+04</rscale>
<asrwt>0</asrwt>
<pdfrwt beam="1">  1        2 0.13456139E+00 0.10520454E+04</pdfrwt>
<pdfrwt beam="2">  1       -2 0.21842094E+00 0.10520454E+04</pdfrwt>
<totfact> 0.30501602E+00</totfact>
</mgrwt>
</event>
<event>
 4    1  0.2202466E-008  0.9547746E+03  0.7818608E-02  0.9359587E-01
         -2   -1    0    0    0  501 -0.00000000000E+00  0.00000000000E+00  0.61166075320E+03  0.61166075320E+03  0.25500000000E-02 0.  1.
          2   -1    0    0  501    0  0.00000000000E+00 -0.00000000000E+00 -0.32019779806E+04  0.32019779806E+04  0.25500000000E-02 0. -1.
    8880022    1    1    2    0    0 -0.50414756517E+03 -0.79626513081E+03  0.98973184826E+02  0.95989075959E+03  0.15294330000E+03 0.  1.
    8880022    1    1    2    0    0  0.50414756517E+03  0.79626513081E+03 -0.26892904122E+04  0.28537479742E+04  0.15294330000E+03 0.  0.
<mgrwt>
<rscale>  0 0.95477462E+03</rscale>
<asrwt>0</asrwt>
<pdfrwt beam="1">  1        2 0.49261199E+00 0.95477462E+03</pdfrwt>
<pdfrwt beam="2">  1       -2 0.94101656E-01 0.95477462E+03</pdfrwt>
<totfact> 0.12729655E+00</totfact>
</mgrwt>
</event>
<event>
 4    1  0.2202466E-008  0.9449295E+03  0.7818608E-02  0.9371097E-01
         -2   -1    0    0    0  501 -0.00000000000E+00  0.00000000000E+00  0.10045605449E+04  0.10045605450E+04  0.25500000000E-02 0.  1.
          2   -1    0    0  501    0  0.00000000000E+00 -0.00000000000E+00 -0.19009431904E+04  0.19009431904E+04  0.25500000000E-02 0. -1.
    8880022    1    1    2    0    0 -0.64045788067E+03  0.67772689263E+03 -0.15082250339E+04  0.17797849431E+04  0.15294330000E+03 0.  0.
    8880022    1    1    2    0    0  0.64045788067E+03 -0.67772689263E+03  0.61184238843E+03  0.11257187922E+04  0.15294330000E+03 0.  0.
<mgrwt>
<rscale>  0 0.94492946E+03</rscale>
<asrwt>0</asrwt>
<pdfrwt beam="1">  1        2 0.29245280E+00 0.94492946E+03</pdfrwt>
<pdfrwt beam="2">  1       -2 0.15454778E+00 0.94492946E+03</pdfrwt>
<totfact> 0.21068515E+00</totfact>
</mgrwt>
</event>
<event>
 4    1  0.2202466E-008  0.2965752E+03  0.7818608E-02  0.1086965E+00
          2   -1    0    0  501    0  0.00000000000E+00  0.00000000000E+00  0.34111040323E+04  0.34111040323E+04  0.25500000000E-02 0. -1.
         -2   -1    0    0    0  501 -0.00000000000E+00 -0.00000000000E+00 -0.35523329234E+03  0.35523329235E+03  0.25500000000E-02 0.  1.
    8880022    1    1    2    0    0 -0.24322796660E+03 -0.73521292153E+02 -0.28559869233E+03  0.41173230407E+03  0.15294330000E+03 0.  0.
    8880022    1    1    2    0    0  0.24322796660E+03  0.73521292153E+02  0.33414694323E+04  0.33546050206E+04  0.15294330000E+03 0.  0.
<mgrwt>
<rscale>  0 0.29657525E+03</rscale>
<asrwt>0</asrwt>
<pdfrwt beam="1">  1        2 0.52478526E+00 0.29657525E+03</pdfrwt>
<pdfrwt beam="2">  1       -2 0.54651273E-01 0.29657525E+03</pdfrwt>
<totfact> 0.37229756E+00</totfact>
</mgrwt>
</event>
<event>
 4    1  0.2202466E-008  0.1253458E+04  0.7818608E-02  0.9067310E-01
         -2   -1    0    0    0  501 -0.00000000000E+00  0.00000000000E+00  0.82912827272E+03  0.82912827272E+03  0.25500000000E-02 0.  1.
          2   -1    0    0  501    0  0.00000000000E+00 -0.00000000000E+00 -0.19806485653E+04  0.19806485653E+04  0.25500000000E-02 0. -1.
    8880022    1    1    2    0    0 -0.96662309100E+03 -0.78320223870E+03 -0.86798819841E+03  0.15246511445E+04  0.15294330000E+03 0.  0.
    8880022    1    1    2    0    0  0.96662309100E+03  0.78320223870E+03 -0.28353209417E+03  0.12851256935E+04  0.15294330000E+03 0.  0.
<mgrwt>
<rscale>  0 0.12534583E+04</rscale>
<asrwt>0</asrwt>
<pdfrwt beam="1">  1        2 0.30471516E+00 0.12534583E+04</pdfrwt>
<pdfrwt beam="2">  1       -2 0.12755820E+00 0.12534583E+04</pdfrwt>
<totfact> 0.30267519E+00</totfact>
</mgrwt>
</event>
<event>
 4    1  0.2202466E-008  0.7877336E+03  0.7818608E-02  0.9577944E-01
         -2   -1    0    0    0  501 -0.00000000000E+00  0.00000000000E+00  0.15658743345E+04  0.15658743345E+04  0.25500000000E-02 0.  1.
          2   -1    0    0  501    0  0.00000000000E+00 -0.00000000000E+00 -0.14416212808E+04  0.14416212808E+04  0.25500000000E-02 0. -1.
    8880022    1    1    2    0    0 -0.59305727420E+03  0.49539449686E+03  0.13426233850E+04  0.15566508424E+04  0.15294330000E+03 0.  0.
    8880022    1    1    2    0    0  0.59305727420E+03 -0.49539449686E+03 -0.12183703313E+04  0.14508447729E+04  0.15294330000E+03 0.  0.
<mgrwt>
<rscale>  0 0.78773364E+03</rscale>
<asrwt>0</asrwt>
<pdfrwt beam="1">  1        2 0.22178789E+00 0.78773364E+03</pdfrwt>
<pdfrwt beam="2">  1       -2 0.24090374E+00 0.78773364E+03</pdfrwt>
<totfact> 0.10336251E+00</totfact>
</mgrwt>
</event>
<event>
 4    1  0.2202466E-008  0.9769971E+03  0.7818608E-02  0.9334140E-01
          2   -1    0    0  501    0  0.00000000000E+00  0.00000000000E+00  0.23820826976E+04  0.23820826976E+04  0.25500000000E-02 0. -1.
         -2   -1    0    0    0  501 -0.00000000000E+00 -0.00000000000E+00 -0.45408848171E+03  0.45408848172E+03  0.25500000000E-02 0.  1.
    8880022    1    1    2    0    0  0.70561149167E+03  0.65821281128E+03  0.47779475571E+03  0.10875712224E+04  0.15294330000E+03 0.  0.
    8880022    1    1    2    0    0 -0.70561149167E+03 -0.65821281128E+03  0.14501994601E+04  0.17485999569E+04  0.15294330000E+03 0.  0.
<mgrwt>
<rscale>  0 0.97699710E+03</rscale>
<asrwt>0</asrwt>
<pdfrwt beam="1">  1        2 0.36647426E+00 0.97699710E+03</pdfrwt>
<pdfrwt beam="2">  1       -2 0.69859767E-01 0.97699710E+03</pdfrwt>
<totfact> 0.76901064E+00</totfact>
</mgrwt>
</event>
<event>
 4    1  0.2202466E-008  0.1117907E+04  0.7818608E-02  0.9187913E-01
         -2   -1    0    0    0  501 -0.00000000000E+00  0.00000000000E+00  0.10792656343E+04  0.10792656343E+04  0.25500000000E-02 0.  1.
          2   -1    0    0  501    0  0.00000000000E+00 -0.00000000000E+00 -0.18837423414E+04  0.18837423414E+04  0.25500000000E-02 0. -1.
    8880022    1    1    2    0    0 -0.10253080328E+04  0.41841001014E+03  0.51737219759E+03  0.12318235030E+04  0.15294330000E+03 0.  0.
    8880022    1    1    2    0    0  0.10253080328E+04 -0.41841001014E+03 -0.13218489047E+04  0.17311844727E+04  0.15294330000E+03 0.  0.
<mgrwt>
<rscale>  0 0.11179066E+04</rscale>
<asrwt>0</asrwt>
<pdfrwt beam="1">  1        2 0.28980652E+00 0.11179066E+04</pdfrwt>
<pdfrwt beam="2">  1       -2 0.16604087E+00 0.11179066E+04</pdfrwt>
<totfact> 0.17307319E+00</totfact>
</mgrwt>
</event>
<event>
 4    1  0.2202466E-008  0.5942420E+03  0.7818608E-02  0.9917425E-01
          2   -1    0    0  501    0  0.00000000000E+00  0.00000000000E+00  0.15594837374E+04  0.15594837374E+04  0.25500000000E-02 0. -1.
         -2   -1    0    0    0  501 -0.00000000000E+00 -0.00000000000E+00 -0.28567337804E+03  0.28567337805E+03  0.25500000000E-02 0.  1.
    8880022    1    1    2    0    0  0.51131670377E+03 -0.26131808587E+03  0.10570177377E+04  0.12126046612E+04  0.15294330000E+03 0.  0.
    8880022    1    1    2    0    0 -0.51131670377E+03  0.26131808587E+03  0.21679262166E+03  0.63255245425E+03  0.15294330000E+03 0.  0.
<mgrwt>
<rscale>  0 0.59424201E+03</rscale>
<asrwt>0</asrwt>
<pdfrwt beam="1">  1        2 0.23992057E+00 0.59424201E+03</pdfrwt>
<pdfrwt beam="2">  1       -2 0.43949751E-01 0.59424201E+03</pdfrwt>
<totfact> 0.60024411E+01</totfact>
</mgrwt>
</event>
<event>
 4    1  0.2202466E-008  0.2581971E+04  0.7818608E-02  0.8374351E-01
         -2   -1    0    0    0  501 -0.00000000000E+00  0.00000000000E+00  0.31717710179E+04  0.31717710179E+04  0.25500000000E-02 0.  1.
          2   -1    0    0  501    0  0.00000000000E+00 -0.00000000000E+00 -0.26023198263E+04  0.26023198263E+04  0.25500000000E-02 0. -1.
    8880022    1    1    2    0    0  0.14892654837E+04 -0.21036324663E+04 -0.98136315363E+03  0.27621814797E+04  0.15294330000E+03 0.  0.
    8880022    1    1    2    0    0 -0.14892654837E+04  0.21036324663E+04  0.15508143452E+04  0.30119093646E+04  0.15294330000E+03 0.  0.
<mgrwt>
<rscale>  0 0.25819707E+04</rscale>
<asrwt>0</asrwt>
<pdfrwt beam="1">  1        2 0.40035690E+00 0.25819707E+04</pdfrwt>
<pdfrwt beam="2">  1       -2 0.48796477E+00 0.25819707E+04</pdfrwt>
<totfact> 0.49079144E-03</totfact>
</mgrwt>
</event>
<event>
 4    1  0.2254011E-008  0.5800186E+03  0.7818608E-02  0.9947751E-01
         -2   -1    0    0    0  501 -0.00000000000E+00  0.00000000000E+00  0.13140368952E+04  0.13140368952E+04  0.25500000000E-02 0.  1.
          2   -1    0    0  501    0  0.00000000000E+00 -0.00000000000E+00 -0.22408084001E+04  0.22408084001E+04  0.25500000000E-02 0. -1.
    8880022    1    1    2    0    0  0.17924984185E+03  0.52999943906E+03  0.12094191829E+04  0.13413114195E+04  0.15294330000E+03 0.  0.
    8880022    1    1    2    0    0 -0.17924984185E+03 -0.52999943906E+03 -0.21361906878E+04  0.22135338757E+04  0.15294330000E+03 0.  0.
<mgrwt>
<rscale>  0 0.58001859E+03</rscale>
<asrwt>0</asrwt>
<pdfrwt beam="1">  1        2 0.34473975E+00 0.58001859E+03</pdfrwt>
<pdfrwt beam="2">  1       -2 0.20215952E+00 0.58001859E+03</pdfrwt>
<totfact> 0.69154582E-01</totfact>
</mgrwt>
</event>
<event>
 4    1  0.2202466E-008  0.6507102E+03  0.7818608E-02  0.9805447E-01
         -2   -1    0    0    0  501 -0.00000000000E+00  0.00000000000E+00  0.34002886547E+04  0.34002886547E+04  0.25500000000E-02 0.  1.
          2   -1    0    0  501    0  0.00000000000E+00 -0.00000000000E+00 -0.25877674550E+03  0.25877674551E+03  0.25500000000E-02 0. -1.
    8880022    1    1    2    0    0 -0.67384476647E+02  0.62888115199E+03  0.28885154483E+04  0.29609027879E+04  0.15294330000E+03 0.  0.
    8880022    1    1    2    0    0  0.67384476647E+02 -0.62888115199E+03  0.25299646086E+03  0.69816261232E+03  0.15294330000E+03 0.  0.
<mgrwt>
<rscale>  0 0.65071025E+03</rscale>
<asrwt>0</asrwt>
<pdfrwt beam="1">  1        2 0.39811810E-01 0.65071025E+03</pdfrwt>
<pdfrwt beam="2">  1       -2 0.52312129E+00 0.65071025E+03</pdfrwt>
<totfact> 0.16554279E-01</totfact>
</mgrwt>
</event>
<event>
 4    1  0.2202466E-008  0.3643541E+03  0.7818608E-02  0.1056873E+00
          2   -1    0    0  501    0  0.00000000000E+00  0.00000000000E+00  0.87881374050E+03  0.87881374051E+03  0.25500000000E-02 0. -1.
         -2   -1    0    0    0  501 -0.00000000000E+00 -0.00000000000E+00 -0.39893997415E+03  0.39893997416E+03  0.25500000000E-02 0.  1.
    8880022    1    1    2    0    0  0.31922878499E+03 -0.86343602613E+02 -0.26366090812E+03  0.44974544174E+03  0.15294330000E+03 0.  1.
    8880022    1    1    2    0    0 -0.31922878499E+03  0.86343602613E+02  0.74353467447E+03  0.82800827293E+03  0.15294330000E+03 0.  0.
<mgrwt>
<rscale>  0 0.36435407E+03</rscale>
<asrwt>0</asrwt>
<pdfrwt beam="1">  1        2 0.13520211E+00 0.36435407E+03</pdfrwt>
<pdfrwt beam="2">  1       -2 0.61375382E-01 0.36435407E+03</pdfrwt>
<totfact> 0.78916220E+01</totfact>
</mgrwt>
</event>
<event>
 4    1  0.2202466E-008  0.9055502E+03  0.7818608E-02  0.9418670E-01
         -2   -1    0    0    0  501 -0.00000000000E+00  0.00000000000E+00  0.88395320910E+03  0.88395320910E+03  0.25500000000E-02 0.  1.
          2   -1    0    0  501    0  0.00000000000E+00 -0.00000000000E+00 -0.23368571072E+04  0.23368571072E+04  0.25500000000E-02 0. -1.
    8880022    1    1    2    0    0  0.81847538493E+03 -0.35598824968E+03 -0.19770065064E+04  0.21745289073E+04  0.15294330000E+03 0.  0.
    8880022    1    1    2    0    0 -0.81847538493E+03  0.35598824968E+03  0.52410260829E+03  0.10462814089E+04  0.15294330000E+03 0.  0.
<mgrwt>
<rscale>  0 0.90555024E+03</rscale>
<asrwt>0</asrwt>
<pdfrwt beam="1">  1        2 0.35951648E+00 0.90555024E+03</pdfrwt>
<pdfrwt beam="2">  1       -2 0.13599280E+00 0.90555024E+03</pdfrwt>
<totfact> 0.17025468E+00</totfact>
</mgrwt>
</event>
<event>
 4    1  0.2202466E-008  0.3691932E+03  0.7818608E-02  0.1055002E+00
          2   -1    0    0  501    0  0.00000000000E+00  0.00000000000E+00  0.10764719007E+04  0.10764719007E+04  0.25500000000E-02 0. -1.
         -2   -1    0    0    0  501 -0.00000000000E+00 -0.00000000000E+00 -0.95020484507E+03  0.95020484507E+03  0.25500000000E-02 0.  1.
    8880022    1    1    2    0    0  0.28578626497E+03  0.17674321881E+03  0.10065421944E+04  0.10721151042E+04  0.15294330000E+03 0.  0.
    8880022    1    1    2    0    0 -0.28578626497E+03 -0.17674321881E+03 -0.88027513874E+03  0.95456164156E+03  0.15294330000E+03 0.  1.
<mgrwt>
<rscale>  0 0.36919318E+03</rscale>
<asrwt>0</asrwt>
<pdfrwt beam="1">  1        2 0.16561106E+00 0.36919318E+03</pdfrwt>
<pdfrwt beam="2">  1       -2 0.14618536E+00 0.36919318E+03</pdfrwt>
<totfact> 0.78943496E+00</totfact>
</mgrwt>
</event>
<event>
 4    1  0.2202466E-008  0.1046981E+04  0.7818608E-02  0.9258466E-01
         -2   -1    0    0    0  501 -0.00000000000E+00  0.00000000000E+00  0.72282804411E+03  0.72282804411E+03  0.25500000000E-02 0.  1.
          2   -1    0    0  501    0  0.00000000000E+00 -0.00000000000E+00 -0.19697519061E+04  0.19697519061E+04  0.25500000000E-02 0. -1.
    8880022    1    1    2    0    0 -0.13792143114E+03  0.10265262246E+04  0.22343632200E+02  0.10472197964E+04  0.15294330000E+03 0.  0.
    8880022    1    1    2    0    0  0.13792143114E+03 -0.10265262246E+04 -0.12692674942E+04  0.16453601539E+04  0.15294330000E+03 0.  0.
<mgrwt>
<rscale>  0 0.10469814E+04</rscale>
<asrwt>0</asrwt>
<pdfrwt beam="1">  1        2 0.30303875E+00 0.10469814E+04</pdfrwt>
<pdfrwt beam="2">  1       -2 0.11120432E+00 0.10469814E+04</pdfrwt>
<totfact> 0.44157422E+00</totfact>
</mgrwt>
</event>
<event>
 4    1  0.2202466E-008  0.4700318E+03  0.7818608E-02  0.1021911E+00
          2   -1    0    0  501    0  0.00000000000E+00  0.00000000000E+00  0.92095604773E+03  0.92095604773E+03  0.25500000000E-02 0. -1.
         -2   -1    0    0    0  501 -0.00000000000E+00 -0.00000000000E+00 -0.54063387780E+03  0.54063387780E+03  0.25500000000E-02 0.  1.
    8880022    1    1    2    0    0  0.17151199813E+03  0.41002662626E+03 -0.35489472921E+03  0.58896529744E+03  0.15294330000E+03 0.  0.
    8880022    1    1    2    0    0 -0.17151199813E+03 -0.41002662626E+03  0.73521689915E+03  0.87262462809E+03  0.15294330000E+03 0. -1.
<mgrwt>
<rscale>  0 0.47003176E+03</rscale>
<asrwt>0</asrwt>
<pdfrwt beam="1">  1        2 0.14168554E+00 0.47003176E+03</pdfrwt>
<pdfrwt beam="2">  1       -2 0.83174444E-01 0.47003176E+03</pdfrwt>
<totfact> 0.37640023E+01</totfact>
</mgrwt>
</event>
<event>
 4    1  0.2202466E-008  0.9857300E+03  0.7818608E-02  0.9324336E-01
          2   -1    0    0  501    0  0.00000000000E+00  0.00000000000E+00  0.13597534451E+04  0.13597534451E+04  0.25500000000E-02 0. -1.
         -2   -1    0    0    0  501 -0.00000000000E+00 -0.00000000000E+00 -0.75640295994E+03  0.75640295994E+03  0.25500000000E-02 0.  1.
    8880022    1    1    2    0    0  0.79884084031E+03 -0.55688885484E+03  0.52900184566E+02  0.98714840188E+03  0.15294330000E+03 0.  0.
    8880022    1    1    2    0    0 -0.79884084031E+03  0.55688885484E+03  0.55045030062E+03  0.11290080032E+04  0.15294330000E+03 0.  0.
<mgrwt>
<rscale>  0 0.98572995E+03</rscale>
<asrwt>0</asrwt>
<pdfrwt beam="1">  1        2 0.20919284E+00 0.98572995E+03</pdfrwt>
<pdfrwt beam="2">  1       -2 0.11636969E+00 0.98572995E+03</pdfrwt>
<totfact> 0.86979473E+00</totfact>
</mgrwt>
</event>
<event>
 4    1  0.2202466E-008  0.7368104E+03  0.7818608E-02  0.9656273E-01
          2   -1    0    0  501    0  0.00000000000E+00  0.00000000000E+00  0.21930505862E+04  0.21930505862E+04  0.25500000000E-02 0. -1.
         -2   -1    0    0    0  501 -0.00000000000E+00 -0.00000000000E+00 -0.62217618081E+03  0.62217618081E+03  0.25500000000E-02 0.  1.
    8880022    1    1    2    0    0 -0.71700692022E+03 -0.73477461895E+02 -0.30682222361E+03  0.79814120991E+03  0.15294330000E+03 0.  0.
    8880022    1    1    2    0    0  0.71700692022E+03  0.73477461895E+02  0.18776966290E+04  0.20170855571E+04  0.15294330000E+03 0.  0.
<mgrwt>
<rscale>  0 0.73681037E+03</rscale>
<asrwt>0</asrwt>
<pdfrwt beam="1">  1        2 0.33739239E+00 0.73681037E+03</pdfrwt>
<pdfrwt beam="2">  1       -2 0.95719414E-01 0.73681037E+03</pdfrwt>
<totfact> 0.49783473E+00</totfact>
</mgrwt>
</event>
<event>
 4    1  0.2202466E-008  0.9649388E+03  0.7818608E-02  0.9347858E-01
         -2   -1    0    0    0  501 -0.00000000000E+00  0.00000000000E+00  0.49498380059E+03  0.49498380059E+03  0.25500000000E-02 0.  1.
          2   -1    0    0  501    0  0.00000000000E+00 -0.00000000000E+00 -0.19082708433E+04  0.19082708433E+04  0.25500000000E-02 0. -1.
    8880022    1    1    2    0    0 -0.45683843959E+03  0.83607053265E+03 -0.56322157583E+03  0.11172848750E+04  0.15294330000E+03 0.  0.
    8880022    1    1    2    0    0  0.45683843959E+03 -0.83607053265E+03 -0.85006546685E+03  0.12859697688E+04  0.15294330000E+03 0.  0.
<mgrwt>
<rscale>  0 0.96493883E+03</rscale>
<asrwt>0</asrwt>
<pdfrwt beam="1">  1        2 0.29358013E+00 0.96493883E+03</pdfrwt>
<pdfrwt beam="2">  1       -2 0.76151355E-01 0.96493883E+03</pdfrwt>
<totfact> 0.11658269E+01</totfact>
</mgrwt>
</event>
<event>
 4    1  0.2202466E-008  0.1370049E+04  0.7818608E-02  0.8975789E-01
         -2   -1    0    0    0  501 -0.00000000000E+00  0.00000000000E+00  0.16757701205E+04  0.16757701205E+04  0.25500000000E-02 0.  1.
          2   -1    0    0  501    0  0.00000000000E+00 -0.00000000000E+00 -0.15955801081E+04  0.15955801081E+04  0.25500000000E-02 0. -1.
    8880022    1    1    2    0    0 -0.12276228673E+04 -0.58871331638E+03  0.93299567655E+03  0.16575626258E+04  0.15294330000E+03 0.  0.
    8880022    1    1    2    0    0  0.12276228673E+04  0.58871331638E+03 -0.85280566412E+03  0.16137876028E+04  0.15294330000E+03 0.  0.
<mgrwt>
<rscale>  0 0.13700485E+04</rscale>
<asrwt>0</asrwt>
<pdfrwt beam="1">  1        2 0.24547386E+00 0.13700485E+04</pdfrwt>
<pdfrwt beam="2">  1       -2 0.25781079E+00 0.13700485E+04</pdfrwt>
<totfact> 0.61482385E-01</totfact>
</mgrwt>
</event>
<event>
 4    1  0.2202466E-008  0.8534932E+03  0.7818608E-02  0.9485661E-01
         -2   -1    0    0    0  501 -0.00000000000E+00  0.00000000000E+00  0.18427703592E+04  0.18427703592E+04  0.25500000000E-02 0.  1.
          2   -1    0    0  501    0  0.00000000000E+00 -0.00000000000E+00 -0.68844261845E+03  0.68844261846E+03  0.25500000000E-02 0. -1.
    8880022    1    1    2    0    0  0.54655679220E+03  0.63744380571E+03 -0.24868942953E+03  0.88898651166E+03  0.15294330000E+03 0.  0.
    8880022    1    1    2    0    0 -0.54655679220E+03 -0.63744380571E+03  0.14030171703E+04  0.16422264660E+04  0.15294330000E+03 0.  0.
<mgrwt>
<rscale>  0 0.85349317E+03</rscale>
<asrwt>0</asrwt>
<pdfrwt beam="1">  1        2 0.10591425E+00 0.85349317E+03</pdfrwt>
<pdfrwt beam="2">  1       -2 0.28350313E+00 0.85349317E+03</pdfrwt>
<totfact> 0.17151495E+00</totfact>
</mgrwt>
</event>
<event>
 4    1  0.2202466E-008  0.7386921E+03  0.7818608E-02  0.9653259E-01
         -2   -1    0    0    0  501 -0.00000000000E+00  0.00000000000E+00  0.47056560161E+03  0.47056560161E+03  0.25500000000E-02 0.  1.
          2   -1    0    0  501    0  0.00000000000E+00 -0.00000000000E+00 -0.20307475210E+04  0.20307475210E+04  0.25500000000E-02 0. -1.
    8880022    1    1    2    0    0 -0.72233422137E+03 -0.22532314029E+02  0.39046710707E+02  0.73972341531E+03  0.15294330000E+03 0.  0.
    8880022    1    1    2    0    0  0.72233422137E+03  0.22532314029E+02 -0.15992286301E+04  0.17615897073E+04  0.15294330000E+03 0.  0.
<mgrwt>
<rscale>  0 0.73869215E+03</rscale>
<asrwt>0</asrwt>
<pdfrwt beam="1">  1        2 0.31242269E+00 0.73869215E+03</pdfrwt>
<pdfrwt beam="2">  1       -2 0.72394709E-01 0.73869215E+03</pdfrwt>
<totfact> 0.11508221E+01</totfact>
</mgrwt>
</event>
<event>
 4    1  0.2202466E-008  0.8960865E+03  0.7818608E-02  0.9430487E-01
         -2   -1    0    0    0  501 -0.00000000000E+00  0.00000000000E+00  0.32991627976E+03  0.32991627977E+03  0.25500000000E-02 0.  1.
          2   -1    0    0  501    0  0.00000000000E+00 -0.00000000000E+00 -0.32029234495E+04  0.32029234495E+04  0.25500000000E-02 0. -1.
    8880022    1    1    2    0    0  0.64479172382E+03 -0.60317737449E+03 -0.23020711053E+04  0.24703243389E+04  0.15294330000E+03 0.  0.
    8880022    1    1    2    0    0 -0.64479172382E+03  0.60317737449E+03 -0.57093606445E+03  0.10625153904E+04  0.15294330000E+03 0.  0.
<mgrwt>
<rscale>  0 0.89608647E+03</rscale>
<asrwt>0</asrwt>
<pdfrwt beam="1">  1        2 0.49275743E+00 0.89608647E+03</pdfrwt>
<pdfrwt beam="2">  1       -2 0.50756353E-01 0.89608647E+03</pdfrwt>
<totfact> 0.49515448E+00</totfact>
</mgrwt>
</event>
<event>
 4    1  0.2202466E-008  0.1100411E+04  0.7818608E-02  0.9204791E-01
          2   -1    0    0  501    0  0.00000000000E+00  0.00000000000E+00  0.12262979624E+04  0.12262979624E+04  0.25500000000E-02 0. -1.
         -2   -1    0    0    0  501 -0.00000000000E+00 -0.00000000000E+00 -0.17091309389E+04  0.17091309389E+04  0.25500000000E-02 0.  1.
    8880022    1    1    2    0    0 -0.18206824541E+03  0.10744135939E+04  0.71231741180E+03  0.13108398700E+04  0.15294330000E+03 0.  0.
    8880022    1    1    2    0    0  0.18206824541E+03 -0.10744135939E+04 -0.11951503883E+04  0.16245890312E+04  0.15294330000E+03 0.  0.
<mgrwt>
<rscale>  0 0.11004113E+04</rscale>
<asrwt>0</asrwt>
<pdfrwt beam="1">  1        2 0.18866122E+00 0.11004113E+04</pdfrwt>
<pdfrwt beam="2">  1       -2 0.26294322E+00 0.11004113E+04</pdfrwt>
<totfact> 0.96349188E-01</totfact>
</mgrwt>
</event>
<event>
 4    1  0.2202466E-008  0.1002587E+04  0.7818608E-02  0.9305712E-01
          2   -1    0    0  501    0  0.00000000000E+00  0.00000000000E+00  0.19804424304E+04  0.19804424304E+04  0.25500000000E-02 0. -1.
         -2   -1    0    0    0  501 -0.00000000000E+00 -0.00000000000E+00 -0.10264387239E+04  0.10264387240E+04  0.25500000000E-02 0.  1.
    8880022    1    1    2    0    0  0.49075957754E+03  0.86078119575E+03  0.15459467582E+04  0.18425884679E+04  0.15294330000E+03 0.  0.
    8880022    1    1    2    0    0 -0.49075957754E+03 -0.86078119575E+03 -0.59194305182E+03  0.11642926864E+04  0.15294330000E+03 0.  0.
<mgrwt>
<rscale>  0 0.10025871E+04</rscale>
<asrwt>0</asrwt>
<pdfrwt beam="1">  1        2 0.30468345E+00 0.10025871E+04</pdfrwt>
<pdfrwt beam="2">  1       -2 0.15791365E+00 0.10025871E+04</pdfrwt>
<totfact> 0.17829640E+00</totfact>
</mgrwt>
</event>
<event>
 4    1  0.2202466E-008  0.7973573E+03  0.7818608E-02  0.9563850E-01
          2   -1    0    0  501    0  0.00000000000E+00  0.00000000000E+00  0.10543092948E+04  0.10543092948E+04  0.25500000000E-02 0. -1.
         -2   -1    0    0    0  501 -0.00000000000E+00 -0.00000000000E+00 -0.89486474112E+03  0.89486474113E+03  0.25500000000E-02 0.  1.
    8880022    1    1    2    0    0 -0.47238309970E+03 -0.62389193655E+03 -0.47683710206E+03  0.92905985614E+03  0.15294330000E+03 0.  0.
    8880022    1    1    2    0    0  0.47238309970E+03  0.62389193655E+03  0.63628165575E+03  0.10201141798E+04  0.15294330000E+03 0.  0.
<mgrwt>
<rscale>  0 0.79735726E+03</rscale>
<asrwt>0</asrwt>
<pdfrwt beam="1">  1        2 0.16220143E+00 0.79735726E+03</pdfrwt>
<pdfrwt beam="2">  1       -2 0.13767150E+00 0.79735726E+03</pdfrwt>
<totfact> 0.88367809E+00</totfact>
</mgrwt>
</event>
<event>
 4    1  0.2202466E-008  0.4462205E+03  0.7818608E-02  0.1028855E+00
         -2   -1    0    0    0  501 -0.00000000000E+00  0.00000000000E+00  0.76180713340E+03  0.76180713340E+03  0.25500000000E-02 0.  1.
          2   -1    0    0  501    0  0.00000000000E+00 -0.00000000000E+00 -0.25993467759E+04  0.25993467759E+04  0.25500000000E-02 0. -1.
    8880022    1    1    2    0    0  0.23278714484E+03  0.34861322770E+03 -0.25126163160E+04  0.25519313161E+04  0.15294330000E+03 0.  0.
    8880022    1    1    2    0    0 -0.23278714484E+03 -0.34861322770E+03  0.67507667350E+03  0.80922259327E+03  0.15294330000E+03 0.  0.
<mgrwt>
<rscale>  0 0.44622045E+03</rscale>
<asrwt>0</asrwt>
<pdfrwt beam="1">  1        2 0.39989950E+00 0.44622045E+03</pdfrwt>
<pdfrwt beam="2">  1       -2 0.11720110E+00 0.44622045E+03</pdfrwt>
<totfact> 0.19581698E+00</totfact>
</mgrwt>
</event>
<event>
 4    1  0.2202466E-008  0.4468276E+03  0.7818608E-02  0.1028672E+00
         -2   -1    0    0    0  501 -0.00000000000E+00  0.00000000000E+00  0.19795413689E+03  0.19795413691E+03  0.25500000000E-02 0.  1.
          2   -1    0    0  501    0  0.00000000000E+00 -0.00000000000E+00 -0.10599128527E+04  0.10599128527E+04  0.25500000000E-02 0. -1.
    8880022    1    1    2    0    0 -0.39209080859E+03  0.15009361180E+03 -0.56937321693E+03  0.72376847655E+03  0.15294330000E+03 0. -1.
    8880022    1    1    2    0    0  0.39209080859E+03 -0.15009361180E+03 -0.29258549889E+03  0.53409851306E+03  0.15294330000E+03 0.  1.
<mgrwt>
<rscale>  0 0.44682765E+03</rscale>
<asrwt>0</asrwt>
<pdfrwt beam="1">  1        2 0.16306351E+00 0.44682765E+03</pdfrwt>
<pdfrwt beam="2">  1       -2 0.30454483E-01 0.44682765E+03</pdfrwt>
<totfact> 0.23739882E+02</totfact>
</mgrwt>
</event>
<event>
 4    1  0.2202466E-008  0.3056742E+03  0.7818608E-02  0.1082438E+00
          2   -1    0    0  501    0  0.00000000000E+00  0.00000000000E+00  0.23390509733E+03  0.23390509734E+03  0.25500000000E-02 0. -1.
         -2   -1    0    0    0  501 -0.00000000000E+00 -0.00000000000E+00 -0.70505190694E+03  0.70505190694E+03  0.25500000000E-02 0.  1.
    8880022    1    1    2    0    0 -0.99626849272E+02  0.24519292919E+03  0.73508113773E+02  0.31438857712E+03  0.15294330000E+03 0.  0.
    8880022    1    1    2    0    0  0.99626849272E+02 -0.24519292919E+03 -0.54465492338E+03  0.62456842716E+03  0.15294330000E+03 0.  0.
<mgrwt>
<rscale>  0 0.30567423E+03</rscale>
<asrwt>0</asrwt>
<pdfrwt beam="1">  1        2 0.35985400E-01 0.30567423E+03</pdfrwt>
<pdfrwt beam="2">  1       -2 0.10846952E+00 0.30567423E+03</pdfrwt>
<totfact> 0.10202672E+02</totfact>
</mgrwt>
</event>
<event>
 4    1  0.2202466E-008  0.2402061E+03  0.7818608E-02  0.1119656E+00
          2   -1    0    0  501    0  0.00000000000E+00  0.00000000000E+00  0.56594192231E+03  0.56594192231E+03  0.25500000000E-02 0. -1.
         -2   -1    0    0    0  501 -0.00000000000E+00 -0.00000000000E+00 -0.41536658780E+03  0.41536658781E+03  0.25500000000E-02 0.  1.
    8880022    1    1    2    0    0 -0.18007355650E+03  0.43368595743E+02 -0.35091809429E+03  0.42525578510E+03  0.15294330000E+03 0.  0.
    8880022    1    1    2    0    0  0.18007355650E+03 -0.43368595743E+02  0.50149342880E+03  0.55605272502E+03  0.15294330000E+03 0.  0.
<mgrwt>
<rscale>  0 0.24020611E+03</rscale>
<asrwt>0</asrwt>
<pdfrwt beam="1">  1        2 0.87067988E-01 0.24020611E+03</pdfrwt>
<pdfrwt beam="2">  1       -2 0.63902552E-01 0.24020611E+03</pdfrwt>
<totfact> 0.12706486E+02</totfact>
</mgrwt>
</event>
<event>
 4    1  0.2202466E-008  0.9676315E+03  0.7818608E-02  0.9344776E-01
          2   -1    0    0  501    0  0.00000000000E+00  0.00000000000E+00  0.31934418207E+04  0.31934418207E+04  0.25500000000E-02 0. -1.
         -2   -1    0    0    0  501 -0.00000000000E+00 -0.00000000000E+00 -0.40522168790E+03  0.40522168791E+03  0.25500000000E-02 0.  1.
    8880022    1    1    2    0    0 -0.86112034379E+03  0.41399372449E+03  0.23401726529E+04  0.25323346439E+04  0.15294330000E+03 0.  0.
    8880022    1    1    2    0    0  0.86112034379E+03 -0.41399372449E+03  0.44804747990E+03  0.10663288647E+04  0.15294330000E+03 0.  0.
<mgrwt>
<rscale>  0 0.96763149E+03</rscale>
<asrwt>0</asrwt>
<pdfrwt beam="1">  1        2 0.49129874E+00 0.96763149E+03</pdfrwt>
<pdfrwt beam="2">  1       -2 0.62341799E-01 0.96763149E+03</pdfrwt>
<totfact> 0.32293280E+00</totfact>
</mgrwt>
</event>
<event>
 4    1  0.2202466E-008  0.6964913E+03  0.7818608E-02  0.9723251E-01
          2   -1    0    0  501    0  0.00000000000E+00  0.00000000000E+00  0.30484928553E+04  0.30484928553E+04  0.25500000000E-02 0. -1.
         -2   -1    0    0    0  501 -0.00000000000E+00 -0.00000000000E+00 -0.22621689574E+03  0.22621689575E+03  0.25500000000E-02 0.  1.
    8880022    1    1    2    0    0 -0.19348641038E+03 -0.65136121041E+03  0.23028120784E+04  0.24058353100E+04  0.15294330000E+03 0.  0.
    8880022    1    1    2    0    0  0.19348641038E+03  0.65136121041E+03  0.51946388113E+03  0.86887444101E+03  0.15294330000E+03 0.  0.
<mgrwt>
<rscale>  0 0.69649126E+03</rscale>
<asrwt>0</asrwt>
<pdfrwt beam="1">  1        2 0.46899886E+00 0.69649126E+03</pdfrwt>
<pdfrwt beam="2">  1       -2 0.34802602E-01 0.69649126E+03</pdfrwt>
<totfact> 0.13489529E+01</totfact>
</mgrwt>
</event>
<event>
 4    1  0.2202466E-008  0.8046089E+03  0.7818608E-02  0.9553370E-01
         -2   -1    0    0    0  501 -0.00000000000E+00  0.00000000000E+00  0.90591711202E+03  0.90591711203E+03  0.25500000000E-02 0.  1.
          2   -1    0    0  501    0  0.00000000000E+00 -0.00000000000E+00 -0.92136613826E+03  0.92136613826E+03  0.25500000000E-02 0. -1.
    8880022    1    1    2    0    0 -0.78267787015E+03 -0.10686065968E+03  0.42505630601E+03  0.90998261813E+03  0.15294330000E+03 0.  0.
    8880022    1    1    2    0    0  0.78267787015E+03  0.10686065968E+03 -0.44050533224E+03  0.91730063216E+03  0.15294330000E+03 0.  0.
<mgrwt>
<rscale>  0 0.80460891E+03</rscale>
<asrwt>0</asrwt>
<pdfrwt beam="1">  1        2 0.14174864E+00 0.80460891E+03</pdfrwt>
<pdfrwt beam="2">  1       -2 0.13937186E+00 0.80460891E+03</pdfrwt>
<totfact> 0.10417121E+01</totfact>
</mgrwt>
</event>
<event>
 4    1  0.2202466E-008  0.1120213E+04  0.7818608E-02  0.9185711E-01
          2   -1    0    0  501    0  0.00000000000E+00  0.00000000000E+00  0.66560715743E+03  0.66560715744E+03  0.25500000000E-02 0. -1.
         -2   -1    0    0    0  501 -0.00000000000E+00 -0.00000000000E+00 -0.37369638539E+04  0.37369638539E+04  0.25500000000E-02 0.  1.
    8880022    1    1    2    0    0  0.11078936007E+04 -0.63703951103E+02 -0.30851956549E+04  0.32822721255E+04  0.15294330000E+03 0.  0.
    8880022    1    1    2    0    0 -0.11078936007E+04  0.63703951103E+02  0.13838958472E+02  0.11202988858E+04  0.15294330000E+03 0.  0.
<mgrwt>
<rscale>  0 0.11202134E+04</rscale>
<asrwt>0</asrwt>
<pdfrwt beam="1">  1        2 0.10240110E+00 0.11202134E+04</pdfrwt>
<pdfrwt beam="2">  1       -2 0.57491750E+00 0.11202134E+04</pdfrwt>
<totfact> 0.27396856E-02</totfact>
</mgrwt>
</event>
<event>
 4    1  0.2202466E-008  0.6409879E+03  0.7818608E-02  0.9823838E-01
         -2   -1    0    0    0  501 -0.00000000000E+00  0.00000000000E+00  0.56932537133E+03  0.56932537133E+03  0.25500000000E-02 0.  1.
          2   -1    0    0  501    0  0.00000000000E+00 -0.00000000000E+00 -0.77698603025E+03  0.77698603026E+03  0.25500000000E-02 0. -1.
    8880022    1    1    2    0    0  0.50571131990E+03 -0.36294609946E+03 -0.28344074291E+03  0.70085955650E+03  0.15294330000E+03 0.  0.
    8880022    1    1    2    0    0 -0.50571131990E+03  0.36294609946E+03  0.75780083989E+02  0.64545184509E+03  0.15294330000E+03 0.  0.
<mgrwt>
<rscale>  0 0.64098788E+03</rscale>
<asrwt>0</asrwt>
<pdfrwt beam="1">  1        2 0.11953631E+00 0.64098788E+03</pdfrwt>
<pdfrwt beam="2">  1       -2 0.87588518E-01 0.64098788E+03</pdfrwt>
<totfact> 0.41228743E+01</totfact>
</mgrwt>
</event>
<event>
 4    1  0.2202466E-008  0.3806337E+03  0.7818608E-02  0.1050700E+00
         -2   -1    0    0    0  501 -0.00000000000E+00  0.00000000000E+00  0.47714384968E+03  0.47714384969E+03  0.25500000000E-02 0.  1.
          2   -1    0    0  501    0  0.00000000000E+00 -0.00000000000E+00 -0.68127345103E+03  0.68127345104E+03  0.25500000000E-02 0. -1.
    8880022    1    1    2    0    0  0.27377975863E+03 -0.21571973219E+03  0.32916330707E+03  0.50322012562E+03  0.15294330000E+03 0.  0.
    8880022    1    1    2    0    0 -0.27377975863E+03  0.21571973219E+03 -0.53329290842E+03  0.65519717511E+03  0.15294330000E+03 0. -1.
<mgrwt>
<rscale>  0 0.38063370E+03</rscale>
<asrwt>0</asrwt>
<pdfrwt beam="1">  1        2 0.10481130E+00 0.38063370E+03</pdfrwt>
<pdfrwt beam="2">  1       -2 0.73406746E-01 0.38063370E+03</pdfrwt>
<totfact> 0.74350274E+01</totfact>
</mgrwt>
</event>
<event>
 4    1  0.3651339E-008  0.8977049E+03  0.7818608E-02  0.9428455E-01
          2   -1    0    0  501    0  0.00000000000E+00  0.00000000000E+00  0.17853502010E+04  0.17853502010E+04  0.25500000000E-02 0. -1.
         -2   -1    0    0    0  501 -0.00000000000E+00 -0.00000000000E+00 -0.16854485110E+04  0.16854485110E+04  0.25500000000E-02 0.  1.
    8880022    1    1    2    0    0 -0.36509873460E+02  0.88382664004E+03 -0.14349964806E+04  0.16926573938E+04  0.15294330000E+03 0.  0.
    8880022    1    1    2    0    0  0.36509873460E+02 -0.88382664004E+03  0.15348981706E+04  0.17781413182E+04  0.15294330000E+03 0.  0.
<mgrwt>
<rscale>  0 0.89770494E+03</rscale>
<asrwt>0</asrwt>
<pdfrwt beam="1">  1        2 0.27466926E+00 0.89770494E+03</pdfrwt>
<pdfrwt beam="2">  1       -2 0.25929977E+00 0.89770494E+03</pdfrwt>
<totfact> 0.50522004E-01</totfact>
</mgrwt>
</event>
<event>
 4    1  0.2202466E-008  0.9503210E+03  0.7818608E-02  0.9364775E-01
         -2   -1    0    0    0  501 -0.00000000000E+00  0.00000000000E+00  0.10354890215E+04  0.10354890215E+04  0.25500000000E-02 0.  1.
          2   -1    0    0  501    0  0.00000000000E+00 -0.00000000000E+00 -0.18279968565E+04  0.18279968565E+04  0.25500000000E-02 0. -1.
    8880022    1    1    2    0    0  0.75989245122E+03 -0.54980166180E+03  0.63905430482E+03  0.11452076066E+04  0.15294330000E+03 0.  0.
    8880022    1    1    2    0    0 -0.75989245122E+03  0.54980166180E+03 -0.14315621399E+04  0.17182782714E+04  0.15294330000E+03 0.  0.
<mgrwt>
<rscale>  0 0.95032103E+03</rscale>
<asrwt>0</asrwt>
<pdfrwt beam="1">  1        2 0.28123028E+00 0.95032103E+03</pdfrwt>
<pdfrwt beam="2">  1       -2 0.15930600E+00 0.95032103E+03</pdfrwt>
<totfact> 0.21269109E+00</totfact>
</mgrwt>
</event>
<event>
 4    1  0.2202466E-008  0.4865175E+03  0.7818608E-02  0.1017359E+00
         -2   -1    0    0    0  501 -0.00000000000E+00  0.00000000000E+00  0.11018184474E+04  0.11018184474E+04  0.25500000000E-02 0.  1.
          2   -1    0    0  501    0  0.00000000000E+00 -0.00000000000E+00 -0.70973481960E+03  0.70973481961E+03  0.25500000000E-02 0. -1.
    8880022    1    1    2    0    0 -0.36161021530E+03  0.28730763992E+03 -0.56033053041E+03  0.74207114489E+03  0.15294330000E+03 0.  0.
    8880022    1    1    2    0    0  0.36161021530E+03 -0.28730763992E+03  0.95241415818E+03  0.10694821221E+04  0.15294330000E+03 0.  1.
<mgrwt>
<rscale>  0 0.48651750E+03</rscale>
<asrwt>0</asrwt>
<pdfrwt beam="1">  1        2 0.10918997E+00 0.48651750E+03</pdfrwt>
<pdfrwt beam="2">  1       -2 0.16951053E+00 0.48651750E+03</pdfrwt>
<totfact> 0.91303916E+00</totfact>
</mgrwt>
</event>
<event>
 4    1  0.2202466E-008  0.9470160E+03  0.7818608E-02  0.9368645E-01
         -2   -1    0    0    0  501 -0.00000000000E+00  0.00000000000E+00  0.33539782069E+03  0.33539782070E+03  0.25500000000E-02 0.  1.
          2   -1    0    0  501    0  0.00000000000E+00 -0.00000000000E+00 -0.43852933579E+04  0.43852933579E+04  0.25500000000E-02 0. -1.
    8880022    1    1    2    0    0  0.21551914690E+01  0.93458171005E+03 -0.34994450899E+04  0.36253213937E+04  0.15294330000E+03 0.  0.
    8880022    1    1    2    0    0 -0.21551914690E+01 -0.93458171005E+03 -0.55045044727E+03  0.10953697848E+04  0.15294330000E+03 0.  0.
<mgrwt>
<rscale>  0 0.94701598E+03</rscale>
<asrwt>0</asrwt>
<pdfrwt beam="1">  1        2 0.67466048E+00 0.94701598E+03</pdfrwt>
<pdfrwt beam="2">  1       -2 0.51599668E-01 0.94701598E+03</pdfrwt>
<totfact> 0.60850476E-01</totfact>
</mgrwt>
</event>
<event>
 4    1  0.2202466E-008  0.6321187E+03  0.7818608E-02  0.9840923E-01
          2   -1    0    0  501    0  0.00000000000E+00  0.00000000000E+00  0.12123207254E+04  0.12123207254E+04  0.25500000000E-02 0. -1.
         -2   -1    0    0    0  501 -0.00000000000E+00 -0.00000000000E+00 -0.95508579002E+03  0.95508579002E+03  0.25500000000E-02 0.  1.
    8880022    1    1    2    0    0  0.15828658191E+03  0.59256030551E+03 -0.74838312523E+03  0.97961794227E+03  0.15294330000E+03 0.  1.
    8880022    1    1    2    0    0 -0.15828658191E+03 -0.59256030551E+03  0.10056180606E+04  0.11877885732E+04  0.15294330000E+03 0.  0.
<mgrwt>
<rscale>  0 0.63211867E+03</rscale>
<asrwt>0</asrwt>
<pdfrwt beam="1">  1        2 0.18651088E+00 0.63211867E+03</pdfrwt>
<pdfrwt beam="2">  1       -2 0.14693628E+00 0.63211867E+03</pdfrwt>
<totfact> 0.61260365E+00</totfact>
</mgrwt>
</event>
<event>
 4    1  0.2202466E-008  0.6300114E+03  0.7818608E-02  0.9845027E-01
          2   -1    0    0  501    0  0.00000000000E+00  0.00000000000E+00  0.10512546336E+04  0.10512546336E+04  0.25500000000E-02 0. -1.
         -2   -1    0    0    0  501 -0.00000000000E+00 -0.00000000000E+00 -0.55854562587E+03  0.55854562588E+03  0.25500000000E-02 0.  1.
    8880022    1    1    2    0    0 -0.37831768745E+03  0.47999838149E+03  0.70452979217E+03  0.94513311229E+03  0.15294330000E+03 0.  0.
    8880022    1    1    2    0    0  0.37831768745E+03 -0.47999838149E+03 -0.21182078441E+03  0.66466714723E+03  0.15294330000E+03 0.  0.
<mgrwt>
<rscale>  0 0.63001141E+03</rscale>
<asrwt>0</asrwt>
<pdfrwt beam="1">  1        2 0.16173148E+00 0.63001141E+03</pdfrwt>
<pdfrwt beam="2">  1       -2 0.85930098E-01 0.63001141E+03</pdfrwt>
<totfact> 0.28292635E+01</totfact>
</mgrwt>
</event>
<event>
 4    1  0.2202466E-008  0.4949869E+03  0.7818608E-02  0.1015096E+00
         -2   -1    0    0    0  501 -0.00000000000E+00  0.00000000000E+00  0.46535928737E+03  0.46535928738E+03  0.25500000000E-02 0.  1.
          2   -1    0    0  501    0  0.00000000000E+00 -0.00000000000E+00 -0.12950830000E+04  0.12950830001E+04  0.25500000000E-02 0. -1.
    8880022    1    1    2    0    0 -0.42305382577E+03  0.20650871855E+03 -0.10929531253E+04  0.11998160599E+04  0.15294330000E+03 0.  0.
    8880022    1    1    2    0    0  0.42305382577E+03 -0.20650871855E+03  0.26322941265E+03  0.56062622756E+03  0.15294330000E+03 0.  0.
<mgrwt>
<rscale>  0 0.49498691E+03</rscale>
<asrwt>0</asrwt>
<pdfrwt beam="1">  1        2 0.19924354E+00 0.49498691E+03</pdfrwt>
<pdfrwt beam="2">  1       -2 0.71593737E-01 0.49498691E+03</pdfrwt>
<totfact> 0.31061247E+01</totfact>
</mgrwt>
</event>
<event>
 4    1  0.2202466E-008  0.5414123E+03  0.7818608E-02  0.1003501E+00
         -2   -1    0    0    0  501 -0.00000000000E+00  0.00000000000E+00  0.20707415235E+03  0.20707415237E+03  0.25500000000E-02 0.  1.
          2   -1    0    0  501    0  0.00000000000E+00 -0.00000000000E+00 -0.35534254283E+04  0.35534254283E+04  0.25500000000E-02 0. -1.
    8880022    1    1    2    0    0 -0.38538170143E+03 -0.34816166994E+03 -0.21475951753E+03  0.58245077698E+03  0.15294330000E+03 0.  0.
    8880022    1    1    2    0    0  0.38538170143E+03  0.34816166994E+03 -0.31315917584E+04  0.31780488037E+04  0.15294330000E+03 0.  0.
<mgrwt>
<rscale>  0 0.54141228E+03</rscale>
<asrwt>0</asrwt>
<pdfrwt beam="1">  1        2 0.54668079E+00 0.54141228E+03</pdfrwt>
<pdfrwt beam="2">  1       -2 0.31857564E-01 0.54141228E+03</pdfrwt>
<totfact> 0.77710873E+00</totfact>
</mgrwt>
</event>
<event>
 4    1  0.2202466E-008  0.8574686E+03  0.7818608E-02  0.9480367E-01
         -2   -1    0    0    0  501 -0.00000000000E+00  0.00000000000E+00  0.17126801932E+04  0.17126801932E+04  0.25500000000E-02 0.  1.
          2   -1    0    0  501    0  0.00000000000E+00 -0.00000000000E+00 -0.11060137851E+04  0.11060137851E+04  0.25500000000E-02 0. -1.
    8880022    1    1    2    0    0 -0.32177231873E+03 -0.77995080224E+03 -0.79906986244E+03  0.11720772061E+04  0.15294330000E+03 0.  0.
    8880022    1    1    2    0    0  0.32177231873E+03  0.77995080224E+03  0.14057362706E+04  0.16466167722E+04  0.15294330000E+03 0.  0.
<mgrwt>
<rscale>  0 0.85746856E+03</rscale>
<asrwt>0</asrwt>
<pdfrwt beam="1">  1        2 0.17015597E+00 0.85746856E+03</pdfrwt>
<pdfrwt beam="2">  1       -2 0.26348926E+00 0.85746856E+03</pdfrwt>
<totfact> 0.11699484E+00</totfact>
</mgrwt>
</event>
<event>
 4    1  0.2202466E-008  0.5103945E+03  0.7818608E-02  0.1011101E+00
          2   -1    0    0  501    0  0.00000000000E+00  0.00000000000E+00  0.21525275008E+04  0.21525275008E+04  0.25500000000E-02 0. -1.
         -2   -1    0    0    0  501 -0.00000000000E+00 -0.00000000000E+00 -0.33377844365E+03  0.33377844366E+03  0.25500000000E-02 0.  1.
    8880022    1    1    2    0    0  0.32862893723E+03  0.35932422937E+03 -0.83140517804E+02  0.51712172543E+03  0.15294330000E+03 0.  0.
    8880022    1    1    2    0    0 -0.32862893723E+03 -0.35932422937E+03  0.19018895750E+04  0.19691842191E+04  0.15294330000E+03 0.  0.
<mgrwt>
<rscale>  0 0.51039449E+03</rscale>
<asrwt>0</asrwt>
<pdfrwt beam="1">  1        2 0.33115809E+00 0.51039449E+03</pdfrwt>
<pdfrwt beam="2">  1       -2 0.51350528E-01 0.51039449E+03</pdfrwt>
<totfact> 0.21274608E+01</totfact>
</mgrwt>
</event>
<event>
 4    1  0.2202466E-008  0.7916880E+03  0.7818608E-02  0.9572127E-01
          2   -1    0    0  501    0  0.00000000000E+00  0.00000000000E+00  0.12626797984E+04  0.12626797984E+04  0.25500000000E-02 0. -1.
         -2   -1    0    0    0  501 -0.00000000000E+00 -0.00000000000E+00 -0.95041814494E+03  0.95041814494E+03  0.25500000000E-02 0.  1.
    8880022    1    1    2    0    0 -0.56476841095E+03  0.53330556302E+03 -0.60868899147E+03  0.99863513002E+03  0.15294330000E+03 0.  0.
    8880022    1    1    2    0    0  0.56476841095E+03 -0.53330556302E+03  0.92095064496E+03  0.12144628134E+04  0.15294330000E+03 0.  0.
<mgrwt>
<rscale>  0 0.79168797E+03</rscale>
<asrwt>0</asrwt>
<pdfrwt beam="1">  1        2 0.19425843E+00 0.79168797E+03</pdfrwt>
<pdfrwt beam="2">  1       -2 0.14621818E+00 0.79168797E+03</pdfrwt>
<totfact> 0.56634688E+00</totfact>
</mgrwt>
</event>
<event>
 4    1  0.2202466E-008  0.1377661E+04  0.7818608E-02  0.8970150E-01
          2   -1    0    0  501    0  0.00000000000E+00  0.00000000000E+00  0.38411319153E+04  0.38411319153E+04  0.25500000000E-02 0. -1.
         -2   -1    0    0    0  501 -0.00000000000E+00 -0.00000000000E+00 -0.59999321526E+03  0.59999321526E+03  0.25500000000E-02 0.  1.
    8880022    1    1    2    0    0  0.37450495491E+02  0.13686323680E+04  0.25533931860E+04  0.29013385728E+04  0.15294330000E+03 0.  0.
    8880022    1    1    2    0    0 -0.37450495491E+02 -0.13686323680E+04  0.68774551399E+03  0.15397865578E+04  0.15294330000E+03 0.  0.
<mgrwt>
<rscale>  0 0.13776606E+04</rscale>
<asrwt>0</asrwt>
<pdfrwt beam="1">  1        2 0.59094338E+00 0.13776606E+04</pdfrwt>
<pdfrwt beam="2">  1       -2 0.92306647E-01 0.13776606E+04</pdfrwt>
<totfact> 0.44812018E-01</totfact>
</mgrwt>
</event>
<event>
 4    1  0.2202466E-008  0.1243388E+04  0.7818608E-02  0.9075704E-01
          2   -1    0    0  501    0  0.00000000000E+00  0.00000000000E+00  0.16211820447E+04  0.16211820447E+04  0.25500000000E-02 0. -1.
         -2   -1    0    0    0  501 -0.00000000000E+00 -0.00000000000E+00 -0.15466598744E+04  0.15466598744E+04  0.25500000000E-02 0.  1.
    8880022    1    1    2    0    0 -0.18819206963E+03 -0.12195109430E+04  0.10180437878E+04  0.16069934667E+04  0.15294330000E+03 0.  0.
    8880022    1    1    2    0    0  0.18819206963E+03  0.12195109430E+04 -0.94352161749E+03  0.15608484523E+04  0.15294330000E+03 0.  0.
<mgrwt>
<rscale>  0 0.12433885E+04</rscale>
<asrwt>0</asrwt>
<pdfrwt beam="1">  1        2 0.24941262E+00 0.12433885E+04</pdfrwt>
<pdfrwt beam="2">  1       -2 0.23794767E+00 0.12433885E+04</pdfrwt>
<totfact> 0.79952321E-01</totfact>
</mgrwt>
</event>
<event>
 4    1  0.2202466E-008  0.5955512E+03  0.7818608E-02  0.9914679E-01
         -2   -1    0    0    0  501 -0.00000000000E+00  0.00000000000E+00  0.41149858382E+03  0.41149858382E+03  0.25500000000E-02 0.  1.
          2   -1    0    0  501    0  0.00000000000E+00 -0.00000000000E+00 -0.20193460585E+04  0.20193460585E+04  0.25500000000E-02 0. -1.
    8880022    1    1    2    0    0 -0.27122559252E+03 -0.50766747223E+03  0.11624479246E+03  0.60678998771E+03  0.15294330000E+03 0.  0.
    8880022    1    1    2    0    0  0.27122559252E+03  0.50766747223E+03 -0.17240922672E+04  0.18240546546E+04  0.15294330000E+03 0.  0.
<mgrwt>
<rscale>  0 0.59555120E+03</rscale>
<asrwt>0</asrwt>
<pdfrwt beam="1">  1        2 0.31066862E+00 0.59555120E+03</pdfrwt>
<pdfrwt beam="2">  1       -2 0.63307476E-01 0.59555120E+03</pdfrwt>
<totfact> 0.15980323E+01</totfact>
</mgrwt>
</event>
<event>
 4    1  0.2202466E-008  0.9178223E+03  0.7818608E-02  0.9403573E-01
          2   -1    0    0  501    0  0.00000000000E+00  0.00000000000E+00  0.76068934365E+03  0.76068934365E+03  0.25500000000E-02 0. -1.
         -2   -1    0    0    0  501 -0.00000000000E+00 -0.00000000000E+00 -0.17131279548E+04  0.17131279548E+04  0.25500000000E-02 0.  1.
    8880022    1    1    2    0    0 -0.31476506986E+03 -0.84848632493E+03  0.25927048471E+03  0.95373944558E+03  0.15294330000E+03 0.  0.
    8880022    1    1    2    0    0  0.31476506986E+03  0.84848632493E+03 -0.12117090959E+04  0.15200778529E+04  0.15294330000E+03 0.  0.
<mgrwt>
<rscale>  0 0.91782228E+03</rscale>
<asrwt>0</asrwt>
<pdfrwt beam="1">  1        2 0.11702913E+00 0.91782228E+03</pdfrwt>
<pdfrwt beam="2">  1       -2 0.26355815E+00 0.91782228E+03</pdfrwt>
<totfact> 0.19726762E+00</totfact>
</mgrwt>
</event>
<event>
 4    1  0.2202466E-008  0.5714646E+03  0.7818608E-02  0.9966443E-01
         -2   -1    0    0    0  501 -0.00000000000E+00  0.00000000000E+00  0.15542489489E+04  0.15542489489E+04  0.25500000000E-02 0.  1.
          2   -1    0    0  501    0  0.00000000000E+00 -0.00000000000E+00 -0.91953625094E+03  0.91953625094E+03  0.25500000000E-02 0. -1.
    8880022    1    1    2    0    0  0.20699861374E+03 -0.51022712002E+03 -0.76906804355E+03  0.95814270791E+03  0.15294330000E+03 0.  0.
    8880022    1    1    2    0    0 -0.20699861374E+03  0.51022712002E+03  0.14037807415E+04  0.15156424919E+04  0.15294330000E+03 0.  0.
<mgrwt>
<rscale>  0 0.57146460E+03</rscale>
<asrwt>0</asrwt>
<pdfrwt beam="1">  1        2 0.14146712E+00 0.57146460E+03</pdfrwt>
<pdfrwt beam="2">  1       -2 0.23911522E+00 0.57146460E+03</pdfrwt>
<totfact> 0.22729302E+00</totfact>
</mgrwt>
</event>
<event>
 4    1  0.2202466E-008  0.8188127E+03  0.7818608E-02  0.9533179E-01
         -2   -1    0    0    0  501 -0.00000000000E+00  0.00000000000E+00  0.12383856442E+04  0.12383856442E+04  0.25500000000E-02 0.  1.
          2   -1    0    0  501    0  0.00000000000E+00 -0.00000000000E+00 -0.21933168855E+04  0.21933168855E+04  0.25500000000E-02 0. -1.
    8880022    1    1    2    0    0  0.52813833455E+03  0.60673916884E+03  0.10116344148E+04  0.13014831392E+04  0.15294330000E+03 0.  0.
    8880022    1    1    2    0    0 -0.52813833455E+03 -0.60673916884E+03 -0.19665656560E+04  0.21302193905E+04  0.15294330000E+03 0.  0.
<mgrwt>
<rscale>  0 0.81881266E+03</rscale>
<asrwt>0</asrwt>
<pdfrwt beam="1">  1        2 0.33743337E+00 0.81881266E+03</pdfrwt>
<pdfrwt beam="2">  1       -2 0.19052087E+00 0.81881266E+03</pdfrwt>
<totfact> 0.82736284E-01</totfact>
</mgrwt>
</event>
<event>
 4    1  0.3474607E-008  0.1442017E+04  0.7818608E-02  0.8923954E-01
          2   -1    0    0  501    0  0.00000000000E+00  0.00000000000E+00  0.17201900854E+04  0.17201900854E+04  0.25500000000E-02 0. -1.
         -2   -1    0    0    0  501 -0.00000000000E+00 -0.00000000000E+00 -0.20537748477E+04  0.20537748477E+04  0.25500000000E-02 0.  1.
    8880022    1    1    2    0    0 -0.10559714029E+04 -0.97002302774E+03 -0.13771297567E+04  0.19939654706E+04  0.15294330000E+03 0.  0.
    8880022    1    1    2    0    0  0.10559714029E+04  0.97002302774E+03  0.10435449945E+04  0.17799994625E+04  0.15294330000E+03 0.  0.
<mgrwt>
<rscale>  0 0.14420166E+04</rscale>
<asrwt>0</asrwt>
<pdfrwt beam="1">  1        2 0.26464463E+00 0.14420166E+04</pdfrwt>
<pdfrwt beam="2">  1       -2 0.31596536E+00 0.14420166E+04</pdfrwt>
<totfact> 0.22927216E-01</totfact>
</mgrwt>
</event>
<event>
 4    1  0.2202466E-008  0.3671328E+03  0.7818608E-02  0.1055795E+00
         -2   -1    0    0    0  501 -0.00000000000E+00  0.00000000000E+00  0.25866451227E+03  0.25866451228E+03  0.25500000000E-02 0.  1.
          2   -1    0    0  501    0  0.00000000000E+00 -0.00000000000E+00 -0.20339524594E+04  0.20339524594E+04  0.25500000000E-02 0. -1.
    8880022    1    1    2    0    0 -0.32919670055E+03 -0.54993997235E+02  0.10098060497E+03  0.38076704556E+03  0.15294330000E+03 0.  0.
    8880022    1    1    2    0    0  0.32919670055E+03  0.54993997235E+02 -0.18762685522E+04  0.19118499262E+04  0.15294330000E+03 0.  0.
<mgrwt>
<rscale>  0 0.36713276E+03</rscale>
<asrwt>0</asrwt>
<pdfrwt beam="1">  1        2 0.31291575E+00 0.36713276E+03</pdfrwt>
<pdfrwt beam="2">  1       -2 0.39794542E-01 0.36713276E+03</pdfrwt>
<totfact> 0.42213273E+01</totfact>
</mgrwt>
</event>
<event>
 4    1  0.2202466E-008  0.4906729E+03  0.7818608E-02  0.1016242E+00
          2   -1    0    0  501    0  0.00000000000E+00  0.00000000000E+00  0.99539742507E+03  0.99539742507E+03  0.25500000000E-02 0. -1.
         -2   -1    0    0    0  501 -0.00000000000E+00 -0.00000000000E+00 -0.77663572769E+03  0.77663572770E+03  0.25500000000E-02 0.  1.
    8880022    1    1    2    0    0  0.46622357908E+03 -0.19543269036E+01  0.84459468815E+03  0.97678046937E+03  0.15294330000E+03 0.  0.
    8880022    1    1    2    0    0 -0.46622357908E+03  0.19543269036E+01 -0.62583299077E+03  0.79525268339E+03  0.15294330000E+03 0.  0.
<mgrwt>
<rscale>  0 0.49067290E+03</rscale>
<asrwt>0</asrwt>
<pdfrwt beam="1">  1        2 0.15313807E+00 0.49067290E+03</pdfrwt>
<pdfrwt beam="2">  1       -2 0.11948242E+00 0.49067290E+03</pdfrwt>
<totfact> 0.14346513E+01</totfact>
</mgrwt>
</event>
<event>
 4    1  0.2202466E-008  0.2154998E+03  0.7818608E-02  0.1137283E+00
          2   -1    0    0  501    0  0.00000000000E+00  0.00000000000E+00  0.62835141714E+03  0.62835141714E+03  0.25500000000E-02 0. -1.
         -2   -1    0    0    0  501 -0.00000000000E+00 -0.00000000000E+00 -0.71029965386E+03  0.71029965386E+03  0.25500000000E-02 0.  1.
    8880022    1    1    2    0    0  0.46408902611E+02 -0.14455008643E+03 -0.67452112958E+03  0.70810939903E+03  0.15294330000E+03 0.  0.
    8880022    1    1    2    0    0 -0.46408902611E+02  0.14455008643E+03  0.59257289286E+03  0.63054167198E+03  0.15294330000E+03 0.  0.
<mgrwt>
<rscale>  0 0.21549981E+03</rscale>
<asrwt>0</asrwt>
<pdfrwt beam="1">  1        2 0.96669448E-01 0.21549981E+03</pdfrwt>
<pdfrwt beam="2">  1       -2 0.10927687E+00 0.21549981E+03</pdfrwt>
<totfact> 0.34165153E+01</totfact>
</mgrwt>
</event>
<event>
 4    1  0.2202466E-008  0.1283742E+04  0.7818608E-02  0.9042558E-01
          2   -1    0    0  501    0  0.00000000000E+00  0.00000000000E+00  0.20942621701E+04  0.20942621701E+04  0.25500000000E-02 0. -1.
         -2   -1    0    0    0  501 -0.00000000000E+00 -0.00000000000E+00 -0.82117080618E+03  0.82117080619E+03  0.25500000000E-02 0.  1.
    8880022    1    1    2    0    0 -0.12735516370E+04  0.51653522461E+02  0.33878855575E+03  0.13276939395E+04  0.15294330000E+03 0.  0.
    8880022    1    1    2    0    0  0.12735516370E+04 -0.51653522461E+02  0.93430280821E+03  0.15877390368E+04  0.15294330000E+03 0.  0.
<mgrwt>
<rscale>  0 0.12837420E+04</rscale>
<asrwt>0</asrwt>
<pdfrwt beam="1">  1        2 0.32219418E+00 0.12837420E+04</pdfrwt>
<pdfrwt beam="2">  1       -2 0.12633397E+00 0.12837420E+04</pdfrwt>
<totfact> 0.26738729E+00</totfact>
</mgrwt>
</event>
<event>
 4    1  0.2202466E-008  0.5808928E+03  0.7818608E-02  0.9945860E-01
         -2   -1    0    0    0  501 -0.00000000000E+00  0.00000000000E+00  0.23844170819E+03  0.23844170821E+03  0.25500000000E-02 0.  1.
          2   -1    0    0  501    0  0.00000000000E+00 -0.00000000000E+00 -0.30977396387E+04  0.30977396387E+04  0.25500000000E-02 0. -1.
    8880022    1    1    2    0    0  0.34253894265E+03 -0.44352217334E+03 -0.26590206595E+04  0.27217324200E+04  0.15294330000E+03 0.  0.
    8880022    1    1    2    0    0 -0.34253894265E+03  0.44352217334E+03 -0.20027727102E+03  0.61444892691E+03  0.15294330000E+03 0.  0.
<mgrwt>
<rscale>  0 0.58089285E+03</rscale>
<asrwt>0</asrwt>
<pdfrwt beam="1">  1        2 0.47657530E+00 0.58089285E+03</pdfrwt>
<pdfrwt beam="2">  1       -2 0.36683342E-01 0.58089285E+03</pdfrwt>
<totfact> 0.11657139E+01</totfact>
</mgrwt>
</event>
<event>
 4    1  0.2202466E-008  0.6907861E+03  0.7818608E-02  0.9733120E-01
          2   -1    0    0  501    0  0.00000000000E+00  0.00000000000E+00  0.12211770063E+04  0.12211770063E+04  0.25500000000E-02 0. -1.
         -2   -1    0    0    0  501 -0.00000000000E+00 -0.00000000000E+00 -0.88447975196E+03  0.88447975197E+03  0.25500000000E-02 0.  1.
    8880022    1    1    2    0    0  0.53600390148E+03 -0.40803630340E+03  0.95494961344E+03  0.11786068999E+04  0.15294330000E+03 0.  0.
    8880022    1    1    2    0    0 -0.53600390148E+03  0.40803630340E+03 -0.61825235912E+03  0.92704985835E+03  0.15294330000E+03 0.  0.
<mgrwt>
<rscale>  0 0.69078612E+03</rscale>
<asrwt>0</asrwt>
<pdfrwt beam="1">  1        2 0.18787339E+00 0.69078612E+03</pdfrwt>
<pdfrwt beam="2">  1       -2 0.13607381E+00 0.69078612E+03</pdfrwt>
<totfact> 0.73203443E+00</totfact>
</mgrwt>
</event>
<event>
 4    1  0.2202466E-008  0.1035058E+04  0.7818608E-02  0.9270908E-01
         -2   -1    0    0    0  501 -0.00000000000E+00  0.00000000000E+00  0.15038618246E+04  0.15038618246E+04  0.25500000000E-02 0.  1.
          2   -1    0    0  501    0  0.00000000000E+00 -0.00000000000E+00 -0.14412732030E+04  0.14412732030E+04  0.25500000000E-02 0. -1.
    8880022    1    1    2    0    0  0.46372336645E+03  0.91264082565E+03  0.10784937786E+04  0.14948221034E+04  0.15294330000E+03 0.  0.
    8880022    1    1    2    0    0 -0.46372336645E+03 -0.91264082565E+03 -0.10159051570E+04  0.14503129243E+04  0.15294330000E+03 0.  0.
<mgrwt>
<rscale>  0 0.10350576E+04</rscale>
<asrwt>0</asrwt>
<pdfrwt beam="1">  1        2 0.22173434E+00 0.10350576E+04</pdfrwt>
<pdfrwt beam="2">  1       -2 0.23136336E+00 0.10350576E+04</pdfrwt>
<totfact> 0.11386521E+00</totfact>
</mgrwt>
</event>
<event>
 4    1  0.2202466E-008  0.1525537E+04  0.7818608E-02  0.8867646E-01
          2   -1    0    0  501    0  0.00000000000E+00  0.00000000000E+00  0.39242015072E+04  0.39242015072E+04  0.25500000000E-02 0. -1.
         -2   -1    0    0    0  501 -0.00000000000E+00 -0.00000000000E+00 -0.86742497634E+03  0.86742497634E+03  0.25500000000E-02 0.  1.
    8880022    1    1    2    0    0  0.90945254314E+03 -0.12152238160E+04  0.28758171757E+04  0.32553938213E+04  0.15294330000E+03 0.  0.
    8880022    1    1    2    0    0 -0.90945254314E+03  0.12152238160E+04  0.18095935516E+03  0.15362326622E+04  0.15294330000E+03 0.  0.
<mgrwt>
<rscale>  0 0.15255374E+04</rscale>
<asrwt>0</asrwt>
<pdfrwt beam="1">  1        2 0.60372331E+00 0.15255374E+04</pdfrwt>
<pdfrwt beam="2">  1       -2 0.13345000E+00 0.15255374E+04</pdfrwt>
<totfact> 0.15329008E-01</totfact>
</mgrwt>
</event>
<event>
 4    1  0.2202466E-008  0.1598576E+04  0.7818608E-02  0.8821424E-01
          2   -1    0    0  501    0  0.00000000000E+00  0.00000000000E+00  0.23293561994E+04  0.23293561994E+04  0.25500000000E-02 0. -1.
         -2   -1    0    0    0  501 -0.00000000000E+00 -0.00000000000E+00 -0.15736838493E+04  0.15736838493E+04  0.25500000000E-02 0.  1.
    8880022    1    1    2    0    0  0.12541199477E+04 -0.97940564452E+03  0.14518307176E+04  0.21594574192E+04  0.15294330000E+03 0.  0.
    8880022    1    1    2    0    0 -0.12541199477E+04  0.97940564452E+03 -0.69615836754E+03  0.17435826294E+04  0.15294330000E+03 0.  0.
<mgrwt>
<rscale>  0 0.15985756E+04</rscale>
<asrwt>0</asrwt>
<pdfrwt beam="1">  1        2 0.35836249E+00 0.15985756E+04</pdfrwt>
<pdfrwt beam="2">  1       -2 0.24210521E+00 0.15985756E+04</pdfrwt>
<totfact> 0.29078823E-01</totfact>
</mgrwt>
</event>
<event>
 4    1  0.2281176E-008  0.9770454E+03  0.7818608E-02  0.9334086E-01
         -2   -1    0    0    0  501 -0.00000000000E+00  0.00000000000E+00  0.15533788387E+04  0.15533788387E+04  0.25500000000E-02 0.  1.
          2   -1    0    0  501    0  0.00000000000E+00 -0.00000000000E+00 -0.25239776905E+04  0.25239776905E+04  0.25500000000E-02 0. -1.
    8880022    1    1    2    0    0 -0.29698994822E+03  0.91816286604E+03  0.12879032069E+04  0.16165742796E+04  0.15294330000E+03 0.  0.
    8880022    1    1    2    0    0  0.29698994822E+03 -0.91816286604E+03 -0.22585020588E+04  0.24607822497E+04  0.15294330000E+03 0.  0.
<mgrwt>
<rscale>  0 0.97704541E+03</rscale>
<asrwt>0</asrwt>
<pdfrwt beam="1">  1        2 0.38830426E+00 0.97704541E+03</pdfrwt>
<pdfrwt beam="2">  1       -2 0.23898136E+00 0.97704541E+03</pdfrwt>
<totfact> 0.25717996E-01</totfact>
</mgrwt>
</event>
<event>
 4    1  0.2202466E-008  0.3574765E+03  0.7818608E-02  0.1059588E+00
          2   -1    0    0  501    0  0.00000000000E+00  0.00000000000E+00  0.61540512887E+03  0.61540512887E+03  0.25500000000E-02 0. -1.
         -2   -1    0    0    0  501 -0.00000000000E+00 -0.00000000000E+00 -0.63772743605E+03  0.63772743606E+03  0.25500000000E-02 0.  1.
    8880022    1    1    2    0    0 -0.17689831427E+03  0.27037893989E+03 -0.52570493872E+03  0.63573195636E+03  0.15294330000E+03 0.  1.
    8880022    1    1    2    0    0  0.17689831427E+03 -0.27037893989E+03  0.50338263153E+03  0.61740060857E+03  0.15294330000E+03 0. -1.
<mgrwt>
<rscale>  0 0.35747649E+03</rscale>
<asrwt>0</asrwt>
<pdfrwt beam="1">  1        2 0.94677712E-01 0.35747649E+03</pdfrwt>
<pdfrwt beam="2">  1       -2 0.98111914E-01 0.35747649E+03</pdfrwt>
<totfact> 0.43845751E+01</totfact>
</mgrwt>
</event>
<event>
 4    1  0.2202466E-008  0.3730667E+03  0.7818608E-02  0.1053526E+00
         -2   -1    0    0    0  501 -0.00000000000E+00  0.00000000000E+00  0.38089066671E+03  0.38089066672E+03  0.25500000000E-02 0.  1.
          2   -1    0    0  501    0  0.00000000000E+00 -0.00000000000E+00 -0.19447748859E+04  0.19447748859E+04  0.25500000000E-02 0. -1.
    8880022    1    1    2    0    0 -0.32223969807E+03  0.10931008913E+03 -0.18298539139E+04  0.18674967517E+04  0.15294330000E+03 0.  0.
    8880022    1    1    2    0    0  0.32223969807E+03 -0.10931008913E+03  0.26596969469E+03  0.45816880089E+03  0.15294330000E+03 0.  0.
<mgrwt>
<rscale>  0 0.37306671E+03</rscale>
<asrwt>0</asrwt>
<pdfrwt beam="1">  1        2 0.29919613E+00 0.37306671E+03</pdfrwt>
<pdfrwt beam="2">  1       -2 0.58598565E-01 0.37306671E+03</pdfrwt>
<totfact> 0.21679246E+01</totfact>
</mgrwt>
</event>
<event>
 4    1  0.2202466E-008  0.4266338E+03  0.7818608E-02  0.1034929E+00
         -2   -1    0    0    0  501 -0.00000000000E+00  0.00000000000E+00  0.65307694928E+03  0.65307694928E+03  0.25500000000E-02 0.  1.
          2   -1    0    0  501    0  0.00000000000E+00 -0.00000000000E+00 -0.46114917399E+03  0.46114917400E+03  0.25500000000E-02 0. -1.
    8880022    1    1    2    0    0  0.36264951324E+03 -0.16465138246E+03  0.44638200289E+03  0.61747331336E+03  0.15294330000E+03 0.  0.
    8880022    1    1    2    0    0 -0.36264951324E+03  0.16465138246E+03 -0.25445422760E+03  0.49675280991E+03  0.15294330000E+03 0.  0.
<mgrwt>
<rscale>  0 0.42663380E+03</rscale>
<asrwt>0</asrwt>
<pdfrwt beam="1">  1        2 0.70946027E-01 0.42663380E+03</pdfrwt>
<pdfrwt beam="2">  1       -2 0.10047338E+00 0.42663380E+03</pdfrwt>
<totfact> 0.57346139E+01</totfact>
</mgrwt>
</event>
<event>
 4    1  0.2202466E-008  0.8462978E+03  0.7818608E-02  0.9495319E-01
         -2   -1    0    0    0  501 -0.00000000000E+00  0.00000000000E+00  0.39013101708E+03  0.39013101709E+03  0.25500000000E-02 0.  1.
          2   -1    0    0  501    0  0.00000000000E+00 -0.00000000000E+00 -0.34964998948E+04  0.34964998948E+04  0.25500000000E-02 0. -1.
    8880022    1    1    2    0    0 -0.12838450189E+03  0.82240241780E+03 -0.21392018949E+03  0.87291569903E+03  0.15294330000E+03 0.  0.
    8880022    1    1    2    0    0  0.12838450189E+03 -0.82240241780E+03 -0.28924486882E+04  0.30137152128E+04  0.15294330000E+03 0.  0.
<mgrwt>
<rscale>  0 0.84629780E+03</rscale>
<asrwt>0</asrwt>
<pdfrwt beam="1">  1        2 0.53792304E+00 0.84629780E+03</pdfrwt>
<pdfrwt beam="2">  1       -2 0.60020159E-01 0.84629780E+03</pdfrwt>
<totfact> 0.22542594E+00</totfact>
</mgrwt>
</event>
<event>
 4    1  0.2202466E-008  0.1041100E+04  0.7818608E-02  0.9264582E-01
          2   -1    0    0  501    0  0.00000000000E+00  0.00000000000E+00  0.24923317289E+04  0.24923317290E+04  0.25500000000E-02 0. -1.
         -2   -1    0    0    0  501 -0.00000000000E+00 -0.00000000000E+00 -0.69332421078E+03  0.69332421078E+03  0.25500000000E-02 0.  1.
    8880022    1    1    2    0    0 -0.20650699194E+03  0.10088863297E+04 -0.72966380574E+02  0.10436534433E+04  0.15294330000E+03 0.  0.
    8880022    1    1    2    0    0  0.20650699194E+03 -0.10088863297E+04  0.18719738987E+04  0.21420024964E+04  0.15294330000E+03 0.  0.
<mgrwt>
<rscale>  0 0.10410996E+04</rscale>
<asrwt>0</asrwt>
<pdfrwt beam="1">  1        2 0.38343565E+00 0.10410996E+04</pdfrwt>
<pdfrwt beam="2">  1       -2 0.10666526E+00 0.10410996E+04</pdfrwt>
<totfact> 0.24945748E+00</totfact>
</mgrwt>
</event>
<event>
 4    1  0.2202466E-008  0.6917984E+03  0.7818608E-02  0.9731362E-01
         -2   -1    0    0    0  501 -0.00000000000E+00  0.00000000000E+00  0.26220795142E+03  0.26220795144E+03  0.25500000000E-02 0.  1.
          2   -1    0    0  501    0  0.00000000000E+00 -0.00000000000E+00 -0.24721390187E+04  0.24721390187E+04  0.25500000000E-02 0. -1.
    8880022    1    1    2    0    0 -0.37827898920E+03 -0.55865767689E+03 -0.18043482490E+04  0.19324227411E+04  0.15294330000E+03 0.  0.
    8880022    1    1    2    0    0  0.37827898920E+03  0.55865767689E+03 -0.40558281827E+03  0.80192422903E+03  0.15294330000E+03 0.  1.
<mgrwt>
<rscale>  0 0.69179841E+03</rscale>
<asrwt>0</asrwt>
<pdfrwt beam="1">  1        2 0.38032906E+00 0.69179841E+03</pdfrwt>
<pdfrwt beam="2">  1       -2 0.40339687E-01 0.69179841E+03</pdfrwt>
<totfact> 0.22153246E+01</totfact>
</mgrwt>
</event>
<event>
 4    1  0.2202466E-008  0.1011806E+04  0.7818608E-02  0.9295690E-01
         -2   -1    0    0    0  501 -0.00000000000E+00  0.00000000000E+00  0.58885354618E+03  0.58885354618E+03  0.25500000000E-02 0.  1.
          2   -1    0    0  501    0  0.00000000000E+00 -0.00000000000E+00 -0.21133758022E+04  0.21133758022E+04  0.25500000000E-02 0. -1.
    8880022    1    1    2    0    0  0.47364215131E+03 -0.88092171711E+03 -0.13312690465E+04  0.16721330349E+04  0.15294330000E+03 0.  0.
    8880022    1    1    2    0    0 -0.47364215131E+03  0.88092171711E+03 -0.19325320959E+03  0.10300963136E+04  0.15294330000E+03 0.  0.
<mgrwt>
<rscale>  0 0.10118061E+04</rscale>
<asrwt>0</asrwt>
<pdfrwt beam="1">  1        2 0.32513473E+00 0.10118061E+04</pdfrwt>
<pdfrwt beam="2">  1       -2 0.90592854E-01 0.10118061E+04</pdfrwt>
<totfact> 0.60201757E+00</totfact>
</mgrwt>
</event>
<event>
 4    1  0.2202466E-008  0.8418554E+03  0.7818608E-02  0.9501334E-01
         -2   -1    0    0    0  501 -0.00000000000E+00  0.00000000000E+00  0.17639216674E+04  0.17639216674E+04  0.25500000000E-02 0.  1.
          2   -1    0    0  501    0  0.00000000000E+00 -0.00000000000E+00 -0.59949242907E+03  0.59949242907E+03  0.25500000000E-02 0. -1.
    8880022    1    1    2    0    0  0.63335980622E+03  0.53308933904E+03 -0.96406592982E+02  0.84735752296E+03  0.15294330000E+03 0.  0.
    8880022    1    1    2    0    0 -0.63335980622E+03 -0.53308933904E+03  0.12608358313E+04  0.15160565735E+04  0.15294330000E+03 0.  0.
<mgrwt>
<rscale>  0 0.84185542E+03</rscale>
<asrwt>0</asrwt>
<pdfrwt beam="1">  1        2 0.92229606E-01 0.84185542E+03</pdfrwt>
<pdfrwt beam="2">  1       -2 0.27137256E+00 0.84185542E+03</pdfrwt>
<totfact> 0.24110118E+00</totfact>
</mgrwt>
</event>
<event>
 4    1  0.2550039E-008  0.7415225E+03  0.7818608E-02  0.9648745E-01
          2   -1    0    0  501    0  0.00000000000E+00  0.00000000000E+00  0.27775829909E+04  0.27775829909E+04  0.25500000000E-02 0. -1.
         -2   -1    0    0    0  501 -0.00000000000E+00 -0.00000000000E+00 -0.13143659147E+04  0.13143659147E+04  0.25500000000E-02 0.  1.
    8880022    1    1    2    0    0 -0.52732467163E+03  0.49839000743E+03  0.26172223924E+04  0.27202405432E+04  0.15294330000E+03 0.  0.
    8880022    1    1    2    0    0  0.52732467163E+03 -0.49839000743E+03 -0.11540053161E+04  0.13717083624E+04  0.15294330000E+03 0.  0.
<mgrwt>
<rscale>  0 0.74152246E+03</rscale>
<asrwt>0</asrwt>
<pdfrwt beam="1">  1        2 0.42732046E+00 0.74152246E+03</pdfrwt>
<pdfrwt beam="2">  1       -2 0.20221014E+00 0.74152246E+03</pdfrwt>
<totfact> 0.32846668E-01</totfact>
</mgrwt>
</event>
<event>
 4    1  0.2202466E-008  0.9981248E+03  0.7818608E-02  0.9310604E-01
         -2   -1    0    0    0  501 -0.00000000000E+00  0.00000000000E+00  0.44978426187E+03  0.44978426188E+03  0.25500000000E-02 0.  1.
          2   -1    0    0  501    0  0.00000000000E+00 -0.00000000000E+00 -0.26719734441E+04  0.26719734441E+04  0.25500000000E-02 0. -1.
    8880022    1    1    2    0    0 -0.97583007215E+03 -0.14358635494E+03 -0.46556106266E+03  0.11013628499E+04  0.15294330000E+03 0.  0.
    8880022    1    1    2    0    0  0.97583007215E+03  0.14358635494E+03 -0.17566281196E+04  0.20203948561E+04  0.15294330000E+03 0.  0.
<mgrwt>
<rscale>  0 0.99812475E+03</rscale>
<asrwt>0</asrwt>
<pdfrwt beam="1">  1        2 0.41107283E+00 0.99812475E+03</pdfrwt>
<pdfrwt beam="2">  1       -2 0.69197580E-01 0.99812475E+03</pdfrwt>
<totfact> 0.53385551E+00</totfact>
</mgrwt>
</event>
<event>
 4    1  0.2202466E-008  0.2002774E+03  0.7818608E-02  0.1149505E+00
          2   -1    0    0  501    0  0.00000000000E+00  0.00000000000E+00  0.13644144079E+04  0.13644144079E+04  0.25500000000E-02 0. -1.
         -2   -1    0    0    0  501 -0.00000000000E+00 -0.00000000000E+00 -0.44959875573E+03  0.44959875574E+03  0.25500000000E-02 0.  1.
    8880022    1    1    2    0    0 -0.10056876546E+03  0.81272935257E+02 -0.41944421281E+03  0.46480583824E+03  0.15294330000E+03 0.  0.
    8880022    1    1    2    0    0  0.10056876546E+03 -0.81272935257E+02  0.13342598650E+04  0.13492073254E+04  0.15294330000E+03 0.  0.
<mgrwt>
<rscale>  0 0.20027736E+03</rscale>
<asrwt>0</asrwt>
<pdfrwt beam="1">  1        2 0.20990991E+00 0.20027736E+03</pdfrwt>
<pdfrwt beam="2">  1       -2 0.69169040E-01 0.20027736E+03</pdfrwt>
<totfact> 0.33001794E+01</totfact>
</mgrwt>
</event>
<event>
 4    1  0.2202466E-008  0.2739079E+03  0.7818608E-02  0.1099064E+00
         -2   -1    0    0    0  501 -0.00000000000E+00  0.00000000000E+00  0.10902362293E+03  0.10902362296E+03  0.25500000000E-02 0.  1.
          2   -1    0    0  501    0  0.00000000000E+00 -0.00000000000E+00 -0.12092956669E+04  0.12092956669E+04  0.25500000000E-02 0. -1.
    8880022    1    1    2    0    0 -0.13369457054E+03  0.18373799527E+03 -0.11742261527E+03  0.29801612824E+03  0.15294330000E+03 0.  0.
    8880022    1    1    2    0    0  0.13369457054E+03 -0.18373799527E+03 -0.98284942868E+03  0.10203031616E+04  0.15294330000E+03 0.  0.
<mgrwt>
<rscale>  0 0.27390791E+03</rscale>
<asrwt>0</asrwt>
<pdfrwt beam="1">  1        2 0.18604548E+00 0.27390791E+03</pdfrwt>
<pdfrwt beam="2">  1       -2 0.16772866E-01 0.27390791E+03</pdfrwt>
<totfact> 0.56256366E+02</totfact>
</mgrwt>
</event>
<event>
 4    1  0.2202466E-008  0.1430737E+04  0.7818608E-02  0.8931865E-01
          2   -1    0    0  501    0  0.00000000000E+00  0.00000000000E+00  0.23590487671E+04  0.23590487671E+04  0.25500000000E-02 0. -1.
         -2   -1    0    0    0  501 -0.00000000000E+00 -0.00000000000E+00 -0.89462489869E+03  0.89462489869E+03  0.25500000000E-02 0.  1.
    8880022    1    1    2    0    0  0.20113072554E+03 -0.14082484334E+04  0.10143018767E+04  0.17538007781E+04  0.15294330000E+03 0.  0.
    8880022    1    1    2    0    0 -0.20113072554E+03  0.14082484334E+04  0.45012199172E+03  0.14998728878E+04  0.15294330000E+03 0.  0.
<mgrwt>
<rscale>  0 0.14307372E+04</rscale>
<asrwt>0</asrwt>
<pdfrwt beam="1">  1        2 0.36293057E+00 0.14307372E+04</pdfrwt>
<pdfrwt beam="2">  1       -2 0.13763460E+00 0.14307372E+04</pdfrwt>
<totfact> 0.15008220E+00</totfact>
</mgrwt>
</event>
<event>
 4    1  0.2202466E-008  0.5733069E+03  0.7818608E-02  0.9962388E-01
         -2   -1    0    0    0  501 -0.00000000000E+00  0.00000000000E+00  0.69597581041E+03  0.69597581042E+03  0.25500000000E-02 0.  1.
          2   -1    0    0  501    0  0.00000000000E+00 -0.00000000000E+00 -0.16334832233E+04  0.16334832233E+04  0.25500000000E-02 0. -1.
    8880022    1    1    2    0    0 -0.97526174694E+01 -0.55244364295E+03  0.51327868152E+03  0.76950357381E+03  0.15294330000E+03 0.  0.
    8880022    1    1    2    0    0  0.97526174694E+01  0.55244364295E+03 -0.14507860944E+04  0.15599554599E+04  0.15294330000E+03 0.  0.
<mgrwt>
<rscale>  0 0.57330685E+03</rscale>
<asrwt>0</asrwt>
<pdfrwt beam="1">  1        2 0.25130511E+00 0.57330685E+03</pdfrwt>
<pdfrwt beam="2">  1       -2 0.10707320E+00 0.57330685E+03</pdfrwt>
<totfact> 0.79268977E+00</totfact>
</mgrwt>
</event>
<event>
 4    1  0.2202466E-008  0.4659910E+03  0.7818608E-02  0.1023058E+00
         -2   -1    0    0    0  501 -0.00000000000E+00  0.00000000000E+00  0.74553531255E+02  0.74553531299E+02  0.25500000000E-02 0.  1.
          2   -1    0    0  501    0  0.00000000000E+00 -0.00000000000E+00 -0.32021905365E+04  0.32021905365E+04  0.25500000000E-02 0. -1.
    8880022    1    1    2    0    0 -0.17476320969E+03 -0.40399729628E+03 -0.10711547393E+04  0.11681267583E+04  0.15294330000E+03 0.  0.
    8880022    1    1    2    0    0  0.17476320969E+03  0.40399729628E+03 -0.20564822659E+04  0.21086173095E+04  0.15294330000E+03 0.  0.
<mgrwt>
<rscale>  0 0.46599104E+03</rscale>
<asrwt>0</asrwt>
<pdfrwt beam="1">  1        2 0.49264459E+00 0.46599104E+03</pdfrwt>
<pdfrwt beam="2">  1       -2 0.11469777E-01 0.46599104E+03</pdfrwt>
<totfact> 0.79200424E+01</totfact>
</mgrwt>
</event>
<event>
 4    1  0.2202466E-008  0.6515127E+03  0.7818608E-02  0.9803945E-01
         -2   -1    0    0    0  501 -0.00000000000E+00  0.00000000000E+00  0.83031075140E+03  0.83031075140E+03  0.25500000000E-02 0.  1.
          2   -1    0    0  501    0  0.00000000000E+00 -0.00000000000E+00 -0.14396987119E+04  0.14396987119E+04  0.25500000000E-02 0. -1.
    8880022    1    1    2    0    0 -0.56096406394E+03  0.29393277875E+03 -0.12161770068E+04  0.13796939242E+04  0.15294330000E+03 0.  0.
    8880022    1    1    2    0    0  0.56096406394E+03 -0.29393277875E+03  0.60678904632E+03  0.89031553913E+03  0.15294330000E+03 0.  0.
<mgrwt>
<rscale>  0 0.65151271E+03</rscale>
<asrwt>0</asrwt>
<pdfrwt beam="1">  1        2 0.22149211E+00 0.65151271E+03</pdfrwt>
<pdfrwt beam="2">  1       -2 0.12774012E+00 0.65151271E+03</pdfrwt>
<totfact> 0.64841560E+00</totfact>
</mgrwt>
</event>
<event>
 4    1  0.2202466E-008  0.1235293E+04  0.7818608E-02  0.9082514E-01
          2   -1    0    0  501    0  0.00000000000E+00  0.00000000000E+00  0.27075902587E+04  0.27075902587E+04  0.25500000000E-02 0. -1.
         -2   -1    0    0    0  501 -0.00000000000E+00 -0.00000000000E+00 -0.95065983038E+03  0.95065983038E+03  0.25500000000E-02 0.  1.
    8880022    1    1    2    0    0 -0.83431050960E+03 -0.89804375323E+03  0.20456245656E+04  0.23896711334E+04  0.15294330000E+03 0.  0.
    8880022    1    1    2    0    0  0.83431050960E+03  0.89804375323E+03 -0.28869413725E+03  0.12685789558E+04  0.15294330000E+03 0.  0.
<mgrwt>
<rscale>  0 0.12352928E+04</rscale>
<asrwt>0</asrwt>
<pdfrwt beam="1">  1        2 0.41655234E+00 0.12352928E+04</pdfrwt>
<pdfrwt beam="2">  1       -2 0.14625536E+00 0.12352928E+04</pdfrwt>
<totfact> 0.82171066E-01</totfact>
</mgrwt>
</event>
<event>
 4    1  0.2202466E-008  0.5800518E+03  0.7818608E-02  0.9947679E-01
         -2   -1    0    0    0  501 -0.00000000000E+00  0.00000000000E+00  0.59622594722E+03  0.59622594723E+03  0.25500000000E-02 0.  1.
          2   -1    0    0  501    0  0.00000000000E+00 -0.00000000000E+00 -0.22643950826E+04  0.22643950826E+04  0.25500000000E-02 0. -1.
    8880022    1    1    2    0    0 -0.42565565880E+03 -0.36316073648E+03  0.40525048597E+03  0.70759315273E+03  0.15294330000E+03 0.  1.
    8880022    1    1    2    0    0  0.42565565880E+03  0.36316073648E+03 -0.20734196213E+04  0.21530278771E+04  0.15294330000E+03 0.  0.
<mgrwt>
<rscale>  0 0.58005182E+03</rscale>
<asrwt>0</asrwt>
<pdfrwt beam="1">  1        2 0.34836847E+00 0.58005182E+03</pdfrwt>
<pdfrwt beam="2">  1       -2 0.91727070E-01 0.58005182E+03</pdfrwt>
<totfact> 0.51804770E+00</totfact>
</mgrwt>
</event>
<event>
 4    1  0.2202466E-008  0.1123233E+04  0.7818608E-02  0.9182839E-01
         -2   -1    0    0    0  501 -0.00000000000E+00  0.00000000000E+00  0.42311770251E+03  0.42311770252E+03  0.25500000000E-02 0.  1.
          2   -1    0    0  501    0  0.00000000000E+00 -0.00000000000E+00 -0.42590524381E+04  0.42590524381E+04  0.25500000000E-02 0. -1.
    8880022    1    1    2    0    0  0.11124454283E+04 -0.26936093470E+02 -0.63593436883E+03  0.12907612322E+04  0.15294330000E+03 0.  0.
    8880022    1    1    2    0    0 -0.11124454283E+04  0.26936093470E+02 -0.32000003667E+04  0.33914089084E+04  0.15294330000E+03 0.  0.
<mgrwt>
<rscale>  0 0.11232329E+04</rscale>
<asrwt>0</asrwt>
<pdfrwt beam="1">  1        2 0.65523881E+00 0.11232329E+04</pdfrwt>
<pdfrwt beam="2">  1       -2 0.65095034E-01 0.11232329E+04</pdfrwt>
<totfact> 0.46728440E-01</totfact>
</mgrwt>
</event>
<event>
 4    1  0.2202466E-008  0.3353906E+03  0.7818608E-02  0.1068776E+00
          2   -1    0    0  501    0  0.00000000000E+00  0.00000000000E+00  0.24779779643E+04  0.24779779643E+04  0.25500000000E-02 0. -1.
         -2   -1    0    0    0  501 -0.00000000000E+00 -0.00000000000E+00 -0.25727810970E+03  0.25727810971E+03  0.25500000000E-02 0.  1.
    8880022    1    1    2    0    0  0.29188788378E+03 -0.62423353222E+02 -0.13077396840E+03  0.35998429903E+03  0.15294330000E+03 0.  0.
    8880022    1    1    2    0    0 -0.29188788378E+03  0.62423353222E+02  0.23514738230E+04  0.23752717750E+04  0.15294330000E+03 0. -1.
<mgrwt>
<rscale>  0 0.33539062E+03</rscale>
<asrwt>0</asrwt>
<pdfrwt beam="1">  1        2 0.38122736E+00 0.33539062E+03</pdfrwt>
<pdfrwt beam="2">  1       -2 0.39581249E-01 0.33539062E+03</pdfrwt>
<totfact> 0.24782786E+01</totfact>
</mgrwt>
</event>
<event>
 4    1  0.2202466E-008  0.1068698E+04  0.7818608E-02  0.9236250E-01
          2   -1    0    0  501    0  0.00000000000E+00  0.00000000000E+00  0.13025382337E+04  0.13025382337E+04  0.25500000000E-02 0. -1.
         -2   -1    0    0    0  501 -0.00000000000E+00 -0.00000000000E+00 -0.13878310538E+04  0.13878310538E+04  0.25500000000E-02 0.  1.
    8880022    1    1    2    0    0 -0.52549764696E+03  0.91791947014E+03  0.77359930557E+03  0.13193071929E+04  0.15294330000E+03 0.  0.
    8880022    1    1    2    0    0  0.52549764696E+03 -0.91791947014E+03 -0.85889212567E+03  0.13710620946E+04  0.15294330000E+03 0.  0.
<mgrwt>
<rscale>  0 0.10686981E+04</rscale>
<asrwt>0</asrwt>
<pdfrwt beam="1">  1        2 0.20039050E+00 0.10686981E+04</pdfrwt>
<pdfrwt beam="2">  1       -2 0.21351247E+00 0.10686981E+04</pdfrwt>
<totfact> 0.17642433E+00</totfact>
</mgrwt>
</event>
<event>
 4    1  0.2202466E-008  0.1534912E+04  0.7818608E-02  0.8861563E-01
         -2   -1    0    0    0  501 -0.00000000000E+00  0.00000000000E+00  0.12839314561E+04  0.12839314561E+04  0.25500000000E-02 0.  1.
          2   -1    0    0  501    0  0.00000000000E+00 -0.00000000000E+00 -0.23062609900E+04  0.23062609900E+04  0.25500000000E-02 0. -1.
    8880022    1    1    2    0    0  0.11249415586E+04 -0.10329910227E+04  0.30032917804E+03  0.15640182964E+04  0.15294330000E+03 0.  0.
    8880022    1    1    2    0    0 -0.11249415586E+04  0.10329910227E+04 -0.13226587120E+04  0.20261741497E+04  0.15294330000E+03 0.  0.
<mgrwt>
<rscale>  0 0.15349123E+04</rscale>
<asrwt>0</asrwt>
<pdfrwt beam="1">  1        2 0.35480938E+00 0.15349123E+04</pdfrwt>
<pdfrwt beam="2">  1       -2 0.19752792E+00 0.15349123E+04</pdfrwt>
<totfact> 0.58113588E-01</totfact>
</mgrwt>
</event>
<event>
 4    1  0.2202466E-008  0.7254608E+03  0.7818608E-02  0.9674655E-01
          2   -1    0    0  501    0  0.00000000000E+00  0.00000000000E+00  0.37814362558E+04  0.37814362558E+04  0.25500000000E-02 0. -1.
         -2   -1    0    0    0  501 -0.00000000000E+00 -0.00000000000E+00 -0.37971144588E+03  0.37971144589E+03  0.25500000000E-02 0.  1.
    8880022    1    1    2    0    0  0.33302000985E+02 -0.70837323049E+03  0.33567997132E+04  0.34342972534E+04  0.15294330000E+03 0.  0.
    8880022    1    1    2    0    0 -0.33302000985E+02  0.70837323049E+03  0.44925096746E+02  0.72685044835E+03  0.15294330000E+03 0.  0.
<mgrwt>
<rscale>  0 0.72546076E+03</rscale>
<asrwt>0</asrwt>
<pdfrwt beam="1">  1        2 0.58175940E+00 0.72546076E+03</pdfrwt>
<pdfrwt beam="2">  1       -2 0.58417148E-01 0.72546076E+03</pdfrwt>
<totfact> 0.15390438E+00</totfact>
</mgrwt>
</event>
<event>
 4    1  0.2202466E-008  0.7803678E+03  0.7818608E-02  0.9588877E-01
          2   -1    0    0  501    0  0.00000000000E+00  0.00000000000E+00  0.27266782516E+04  0.27266782516E+04  0.25500000000E-02 0. -1.
         -2   -1    0    0    0  501 -0.00000000000E+00 -0.00000000000E+00 -0.50580434374E+03  0.50580434375E+03  0.25500000000E-02 0.  1.
    8880022    1    1    2    0    0  0.68100033361E+03  0.34902838767E+03 -0.97369691995E+02  0.78641895941E+03  0.15294330000E+03 0.  0.
    8880022    1    1    2    0    0 -0.68100033361E+03 -0.34902838767E+03  0.23182435998E+04  0.24460636359E+04  0.15294330000E+03 0.  0.
<mgrwt>
<rscale>  0 0.78036781E+03</rscale>
<asrwt>0</asrwt>
<pdfrwt beam="1">  1        2 0.41948895E+00 0.78036781E+03</pdfrwt>
<pdfrwt beam="2">  1       -2 0.77816055E-01 0.78036781E+03</pdfrwt>
<totfact> 0.39584919E+00</totfact>
</mgrwt>
</event>
<event>
 4    1  0.2202466E-008  0.8243664E+03  0.7818608E-02  0.9525402E-01
         -2   -1    0    0    0  501 -0.00000000000E+00  0.00000000000E+00  0.39501121171E+03  0.39501121172E+03  0.25500000000E-02 0.  1.
          2   -1    0    0  501    0  0.00000000000E+00 -0.00000000000E+00 -0.22860617674E+04  0.22860617674E+04  0.25500000000E-02 0. -1.
    8880022    1    1    2    0    0  0.74765238746E+03  0.31177602782E+03 -0.16123480181E+04  0.18108688988E+04  0.15294330000E+03 0.  0.
    8880022    1    1    2    0    0 -0.74765238746E+03 -0.31177602782E+03 -0.27870253757E+03  0.87020408035E+03  0.15294330000E+03 0.  0.
<mgrwt>
<rscale>  0 0.82436645E+03</rscale>
<asrwt>0</asrwt>
<pdfrwt beam="1">  1        2 0.35170180E+00 0.82436645E+03</pdfrwt>
<pdfrwt beam="2">  1       -2 0.60770957E-01 0.82436645E+03</pdfrwt>
<totfact> 0.11996424E+01</totfact>
</mgrwt>
</event>
<event>
 4    1  0.2202466E-008  0.1056208E+04  0.7818608E-02  0.9248958E-01
          2   -1    0    0  501    0  0.00000000000E+00  0.00000000000E+00  0.39349651843E+04  0.39349651843E+04  0.25500000000E-02 0. -1.
         -2   -1    0    0    0  501 -0.00000000000E+00 -0.00000000000E+00 -0.52687705976E+03  0.52687705976E+03  0.25500000000E-02 0.  1.
    8880022    1    1    2    0    0  0.87310581067E+03 -0.57434226014E+03  0.18780838215E+03  0.10727751068E+04  0.15294330000E+03 0.  0.
    8880022    1    1    2    0    0 -0.87310581067E+03  0.57434226014E+03  0.32202797424E+04  0.33890671372E+04  0.15294330000E+03 0.  0.
<mgrwt>
<rscale>  0 0.10562076E+04</rscale>
<asrwt>0</asrwt>
<pdfrwt beam="1">  1        2 0.60537926E+00 0.10562076E+04</pdfrwt>
<pdfrwt beam="2">  1       -2 0.81058008E-01 0.10562076E+04</pdfrwt>
<totfact> 0.53799794E-01</totfact>
</mgrwt>
</event>
<event>
 4    1  0.2202466E-008  0.1762006E+03  0.7818608E-02  0.1171532E+00
         -2   -1    0    0    0  501 -0.00000000000E+00  0.00000000000E+00  0.13045631573E+04  0.13045631573E+04  0.25500000000E-02 0.  1.
          2   -1    0    0  501    0  0.00000000000E+00 -0.00000000000E+00 -0.14190442168E+03  0.14190442171E+03  0.25500000000E-02 0. -1.
    8880022    1    1    2    0    0  0.63116252583E+02 -0.60591523047E+02  0.12411358527E+04  0.12535808119E+04  0.15294330000E+03 0.  0.
    8880022    1    1    2    0    0 -0.63116252583E+02  0.60591523047E+02 -0.78477117110E+02  0.19288676712E+03  0.15294330000E+03 0. -1.
<mgrwt>
<rscale>  0 0.17620059E+03</rscale>
<asrwt>0</asrwt>
<pdfrwt beam="1">  1        2 0.21831449E-01 0.17620059E+03</pdfrwt>
<pdfrwt beam="2">  1       -2 0.20070203E+00 0.17620059E+03</pdfrwt>
<totfact> 0.36639279E+01</totfact>
</mgrwt>
</event>
<event>
 4    1  0.2202466E-008  0.9223952E+03  0.7818608E-02  0.9398011E-01
         -2   -1    0    0    0  501 -0.00000000000E+00  0.00000000000E+00  0.13368533134E+04  0.13368533134E+04  0.25500000000E-02 0.  1.
          2   -1    0    0  501    0  0.00000000000E+00 -0.00000000000E+00 -0.11723760764E+04  0.11723760764E+04  0.25500000000E-02 0. -1.
    8880022    1    1    2    0    0 -0.18493957205E+03  0.89062825482E+03  0.93051547072E+03  0.13102183131E+04  0.15294330000E+03 0.  0.
    8880022    1    1    2    0    0  0.18493957205E+03 -0.89062825482E+03 -0.76603823378E+03  0.11990110768E+04  0.15294330000E+03 0.  0.
<mgrwt>
<rscale>  0 0.92239524E+03</rscale>
<asrwt>0</asrwt>
<pdfrwt beam="1">  1        2 0.18036555E+00 0.92239524E+03</pdfrwt>
<pdfrwt beam="2">  1       -2 0.20566974E+00 0.92239524E+03</pdfrwt>
<totfact> 0.24087638E+00</totfact>
</mgrwt>
</event>
<event>
 4    1  0.2202466E-008  0.1059946E+04  0.7818608E-02  0.9245136E-01
          2   -1    0    0  501    0  0.00000000000E+00  0.00000000000E+00  0.26566549938E+04  0.26566549938E+04  0.25500000000E-02 0. -1.
         -2   -1    0    0    0  501 -0.00000000000E+00 -0.00000000000E+00 -0.16396827509E+04  0.16396827509E+04  0.25500000000E-02 0.  1.
    8880022    1    1    2    0    0 -0.88652677502E+03  0.56050259119E+03  0.23590156785E+04  0.25862017520E+04  0.15294330000E+03 0.  0.
    8880022    1    1    2    0    0  0.88652677502E+03 -0.56050259119E+03 -0.13420434356E+04  0.17101359927E+04  0.15294330000E+03 0.  0.
<mgrwt>
<rscale>  0 0.10599455E+04</rscale>
<asrwt>0</asrwt>
<pdfrwt beam="1">  1        2 0.40871615E+00 0.10599455E+04</pdfrwt>
<pdfrwt beam="2">  1       -2 0.25225889E+00 0.10599455E+04</pdfrwt>
<totfact> 0.17595112E-01</totfact>
</mgrwt>
</event>
<event>
 4    1  0.2202466E-008  0.7988953E+03  0.7818608E-02  0.9561617E-01
          2   -1    0    0  501    0  0.00000000000E+00  0.00000000000E+00  0.46766578778E+04  0.46766578778E+04  0.25500000000E-02 0. -1.
         -2   -1    0    0    0  501 -0.00000000000E+00 -0.00000000000E+00 -0.38296153655E+03  0.38296153655E+03  0.25500000000E-02 0.  1.
    8880022    1    1    2    0    0  0.71890883980E+03  0.31306895864E+03  0.41764430211E+04  0.42521653371E+04  0.15294330000E+03 0.  0.
    8880022    1    1    2    0    0 -0.71890883980E+03 -0.31306895864E+03  0.11725332022E+03  0.80745407729E+03  0.15294330000E+03 0.  0.
<mgrwt>
<rscale>  0 0.79889533E+03</rscale>
<asrwt>0</asrwt>
<pdfrwt beam="1">  1        2 0.71948578E+00 0.79889533E+03</pdfrwt>
<pdfrwt beam="2">  1       -2 0.58917164E-01 0.79889533E+03</pdfrwt>
<totfact> 0.24944170E-01</totfact>
</mgrwt>
</event>
<event>
 4    1  0.2202466E-008  0.9673548E+03  0.7818608E-02  0.9345092E-01
          2   -1    0    0  501    0  0.00000000000E+00  0.00000000000E+00  0.19762011276E+04  0.19762011276E+04  0.25500000000E-02 0. -1.
         -2   -1    0    0    0  501 -0.00000000000E+00 -0.00000000000E+00 -0.88915487558E+03  0.88915487558E+03  0.25500000000E-02 0.  1.
    8880022    1    1    2    0    0  0.31502535718E+03  0.90174428872E+03  0.15230461561E+04  0.18042851727E+04  0.15294330000E+03 0.  0.
    8880022    1    1    2    0    0 -0.31502535718E+03 -0.90174428872E+03 -0.43599990407E+03  0.10610708305E+04  0.15294330000E+03 0.  0.
<mgrwt>
<rscale>  0 0.96735484E+03</rscale>
<asrwt>0</asrwt>
<pdfrwt beam="1">  1        2 0.30403094E+00 0.96735484E+03</pdfrwt>
<pdfrwt beam="2">  1       -2 0.13679306E+00 0.96735484E+03</pdfrwt>
<totfact> 0.26328788E+00</totfact>
</mgrwt>
</event>
<event>
 4    1  0.2202466E-008  0.9301914E+03  0.7818608E-02  0.9388608E-01
         -2   -1    0    0    0  501 -0.00000000000E+00  0.00000000000E+00  0.10824321766E+04  0.10824321766E+04  0.25500000000E-02 0.  1.
          2   -1    0    0  501    0  0.00000000000E+00 -0.00000000000E+00 -0.94541139076E+03  0.94541139076E+03  0.25500000000E-02 0. -1.
    8880022    1    1    2    0    0  0.22720022456E+03  0.88895693788E+03 -0.33000279736E+03  0.98699436610E+03  0.15294330000E+03 0.  0.
    8880022    1    1    2    0    0 -0.22720022456E+03 -0.88895693788E+03  0.46702358316E+03  0.10408492012E+04  0.15294330000E+03 0.  0.
<mgrwt>
<rscale>  0 0.93019140E+03</rscale>
<asrwt>0</asrwt>
<pdfrwt beam="1">  1        2 0.14544791E+00 0.93019140E+03</pdfrwt>
<pdfrwt beam="2">  1       -2 0.16652803E+00 0.93019140E+03</pdfrwt>
<totfact> 0.61594970E+00</totfact>
</mgrwt>
</event>
<event>
 4    1  0.2202466E-008  0.7405666E+03  0.7818608E-02  0.9650267E-01
         -2   -1    0    0    0  501 -0.00000000000E+00  0.00000000000E+00  0.58063699802E+03  0.58063699802E+03  0.25500000000E-02 0.  1.
          2   -1    0    0  501    0  0.00000000000E+00 -0.00000000000E+00 -0.18680004564E+04  0.18680004564E+04  0.25500000000E-02 0. -1.
    8880022    1    1    2    0    0  0.66491743781E+03 -0.28797932369E+03  0.21714056411E+03  0.77174410757E+03  0.15294330000E+03 0.  0.
    8880022    1    1    2    0    0 -0.66491743781E+03  0.28797932369E+03 -0.15045040225E+04  0.16768933468E+04  0.15294330000E+03 0.  0.
<mgrwt>
<rscale>  0 0.74056664E+03</rscale>
<asrwt>0</asrwt>
<pdfrwt beam="1">  1        2 0.28738468E+00 0.74056664E+03</pdfrwt>
<pdfrwt beam="2">  1       -2 0.89328769E-01 0.74056664E+03</pdfrwt>
<totfact> 0.87937684E+00</totfact>
</mgrwt>
</event>
<event>
 4    1  0.2202466E-008  0.7397361E+03  0.7818608E-02  0.9651592E-01
         -2   -1    0    0    0  501 -0.00000000000E+00  0.00000000000E+00  0.43354283449E+03  0.43354283450E+03  0.25500000000E-02 0.  1.
          2   -1    0    0  501    0  0.00000000000E+00 -0.00000000000E+00 -0.20353298233E+04  0.20353298233E+04  0.25500000000E-02 0. -1.
    8880022    1    1    2    0    0 -0.33211154726E+03  0.64305505696E+03 -0.40071885668E+02  0.74082069027E+03  0.15294330000E+03 0.  0.
    8880022    1    1    2    0    0  0.33211154726E+03 -0.64305505696E+03 -0.15617151032E+04  0.17280519676E+04  0.15294330000E+03 0.  0.
<mgrwt>
<rscale>  0 0.73973613E+03</rscale>
<asrwt>0</asrwt>
<pdfrwt beam="1">  1        2 0.31312766E+00 0.73973613E+03</pdfrwt>
<pdfrwt beam="2">  1       -2 0.66698899E-01 0.73973613E+03</pdfrwt>
<totfact> 0.13676941E+01</totfact>
</mgrwt>
</event>
<event>
 4    1  0.2202466E-008  0.1789591E+04  0.7818608E-02  0.8711855E-01
         -2   -1    0    0    0  501 -0.00000000000E+00  0.00000000000E+00  0.35411630844E+04  0.35411630844E+04  0.25500000000E-02 0.  1.
          2   -1    0    0  501    0  0.00000000000E+00 -0.00000000000E+00 -0.11379760389E+04  0.11379760389E+04  0.25500000000E-02 0. -1.
    8880022    1    1    2    0    0  0.17827649627E+04 -0.31495425064E+02  0.14165224188E+03  0.17951879803E+04  0.15294330000E+03 0.  0.
    8880022    1    1    2    0    0 -0.17827649627E+04  0.31495425064E+02  0.22615348037E+04  0.28839511430E+04  0.15294330000E+03 0.  0.
<mgrwt>
<rscale>  0 0.17895906E+04</rscale>
<asrwt>0</asrwt>
<pdfrwt beam="1">  1        2 0.17507324E+00 0.17895906E+04</pdfrwt>
<pdfrwt beam="2">  1       -2 0.54479432E+00 0.17895906E+04</pdfrwt>
<totfact> 0.16877831E-02</totfact>
</mgrwt>
</event>
<event>
 4    1  0.2202466E-008  0.5214017E+03  0.7818608E-02  0.1008339E+00
         -2   -1    0    0    0  501 -0.00000000000E+00  0.00000000000E+00  0.70085896138E+03  0.70085896138E+03  0.25500000000E-02 0.  1.
          2   -1    0    0  501    0  0.00000000000E+00 -0.00000000000E+00 -0.90076596435E+03  0.90076596435E+03  0.25500000000E-02 0. -1.
    8880022    1    1    2    0    0 -0.45622274626E+03 -0.20082044906E+03 -0.70422051596E+03  0.87623412116E+03  0.15294330000E+03 0. -1.
    8880022    1    1    2    0    0  0.45622274626E+03  0.20082044906E+03  0.50431351299E+03  0.72539080458E+03  0.15294330000E+03 0.  0.
<mgrwt>
<rscale>  0 0.52140167E+03</rscale>
<asrwt>0</asrwt>
<pdfrwt beam="1">  1        2 0.13857938E+00 0.52140167E+03</pdfrwt>
<pdfrwt beam="2">  1       -2 0.10782445E+00 0.52140167E+03</pdfrwt>
<totfact> 0.21077942E+01</totfact>
</mgrwt>
</event>
<event>
 4    1  0.2202466E-008  0.3758694E+03  0.7818608E-02  0.1052471E+00
          2   -1    0    0  501    0  0.00000000000E+00  0.00000000000E+00  0.12299673331E+04  0.12299673331E+04  0.25500000000E-02 0. -1.
         -2   -1    0    0    0  501 -0.00000000000E+00 -0.00000000000E+00 -0.13095656098E+04  0.13095656098E+04  0.25500000000E-02 0.  1.
    8880022    1    1    2    0    0 -0.33804043706E+03 -0.60123099219E+02  0.11730034769E+04  0.12317527893E+04  0.15294330000E+03 0.  0.
    8880022    1    1    2    0    0  0.33804043706E+03  0.60123099219E+02 -0.12526017536E+04  0.13077801537E+04  0.15294330000E+03 0.  1.
<mgrwt>
<rscale>  0 0.37586936E+03</rscale>
<asrwt>0</asrwt>
<pdfrwt beam="1">  1        2 0.18922574E+00 0.37586936E+03</pdfrwt>
<pdfrwt beam="2">  1       -2 0.20147163E+00 0.37586936E+03</pdfrwt>
<totfact> 0.26483474E+00</totfact>
</mgrwt>
</event>
<event>
 4    1  0.2202466E-008  0.1665419E+04  0.7818608E-02  0.8781337E-01
         -2   -1    0    0    0  501 -0.00000000000E+00  0.00000000000E+00  0.18514219332E+04  0.18514219332E+04  0.25500000000E-02 0.  1.
          2   -1    0    0  501    0  0.00000000000E+00 -0.00000000000E+00 -0.22261272796E+04  0.22261272796E+04  0.25500000000E-02 0. -1.
    8880022    1    1    2    0    0  0.70641116306E+03  0.15004039359E+04  0.97856320134E+03  0.19316330641E+04  0.15294330000E+03 0.  0.
    8880022    1    1    2    0    0 -0.70641116306E+03 -0.15004039359E+04 -0.13532685478E+04  0.21459161488E+04  0.15294330000E+03 0.  0.
<mgrwt>
<rscale>  0 0.16654190E+04</rscale>
<asrwt>0</asrwt>
<pdfrwt beam="1">  1        2 0.34248112E+00 0.16654190E+04</pdfrwt>
<pdfrwt beam="2">  1       -2 0.28483415E+00 0.16654190E+04</pdfrwt>
<totfact> 0.18063615E-01</totfact>
</mgrwt>
</event>
<event>
 4    1  0.2754402E-008  0.1562939E+04  0.7818608E-02  0.8843645E-01
          2   -1    0    0  501    0  0.00000000000E+00  0.00000000000E+00  0.16066971444E+04  0.16066971444E+04  0.25500000000E-02 0. -1.
         -2   -1    0    0    0  501 -0.00000000000E+00 -0.00000000000E+00 -0.24275167147E+04  0.24275167147E+04  0.25500000000E-02 0.  1.
    8880022    1    1    2    0    0  0.78117125670E+01 -0.15554184462E+04 -0.16434743458E+04  0.22679918747E+04  0.15294330000E+03 0.  0.
    8880022    1    1    2    0    0 -0.78117125670E+01  0.15554184462E+04  0.82265477550E+03  0.17662219844E+04  0.15294330000E+03 0.  0.
<mgrwt>
<rscale>  0 0.15629393E+04</rscale>
<asrwt>0</asrwt>
<pdfrwt beam="1">  1        2 0.24718418E+00 0.15629393E+04</pdfrwt>
<pdfrwt beam="2">  1       -2 0.37346411E+00 0.15629393E+04</pdfrwt>
<totfact> 0.11397950E-01</totfact>
</mgrwt>
</event>
<event>
 4    1  0.2202466E-008  0.1132051E+04  0.7818608E-02  0.9174504E-01
         -2   -1    0    0    0  501 -0.00000000000E+00  0.00000000000E+00  0.25099588727E+04  0.25099588727E+04  0.25500000000E-02 0.  1.
          2   -1    0    0  501    0  0.00000000000E+00 -0.00000000000E+00 -0.12959732201E+04  0.12959732201E+04  0.25500000000E-02 0. -1.
    8880022    1    1    2    0    0 -0.12490278521E+03  0.11146958428E+04 -0.87442005733E+03  0.14304368624E+04  0.15294330000E+03 0.  0.
    8880022    1    1    2    0    0  0.12490278521E+03 -0.11146958428E+04  0.20884057099E+04  0.23754952305E+04  0.15294330000E+03 0.  0.
<mgrwt>
<rscale>  0 0.11320509E+04</rscale>
<asrwt>0</asrwt>
<pdfrwt beam="1">  1        2 0.19938050E+00 0.11320509E+04</pdfrwt>
<pdfrwt beam="2">  1       -2 0.38614752E+00 0.11320509E+04</pdfrwt>
<totfact> 0.15088853E-01</totfact>
</mgrwt>
</event>
<event>
 4    1  0.2202466E-008  0.1071385E+04  0.7818608E-02  0.9233540E-01
         -2   -1    0    0    0  501 -0.00000000000E+00  0.00000000000E+00  0.11730797108E+04  0.11730797108E+04  0.25500000000E-02 0.  1.
          2   -1    0    0  501    0  0.00000000000E+00 -0.00000000000E+00 -0.13099832287E+04  0.13099832287E+04  0.25500000000E-02 0. -1.
    8880022    1    1    2    0    0  0.10314860165E+04 -0.24598771143E+03  0.55607637587E+03  0.12070981506E+04  0.15294330000E+03 0.  0.
    8880022    1    1    2    0    0 -0.10314860165E+04  0.24598771143E+03 -0.69297989377E+03  0.12759647889E+04  0.15294330000E+03 0.  0.
<mgrwt>
<rscale>  0 0.10713846E+04</rscale>
<asrwt>0</asrwt>
<pdfrwt beam="1">  1        2 0.20153588E+00 0.10713846E+04</pdfrwt>
<pdfrwt beam="2">  1       -2 0.18047380E+00 0.10713846E+04</pdfrwt>
<totfact> 0.28878328E+00</totfact>
</mgrwt>
</event>
<event>
 4    1  0.3168952E-008  0.1183781E+04  0.7818608E-02  0.9127173E-01
         -2   -1    0    0    0  501 -0.00000000000E+00  0.00000000000E+00  0.23439865088E+04  0.23439865088E+04  0.25500000000E-02 0.  1.
          2   -1    0    0  501    0  0.00000000000E+00 -0.00000000000E+00 -0.24150762126E+04  0.24150762126E+04  0.25500000000E-02 0. -1.
    8880022    1    1    2    0    0 -0.68941935524E+03 -0.95007694097E+03  0.20285578207E+04  0.23486983046E+04  0.15294330000E+03 0.  0.
    8880022    1    1    2    0    0  0.68941935524E+03  0.95007694097E+03 -0.20996475246E+04  0.24103644168E+04  0.15294330000E+03 0.  0.
<mgrwt>
<rscale>  0 0.11837808E+04</rscale>
<asrwt>0</asrwt>
<pdfrwt beam="1">  1        2 0.37155019E+00 0.11837808E+04</pdfrwt>
<pdfrwt beam="2">  1       -2 0.36061331E+00 0.11837808E+04</pdfrwt>
<totfact> 0.51357119E-02</totfact>
</mgrwt>
</event>
<event>
 4    1  0.2202466E-008  0.1306368E+04  0.7818608E-02  0.9024530E-01
          2   -1    0    0  501    0  0.00000000000E+00  0.00000000000E+00  0.16239304153E+04  0.16239304153E+04  0.25500000000E-02 0. -1.
         -2   -1    0    0    0  501 -0.00000000000E+00 -0.00000000000E+00 -0.12819106192E+04  0.12819106192E+04  0.25500000000E-02 0.  1.
    8880022    1    1    2    0    0 -0.21069256105E+03  0.12801621270E+04 -0.44576032130E+03  0.13803261729E+04  0.15294330000E+03 0.  0.
    8880022    1    1    2    0    0  0.21069256105E+03 -0.12801621270E+04  0.78778011735E+03  0.15255148616E+04  0.15294330000E+03 0.  0.
<mgrwt>
<rscale>  0 0.13063683E+04</rscale>
<asrwt>0</asrwt>
<pdfrwt beam="1">  1        2 0.24983545E+00 0.13063683E+04</pdfrwt>
<pdfrwt beam="2">  1       -2 0.19721702E+00 0.13063683E+04</pdfrwt>
<totfact> 0.14388036E+00</totfact>
</mgrwt>
</event>
<event>
 4    1  0.2202466E-008  0.1041947E+04  0.7818608E-02  0.9263698E-01
         -2   -1    0    0    0  501 -0.00000000000E+00  0.00000000000E+00  0.99138263674E+03  0.99138263674E+03  0.25500000000E-02 0.  1.
          2   -1    0    0  501    0  0.00000000000E+00 -0.00000000000E+00 -0.40219644406E+04  0.40219644406E+04  0.25500000000E-02 0. -1.
    8880022    1    1    2    0    0  0.42633498390E+03 -0.93834988944E+03 -0.36536501722E+04  0.37993174739E+04  0.15294330000E+03 0.  0.
    8880022    1    1    2    0    0 -0.42633498390E+03  0.93834988944E+03  0.62306836832E+03  0.12140296035E+04  0.15294330000E+03 0.  0.
<mgrwt>
<rscale>  0 0.10419471E+04</rscale>
<asrwt>0</asrwt>
<pdfrwt beam="1">  1        2 0.61876375E+00 0.10419471E+04</pdfrwt>
<pdfrwt beam="2">  1       -2 0.15252041E+00 0.10419471E+04</pdfrwt>
<totfact> 0.97826112E-02</totfact>
</mgrwt>
</event>
<event>
 4    1  0.2202466E-008  0.3668122E+03  0.7818608E-02  0.1055919E+00
          2   -1    0    0  501    0  0.00000000000E+00  0.00000000000E+00  0.26119465530E+04  0.26119465530E+04  0.25500000000E-02 0. -1.
         -2   -1    0    0    0  501 -0.00000000000E+00 -0.00000000000E+00 -0.19204798904E+03  0.19204798906E+03  0.25500000000E-02 0.  1.
    8880022    1    1    2    0    0 -0.32017268105E+03  0.93000084867E+02  0.24092644555E+04  0.24370281966E+04  0.15294330000E+03 0.  0.
    8880022    1    1    2    0    0  0.32017268105E+03 -0.93000084867E+02  0.10634108534E+02  0.36696634554E+03  0.15294330000E+03 0.  0.
<mgrwt>
<rscale>  0 0.36681223E+03</rscale>
<asrwt>0</asrwt>
<pdfrwt beam="1">  1        2 0.40183794E+00 0.36681223E+03</pdfrwt>
<pdfrwt beam="2">  1       -2 0.29545844E-01 0.36681223E+03</pdfrwt>
<totfact> 0.35738257E+01</totfact>
</mgrwt>
</event>
<event>
 4    1  0.2202466E-008  0.6086946E+03  0.7818608E-02  0.9887530E-01
          2   -1    0    0  501    0  0.00000000000E+00  0.00000000000E+00  0.11284383974E+04  0.11284383974E+04  0.25500000000E-02 0. -1.
         -2   -1    0    0    0  501 -0.00000000000E+00 -0.00000000000E+00 -0.74108485139E+03  0.74108485140E+03  0.25500000000E-02 0.  1.
    8880022    1    1    2    0    0 -0.42254966913E+02  0.58764955584E+03 -0.50392700536E+03  0.79022247655E+03  0.15294330000E+03 0.  0.
    8880022    1    1    2    0    0  0.42254966913E+02 -0.58764955584E+03  0.89128055133E+03  0.10793007722E+04  0.15294330000E+03 0.  0.
<mgrwt>
<rscale>  0 0.60869462E+03</rscale>
<asrwt>0</asrwt>
<pdfrwt beam="1">  1        2 0.17360591E+00 0.60869462E+03</pdfrwt>
<pdfrwt beam="2">  1       -2 0.11401305E+00 0.60869462E+03</pdfrwt>
<totfact> 0.13076069E+01</totfact>
</mgrwt>
</event>
<event>
 4    1  0.2202466E-008  0.1894796E+04  0.7818608E-02  0.8657451E-01
          2   -1    0    0  501    0  0.00000000000E+00  0.00000000000E+00  0.25378310765E+04  0.25378310765E+04  0.25500000000E-02 0. -1.
         -2   -1    0    0    0  501 -0.00000000000E+00 -0.00000000000E+00 -0.18002100300E+04  0.18002100300E+04  0.25500000000E-02 0.  1.
    8880022    1    1    2    0    0  0.11811102302E+04 -0.14737158402E+04  0.13725568363E+04  0.23396930729E+04  0.15294330000E+03 0.  0.
    8880022    1    1    2    0    0 -0.11811102302E+04  0.14737158402E+04 -0.63493578973E+03  0.19983480336E+04  0.15294330000E+03 0.  0.
<mgrwt>
<rscale>  0 0.18947959E+04</rscale>
<asrwt>0</asrwt>
<pdfrwt beam="1">  1        2 0.39043555E+00 0.18947959E+04</pdfrwt>
<pdfrwt beam="2">  1       -2 0.27695539E+00 0.18947959E+04</pdfrwt>
<totfact> 0.13044770E-01</totfact>
</mgrwt>
</event>
<event>
 4    1  0.2202466E-008  0.8507675E+03  0.7818608E-02  0.9489307E-01
         -2   -1    0    0    0  501 -0.00000000000E+00  0.00000000000E+00  0.10050803432E+04  0.10050803432E+04  0.25500000000E-02 0.  1.
          2   -1    0    0  501    0  0.00000000000E+00 -0.00000000000E+00 -0.23037302441E+04  0.23037302441E+04  0.25500000000E-02 0. -1.
    8880022    1    1    2    0    0 -0.70734623022E+03  0.44729738121E+03  0.72233541423E+03  0.11160527498E+04  0.15294330000E+03 0.  0.
    8880022    1    1    2    0    0  0.70734623022E+03 -0.44729738121E+03 -0.20209853152E+04  0.21927578375E+04  0.15294330000E+03 0.  0.
<mgrwt>
<rscale>  0 0.85076747E+03</rscale>
<asrwt>0</asrwt>
<pdfrwt beam="1">  1        2 0.35442004E+00 0.85076747E+03</pdfrwt>
<pdfrwt beam="2">  1       -2 0.15462775E+00 0.85076747E+03</pdfrwt>
<totfact> 0.12800009E+00</totfact>
</mgrwt>
</event>
<event>
 4    1  0.2202466E-008  0.4517591E+03  0.7818608E-02  0.1027199E+00
          2   -1    0    0  501    0  0.00000000000E+00  0.00000000000E+00  0.16157562146E+04  0.16157562146E+04  0.25500000000E-02 0. -1.
         -2   -1    0    0    0  501 -0.00000000000E+00 -0.00000000000E+00 -0.28175981768E+03  0.28175981769E+03  0.25500000000E-02 0.  1.
    8880022    1    1    2    0    0  0.41366699521E+03  0.97848033179E+02 -0.37712632408E+02  0.45333047127E+03  0.15294330000E+03 0.  0.
    8880022    1    1    2    0    0 -0.41366699521E+03 -0.97848033179E+02  0.13717090293E+04  0.14441855610E+04  0.15294330000E+03 0.  0.
<mgrwt>
<rscale>  0 0.45175909E+03</rscale>
<asrwt>0</asrwt>
<pdfrwt beam="1">  1        2 0.24857788E+00 0.45175909E+03</pdfrwt>
<pdfrwt beam="2">  1       -2 0.43347665E-01 0.45175909E+03</pdfrwt>
<totfact> 0.58732718E+01</totfact>
</mgrwt>
</event>
<event>
 4    1  0.2202466E-008  0.2724343E+03  0.7818608E-02  0.1099894E+00
         -2   -1    0    0    0  501 -0.00000000000E+00  0.00000000000E+00  0.60729306445E+02  0.60729306499E+02  0.25500000000E-02 0.  1.
          2   -1    0    0  501    0  0.00000000000E+00 -0.00000000000E+00 -0.22475950232E+04  0.22475950232E+04  0.25500000000E-02 0. -1.
    8880022    1    1    2    0    0  0.15185683844E+01 -0.22544735442E+03 -0.31384784530E+03  0.41559708695E+03  0.15294330000E+03 0.  0.
    8880022    1    1    2    0    0 -0.15185683844E+01  0.22544735442E+03 -0.18730178714E+04  0.18927272427E+04  0.15294330000E+03 0. -1.
<mgrwt>
<rscale>  0 0.27243434E+03</rscale>
<asrwt>0</asrwt>
<pdfrwt beam="1">  1        2 0.34578379E+00 0.27243434E+03</pdfrwt>
<pdfrwt beam="2">  1       -2 0.93429720E-02 0.27243434E+03</pdfrwt>
<totfact> 0.40679063E+02</totfact>
</mgrwt>
</event>
<event>
 4    1  0.2202466E-008  0.3813772E+03  0.7818608E-02  0.1050426E+00
          2   -1    0    0  501    0  0.00000000000E+00  0.00000000000E+00  0.14739430290E+04  0.14739430290E+04  0.25500000000E-02 0. -1.
         -2   -1    0    0    0  501 -0.00000000000E+00 -0.00000000000E+00 -0.15385595790E+03  0.15385595792E+03  0.25500000000E-02 0.  1.
    8880022    1    1    2    0    0 -0.29474642495E+03  0.18756728328E+03  0.17263981691E+03  0.41863241654E+03  0.15294330000E+03 0.  0.
    8880022    1    1    2    0    0  0.29474642495E+03 -0.18756728328E+03  0.11474472542E+04  0.12091665704E+04  0.15294330000E+03 0.  0.
<mgrwt>
<rscale>  0 0.38137723E+03</rscale>
<asrwt>0</asrwt>
<pdfrwt beam="1">  1        2 0.22676047E+00 0.38137723E+03</pdfrwt>
<pdfrwt beam="2">  1       -2 0.23670147E-01 0.38137723E+03</pdfrwt>
<totfact> 0.21858823E+02</totfact>
</mgrwt>
</event>
<event>
 4    1  0.2202466E-008  0.6606639E+03  0.7818608E-02  0.9786972E-01
          2   -1    0    0  501    0  0.00000000000E+00  0.00000000000E+00  0.21511826171E+04  0.21511826171E+04  0.25500000000E-02 0. -1.
         -2   -1    0    0    0  501 -0.00000000000E+00 -0.00000000000E+00 -0.52913236861E+03  0.52913236862E+03  0.25500000000E-02 0.  1.
    8880022    1    1    2    0    0 -0.45709565926E+03  0.45182821511E+03  0.18633179702E+04  0.19769751361E+04  0.15294330000E+03 0. -1.
    8880022    1    1    2    0    0  0.45709565926E+03 -0.45182821511E+03 -0.24126772162E+03  0.70333984971E+03  0.15294330000E+03 0.  0.
<mgrwt>
<rscale>  0 0.66066393E+03</rscale>
<asrwt>0</asrwt>
<pdfrwt beam="1">  1        2 0.33095117E+00 0.66066393E+03</pdfrwt>
<pdfrwt beam="2">  1       -2 0.81404980E-01 0.66066393E+03</pdfrwt>
<totfact> 0.77177265E+00</totfact>
</mgrwt>
</event>
<event>
 4    1  0.2202466E-008  0.6915446E+03  0.7818608E-02  0.9731802E-01
          2   -1    0    0  501    0  0.00000000000E+00  0.00000000000E+00  0.11781852984E+04  0.11781852985E+04  0.25500000000E-02 0. -1.
         -2   -1    0    0    0  501 -0.00000000000E+00 -0.00000000000E+00 -0.65331455553E+03  0.65331455553E+03  0.25500000000E-02 0.  1.
    8880022    1    1    2    0    0  0.53659227181E+03 -0.40854737626E+03 -0.30110111832E+03  0.75425178905E+03  0.15294330000E+03 0.  0.
    8880022    1    1    2    0    0 -0.53659227181E+03  0.40854737626E+03  0.82597186125E+03  0.10772480649E+04  0.15294330000E+03 0.  0.
<mgrwt>
<rscale>  0 0.69154456E+03</rscale>
<asrwt>0</asrwt>
<pdfrwt beam="1">  1        2 0.18125928E+00 0.69154456E+03</pdfrwt>
<pdfrwt beam="2">  1       -2 0.10050993E+00 0.69154456E+03</pdfrwt>
<totfact> 0.16347412E+01</totfact>
</mgrwt>
</event>
<event>
 4    1  0.2202466E-008  0.6317380E+03  0.7818608E-02  0.9841663E-01
         -2   -1    0    0    0  501 -0.00000000000E+00  0.00000000000E+00  0.44854564747E+03  0.44854564748E+03  0.25500000000E-02 0.  1.
          2   -1    0    0  501    0  0.00000000000E+00 -0.00000000000E+00 -0.19639891484E+04  0.19639891484E+04  0.25500000000E-02 0. -1.
    8880022    1    1    2    0    0 -0.45293834276E+03  0.41297469178E+03  0.13440139223E+03  0.64587663345E+03  0.15294330000E+03 0.  0.
    8880022    1    1    2    0    0  0.45293834276E+03 -0.41297469178E+03 -0.16498448932E+04  0.17666581624E+04  0.15294330000E+03 0.  0.
<mgrwt>
<rscale>  0 0.63173799E+03</rscale>
<asrwt>0</asrwt>
<pdfrwt beam="1">  1        2 0.30215217E+00 0.63173799E+03</pdfrwt>
<pdfrwt beam="2">  1       -2 0.69007024E-01 0.63173799E+03</pdfrwt>
<totfact> 0.14136549E+01</totfact>
</mgrwt>
</event>
<event>
 4    1  0.2202466E-008  0.2066058E+04  0.7818608E-02  0.8576344E-01
          2   -1    0    0  501    0  0.00000000000E+00  0.00000000000E+00  0.26563233160E+04  0.26563233160E+04  0.25500000000E-02 0. -1.
         -2   -1    0    0    0  501 -0.00000000000E+00 -0.00000000000E+00 -0.21497439671E+04  0.21497439671E+04  0.25500000000E-02 0.  1.
    8880022    1    1    2    0    0  0.20447023443E+03  0.20502188109E+04  0.14607733107E+04  0.25303074058E+04  0.15294330000E+03 0.  0.
    8880022    1    1    2    0    0 -0.20447023443E+03 -0.20502188109E+04 -0.95419396179E+03  0.22757598773E+04  0.15294330000E+03 0.  0.
<mgrwt>
<rscale>  0 0.20660583E+04</rscale>
<asrwt>0</asrwt>
<pdfrwt beam="1">  1        2 0.40866512E+00 0.20660583E+04</pdfrwt>
<pdfrwt beam="2">  1       -2 0.33072984E+00 0.20660583E+04</pdfrwt>
<totfact> 0.50857466E-02</totfact>
</mgrwt>
</event>
<event>
 4    1  0.2202466E-008  0.6258015E+03  0.7818608E-02  0.9853276E-01
         -2   -1    0    0    0  501 -0.00000000000E+00  0.00000000000E+00  0.27285954416E+03  0.27285954417E+03  0.25500000000E-02 0.  1.
          2   -1    0    0  501    0  0.00000000000E+00 -0.00000000000E+00 -0.40842635743E+04  0.40842635743E+04  0.25500000000E-02 0. -1.
    8880022    1    1    2    0    0 -0.36542943897E+03  0.48445553572E+03 -0.15120232792E+03  0.64380869669E+03  0.15294330000E+03 0.  0.
    8880022    1    1    2    0    0  0.36542943897E+03 -0.48445553572E+03 -0.36602017022E+04  0.37133144217E+04  0.15294330000E+03 0.  0.
<mgrwt>
<rscale>  0 0.62580148E+03</rscale>
<asrwt>0</asrwt>
<pdfrwt beam="1">  1        2 0.62834820E+00 0.62580148E+03</pdfrwt>
<pdfrwt beam="2">  1       -2 0.41978394E-01 0.62580148E+03</pdfrwt>
<totfact> 0.18069677E+00</totfact>
</mgrwt>
</event>
<event>
 4    1  0.2202466E-008  0.1985027E+04  0.7818608E-02  0.8613653E-01
         -2   -1    0    0    0  501 -0.00000000000E+00  0.00000000000E+00  0.23881210741E+04  0.23881210741E+04  0.25500000000E-02 0.  1.
          2   -1    0    0  501    0  0.00000000000E+00 -0.00000000000E+00 -0.33422302029E+04  0.33422302029E+04  0.25500000000E-02 0. -1.
    8880022    1    1    2    0    0 -0.15471216834E+04 -0.12342429649E+04  0.15617067625E+04  0.25257198706E+04  0.15294330000E+03 0.  0.
    8880022    1    1    2    0    0  0.15471216834E+04  0.12342429649E+04 -0.25158158913E+04  0.32046314065E+04  0.15294330000E+03 0.  0.
<mgrwt>
<rscale>  0 0.19850272E+04</rscale>
<asrwt>0</asrwt>
<pdfrwt beam="1">  1        2 0.51418926E+00 0.19850272E+04</pdfrwt>
<pdfrwt beam="2">  1       -2 0.36740324E+00 0.19850272E+04</pdfrwt>
<totfact> 0.11114321E-02</totfact>
</mgrwt>
</event>
<event>
 4    1  0.2202466E-008  0.1936103E+04  0.7818608E-02  0.8637092E-01
         -2   -1    0    0    0  501 -0.00000000000E+00  0.00000000000E+00  0.19894010438E+04  0.19894010438E+04  0.25500000000E-02 0.  1.
          2   -1    0    0  501    0  0.00000000000E+00 -0.00000000000E+00 -0.22584132536E+04  0.22584132536E+04  0.25500000000E-02 0. -1.
    8880022    1    1    2    0    0 -0.17932434183E+04 -0.71370819826E+03 -0.99902574338E+03  0.21786567969E+04  0.15294330000E+03 0.  0.
    8880022    1    1    2    0    0  0.17932434183E+04  0.71370819826E+03  0.73001353362E+03  0.20691575005E+04  0.15294330000E+03 0.  0.
<mgrwt>
<rscale>  0 0.19361025E+04</rscale>
<asrwt>0</asrwt>
<pdfrwt beam="1">  1        2 0.34744819E+00 0.19361025E+04</pdfrwt>
<pdfrwt beam="2">  1       -2 0.30606170E+00 0.19361025E+04</pdfrwt>
<totfact> 0.12477503E-01</totfact>
</mgrwt>
</event>
<event>
 4    1  0.2202466E-008  0.6878391E+03  0.7818608E-02  0.9738258E-01
          2   -1    0    0  501    0  0.00000000000E+00  0.00000000000E+00  0.18275508730E+04  0.18275508730E+04  0.25500000000E-02 0. -1.
         -2   -1    0    0    0  501 -0.00000000000E+00 -0.00000000000E+00 -0.60962514812E+03  0.60962514813E+03  0.25500000000E-02 0.  1.
    8880022    1    1    2    0    0 -0.23353479848E+03 -0.62864340130E+03  0.15332760767E+04  0.16804934420E+04  0.15294330000E+03 0. -1.
    8880022    1    1    2    0    0  0.23353479848E+03  0.62864340130E+03 -0.31535035188E+03  0.75668257911E+03  0.15294330000E+03 0.  0.
<mgrwt>
<rscale>  0 0.68783914E+03</rscale>
<asrwt>0</asrwt>
<pdfrwt beam="1">  1        2 0.28116168E+00 0.68783914E+03</pdfrwt>
<pdfrwt beam="2">  1       -2 0.93788483E-01 0.68783914E+03</pdfrwt>
<totfact> 0.83335016E+00</totfact>
</mgrwt>
</event>
<event>
 4    1  0.2202466E-008  0.4906352E+03  0.7818608E-02  0.1016253E+00
         -2   -1    0    0    0  501 -0.00000000000E+00  0.00000000000E+00  0.20832041914E+03  0.20832041915E+03  0.25500000000E-02 0.  1.
          2   -1    0    0  501    0  0.00000000000E+00 -0.00000000000E+00 -0.31898299394E+04  0.31898299394E+04  0.25500000000E-02 0. -1.
    8880022    1    1    2    0    0 -0.46437190816E+03 -0.41109924825E+02 -0.28476148429E+04  0.28895731937E+04  0.15294330000E+03 0.  0.
    8880022    1    1    2    0    0  0.46437190816E+03  0.41109924825E+02 -0.13389467735E+03  0.50857716488E+03  0.15294330000E+03 0.  0.
<mgrwt>
<rscale>  0 0.49063525E+03</rscale>
<asrwt>0</asrwt>
<pdfrwt beam="1">  1        2 0.49074303E+00 0.49063525E+03</pdfrwt>
<pdfrwt beam="2">  1       -2 0.32049298E-01 0.49063525E+03</pdfrwt>
<totfact> 0.13488290E+01</totfact>
</mgrwt>
</event>
<event>
 4    1  0.2202466E-008  0.1053907E+04  0.7818608E-02  0.9251319E-01
         -2   -1    0    0    0  501 -0.00000000000E+00  0.00000000000E+00  0.19950128786E+04  0.19950128786E+04  0.25500000000E-02 0.  1.
          2   -1    0    0  501    0  0.00000000000E+00 -0.00000000000E+00 -0.90226454415E+03  0.90226454416E+03  0.25500000000E-02 0. -1.
    8880022    1    1    2    0    0  0.68648164787E+03  0.78490226042E+03 -0.35007837183E+03  0.11105292120E+04  0.15294330000E+03 0.  0.
    8880022    1    1    2    0    0 -0.68648164787E+03 -0.78490226042E+03  0.14428267063E+04  0.17867482108E+04  0.15294330000E+03 0.  0.
<mgrwt>
<rscale>  0 0.10539071E+04</rscale>
<asrwt>0</asrwt>
<pdfrwt beam="1">  1        2 0.13880993E+00 0.10539071E+04</pdfrwt>
<pdfrwt beam="2">  1       -2 0.30692506E+00 0.10539071E+04</pdfrwt>
<totfact> 0.84023522E-01</totfact>
</mgrwt>
</event>
<event>
 4    1  0.2202466E-008  0.1723042E+04  0.7818608E-02  0.8748330E-01
         -2   -1    0    0    0  501 -0.00000000000E+00  0.00000000000E+00  0.95052743521E+03  0.95052743522E+03  0.25500000000E-02 0.  1.
          2   -1    0    0  501    0  0.00000000000E+00 -0.00000000000E+00 -0.38667703367E+04  0.38667703367E+04  0.25500000000E-02 0. -1.
    8880022    1    1    2    0    0 -0.10625693695E+04  0.13477499989E+04 -0.25142153645E+04  0.30479754389E+04  0.15294330000E+03 0.  0.
    8880022    1    1    2    0    0  0.10625693695E+04 -0.13477499989E+04 -0.40202753703E+03  0.17693223330E+04  0.15294330000E+03 0.  0.
<mgrwt>
<rscale>  0 0.17230425E+04</rscale>
<asrwt>0</asrwt>
<pdfrwt beam="1">  1        2 0.59488774E+00 0.17230425E+04</pdfrwt>
<pdfrwt beam="2">  1       -2 0.14623499E+00 0.17230425E+04</pdfrwt>
<totfact> 0.13043170E-01</totfact>
</mgrwt>
</event>
<event>
 4    1  0.2202466E-008  0.7866436E+03  0.7818608E-02  0.9579554E-01
          2   -1    0    0  501    0  0.00000000000E+00  0.00000000000E+00  0.89434835681E+03  0.89434835682E+03  0.25500000000E-02 0. -1.
         -2   -1    0    0    0  501 -0.00000000000E+00 -0.00000000000E+00 -0.14944994869E+04  0.14944994869E+04  0.25500000000E-02 0.  1.
    8880022    1    1    2    0    0  0.20199394861E+03 -0.74472476738E+03 -0.11753766307E+04  0.14143261333E+04  0.15294330000E+03 0.  0.
    8880022    1    1    2    0    0 -0.20199394861E+03  0.74472476738E+03  0.57522550062E+03  0.97452171038E+03  0.15294330000E+03 0.  0.
<mgrwt>
<rscale>  0 0.78664362E+03</rscale>
<asrwt>0</asrwt>
<pdfrwt beam="1">  1        2 0.13759206E+00 0.78664362E+03</pdfrwt>
<pdfrwt beam="2">  1       -2 0.22992300E+00 0.78664362E+03</pdfrwt>
<totfact> 0.25895365E+00</totfact>
</mgrwt>
</event>
<event>
 4    1  0.2202466E-008  0.3906120E+03  0.7818608E-02  0.1047080E+00
          2   -1    0    0  501    0  0.00000000000E+00  0.00000000000E+00  0.66768080007E+03  0.66768080008E+03  0.25500000000E-02 0. -1.
         -2   -1    0    0    0  501 -0.00000000000E+00 -0.00000000000E+00 -0.85760785109E+03  0.85760785109E+03  0.25500000000E-02 0.  1.
    8880022    1    1    2    0    0 -0.26969749439E+03 -0.23759068745E+03  0.55821767268E+03  0.68131101293E+03  0.15294330000E+03 0.  0.
    8880022    1    1    2    0    0  0.26969749439E+03  0.23759068745E+03 -0.74814472369E+03  0.84397763823E+03  0.15294330000E+03 0.  0.
<mgrwt>
<rscale>  0 0.39061199E+03</rscale>
<asrwt>0</asrwt>
<pdfrwt beam="1">  1        2 0.10272012E+00 0.39061199E+03</pdfrwt>
<pdfrwt beam="2">  1       -2 0.13193967E+00 0.39061199E+03</pdfrwt>
<totfact> 0.19313503E+01</totfact>
</mgrwt>
</event>
<event>
 4    1  0.2202466E-008  0.8207235E+03  0.7818608E-02  0.9530496E-01
         -2   -1    0    0    0  501 -0.00000000000E+00  0.00000000000E+00  0.69246963707E+03  0.69246963707E+03  0.25500000000E-02 0.  1.
          2   -1    0    0  501    0  0.00000000000E+00 -0.00000000000E+00 -0.14397730564E+04  0.14397730564E+04  0.25500000000E-02 0. -1.
    8880022    1    1    2    0    0 -0.70069495896E+03  0.39902635507E+03 -0.98085948738E+03  0.12789341049E+04  0.15294330000E+03 0.  0.
    8880022    1    1    2    0    0  0.70069495896E+03 -0.39902635507E+03  0.23355606802E+03  0.85330858866E+03  0.15294330000E+03 0.  0.
<mgrwt>
<rscale>  0 0.82072353E+03</rscale>
<asrwt>0</asrwt>
<pdfrwt beam="1">  1        2 0.22150355E+00 0.82072353E+03</pdfrwt>
<pdfrwt beam="2">  1       -2 0.10653379E+00 0.82072353E+03</pdfrwt>
<totfact> 0.98891611E+00</totfact>
</mgrwt>
</event>
<event>
 4    1  0.2202466E-008  0.1219348E+04  0.7818608E-02  0.9096087E-01
          2   -1    0    0  501    0  0.00000000000E+00  0.00000000000E+00  0.29029838661E+04  0.29029838661E+04  0.25500000000E-02 0. -1.
         -2   -1    0    0    0  501 -0.00000000000E+00 -0.00000000000E+00 -0.99741683722E+03  0.99741683723E+03  0.25500000000E-02 0.  1.
    8880022    1    1    2    0    0 -0.81970826016E+03 -0.88966138451E+03 -0.40748257297E+03  0.12856331946E+04  0.15294330000E+03 0.  0.
    8880022    1    1    2    0    0  0.81970826016E+03  0.88966138451E+03  0.23130496019E+04  0.26147675087E+04  0.15294330000E+03 0.  0.
<mgrwt>
<rscale>  0 0.12193485E+04</rscale>
<asrwt>0</asrwt>
<pdfrwt beam="1">  1        2 0.44661290E+00 0.12193485E+04</pdfrwt>
<pdfrwt beam="2">  1       -2 0.15344875E+00 0.12193485E+04</pdfrwt>
<totfact> 0.55311372E-01</totfact>
</mgrwt>
</event>
<event>
 4    1  0.2202466E-008  0.6196218E+03  0.7818608E-02  0.9865513E-01
         -2   -1    0    0    0  501 -0.00000000000E+00  0.00000000000E+00  0.18491715781E+03  0.18491715783E+03  0.25500000000E-02 0.  1.
          2   -1    0    0  501    0  0.00000000000E+00 -0.00000000000E+00 -0.35498868371E+04  0.35498868371E+04  0.25500000000E-02 0. -1.
    8880022    1    1    2    0    0  0.59884242547E+03  0.43900832549E+02 -0.47931139112E+03  0.78337130169E+03  0.15294330000E+03 0.  0.
    8880022    1    1    2    0    0 -0.59884242547E+03 -0.43900832549E+02 -0.28856582881E+04  0.29514326932E+04  0.15294330000E+03 0. -1.
<mgrwt>
<rscale>  0 0.61962181E+03</rscale>
<asrwt>0</asrwt>
<pdfrwt beam="1">  1        2 0.54613639E+00 0.61962181E+03</pdfrwt>
<pdfrwt beam="2">  1       -2 0.28448796E-01 0.61962181E+03</pdfrwt>
<totfact> 0.94404071E+00</totfact>
</mgrwt>
</event>
<event>
 4    1  0.2202466E-008  0.2059680E+03  0.7818608E-02  0.1144799E+00
          2   -1    0    0  501    0  0.00000000000E+00  0.00000000000E+00  0.40229517063E+03  0.40229517064E+03  0.25500000000E-02 0. -1.
         -2   -1    0    0    0  501 -0.00000000000E+00 -0.00000000000E+00 -0.13035164127E+03  0.13035164130E+03  0.25500000000E-02 0.  1.
    8880022    1    1    2    0    0 -0.13795145960E+03 -0.75771647614E+00  0.25237031887E+03  0.32575084067E+03  0.15294330000E+03 0. -1.
    8880022    1    1    2    0    0  0.13795145960E+03  0.75771647614E+00  0.19573210497E+02  0.20689597126E+03  0.15294330000E+03 0.  1.
<mgrwt>
<rscale>  0 0.20596804E+03</rscale>
<asrwt>0</asrwt>
<pdfrwt beam="1">  1        2 0.61891563E-01 0.20596804E+03</pdfrwt>
<pdfrwt beam="2">  1       -2 0.20054099E-01 0.20596804E+03</pdfrwt>
<totfact> 0.16489711E+03</totfact>
</mgrwt>
</event>
<event>
 4    1  0.2202466E-008  0.8423431E+03  0.7818608E-02  0.9500672E-01
         -2   -1    0    0    0  501 -0.00000000000E+00  0.00000000000E+00  0.62707967925E+03  0.62707967926E+03  0.25500000000E-02 0.  1.
          2   -1    0    0  501    0  0.00000000000E+00 -0.00000000000E+00 -0.17142560954E+04  0.17142560955E+04  0.25500000000E-02 0. -1.
    8880022    1    1    2    0    0 -0.34533405173E+02  0.82762175304E+03  0.13896809785E+03  0.85372952825E+03  0.15294330000E+03 0.  0.
    8880022    1    1    2    0    0  0.34533405173E+02 -0.82762175304E+03 -0.12261445140E+04  0.14876062465E+04  0.15294330000E+03 0.  0.
<mgrwt>
<rscale>  0 0.84234315E+03</rscale>
<asrwt>0</asrwt>
<pdfrwt beam="1">  1        2 0.26373171E+00 0.84234315E+03</pdfrwt>
<pdfrwt beam="2">  1       -2 0.96473797E-01 0.84234315E+03</pdfrwt>
<totfact> 0.87962421E+00</totfact>
</mgrwt>
</event>
<event>
 4    1  0.2202466E-008  0.3420640E+03  0.7818608E-02  0.1065920E+00
          2   -1    0    0  501    0  0.00000000000E+00  0.00000000000E+00  0.24562417561E+04  0.24562417561E+04  0.25500000000E-02 0. -1.
         -2   -1    0    0    0  501 -0.00000000000E+00 -0.00000000000E+00 -0.32589593916E+03  0.32589593917E+03  0.25500000000E-02 0.  1.
    8880022    1    1    2    0    0  0.28569532748E+02 -0.30463076071E+03 -0.22021373224E+03  0.40681919750E+03  0.15294330000E+03 0.  0.
    8880022    1    1    2    0    0 -0.28569532748E+02  0.30463076071E+03  0.23505595491E+04  0.23753184977E+04  0.15294330000E+03 0.  0.
<mgrwt>
<rscale>  0 0.34206399E+03</rscale>
<asrwt>0</asrwt>
<pdfrwt beam="1">  1        2 0.37788335E+00 0.34206399E+03</pdfrwt>
<pdfrwt beam="2">  1       -2 0.50137837E-01 0.34206399E+03</pdfrwt>
<totfact> 0.15969587E+01</totfact>
</mgrwt>
</event>
<event>
 4    1  0.2202466E-008  0.6625859E+03  0.7818608E-02  0.9783445E-01
         -2   -1    0    0    0  501 -0.00000000000E+00  0.00000000000E+00  0.23784418784E+03  0.23784418785E+03  0.25500000000E-02 0.  1.
          2   -1    0    0  501    0  0.00000000000E+00 -0.00000000000E+00 -0.21451971250E+04  0.21451971250E+04  0.25500000000E-02 0. -1.
    8880022    1    1    2    0    0 -0.58724292010E+03 -0.26603408115E+03 -0.13987889118E+04  0.15477824305E+04  0.15294330000E+03 0. -1.
    8880022    1    1    2    0    0  0.58724292010E+03  0.26603408115E+03 -0.50856402534E+03  0.83525888228E+03  0.15294330000E+03 0.  0.
<mgrwt>
<rscale>  0 0.66258587E+03</rscale>
<asrwt>0</asrwt>
<pdfrwt beam="1">  1        2 0.33003031E+00 0.66258587E+03</pdfrwt>
<pdfrwt beam="2">  1       -2 0.36591415E-01 0.66258587E+03</pdfrwt>
<totfact> 0.40792930E+01</totfact>
</mgrwt>
</event>
<event>
 4    1  0.2202466E-008  0.4095923E+03  0.7818608E-02  0.1040508E+00
          2   -1    0    0  501    0  0.00000000000E+00  0.00000000000E+00  0.95761986313E+03  0.95761986313E+03  0.25500000000E-02 0. -1.
         -2   -1    0    0    0  501 -0.00000000000E+00 -0.00000000000E+00 -0.29634516118E+03  0.29634516119E+03  0.25500000000E-02 0.  1.
    8880022    1    1    2    0    0 -0.37559240430E+03 -0.57484981076E+02 -0.70254018473E+02  0.41557364852E+03  0.15294330000E+03 0.  0.
    8880022    1    1    2    0    0  0.37559240430E+03  0.57484981076E+02  0.73152872042E+03  0.83839137581E+03  0.15294330000E+03 0.  0.
<mgrwt>
<rscale>  0 0.40959227E+03</rscale>
<asrwt>0</asrwt>
<pdfrwt beam="1">  1        2 0.14732614E+00 0.40959227E+03</pdfrwt>
<pdfrwt beam="2">  1       -2 0.45591562E-01 0.40959227E+03</pdfrwt>
<totfact> 0.12776041E+02</totfact>
</mgrwt>
</event>
<event>
 4    1  0.2202466E-008  0.1039599E+04  0.7818608E-02  0.9266149E-01
          2   -1    0    0  501    0  0.00000000000E+00  0.00000000000E+00  0.17686100727E+04  0.17686100727E+04  0.25500000000E-02 0. -1.
         -2   -1    0    0    0  501 -0.00000000000E+00 -0.00000000000E+00 -0.86070929961E+03  0.86070929961E+03  0.25500000000E-02 0.  1.
    8880022    1    1    2    0    0 -0.66874198721E+03 -0.78112614170E+03 -0.25404634322E+03  0.10701892787E+04  0.15294330000E+03 0.  0.
    8880022    1    1    2    0    0  0.66874198721E+03  0.78112614170E+03  0.11619471163E+04  0.15591300936E+04  0.15294330000E+03 0.  0.
<mgrwt>
<rscale>  0 0.10395987E+04</rscale>
<asrwt>0</asrwt>
<pdfrwt beam="1">  1        2 0.27209386E+00 0.10395987E+04</pdfrwt>
<pdfrwt beam="2">  1       -2 0.13241682E+00 0.10395987E+04</pdfrwt>
<totfact> 0.36888114E+00</totfact>
</mgrwt>
</event>
<event>
 4    1  0.2202466E-008  0.6680931E+03  0.7818608E-02  0.9773409E-01
          2   -1    0    0  501    0  0.00000000000E+00  0.00000000000E+00  0.32020183934E+04  0.32020183934E+04  0.25500000000E-02 0. -1.
         -2   -1    0    0    0  501 -0.00000000000E+00 -0.00000000000E+00 -0.19670331188E+03  0.19670331189E+03  0.25500000000E-02 0.  1.
    8880022    1    1    2    0    0  0.55157154611E+03 -0.34456574902E+03  0.58541328304E+03  0.88828885553E+03  0.15294330000E+03 0.  0.
    8880022    1    1    2    0    0 -0.55157154611E+03  0.34456574902E+03  0.24199017985E+04  0.25104328498E+04  0.15294330000E+03 0. -1.
<mgrwt>
<rscale>  0 0.66809309E+03</rscale>
<asrwt>0</asrwt>
<pdfrwt beam="1">  1        2 0.49261821E+00 0.66809309E+03</pdfrwt>
<pdfrwt beam="2">  1       -2 0.30262048E-01 0.66809309E+03</pdfrwt>
<totfact> 0.14139080E+01</totfact>
</mgrwt>
</event>
<event>
 4    1  0.2202466E-008  0.2319118E+03  0.7818608E-02  0.1125301E+00
         -2   -1    0    0    0  501 -0.00000000000E+00  0.00000000000E+00  0.39969987804E+03  0.39969987805E+03  0.25500000000E-02 0.  1.
          2   -1    0    0  501    0  0.00000000000E+00 -0.00000000000E+00 -0.28719426322E+04  0.28719426322E+04  0.25500000000E-02 0. -1.
    8880022    1    1    2    0    0 -0.76392485242E+02  0.15670231121E+03  0.36091874465E+03  0.42900515078E+03  0.15294330000E+03 0.  1.
    8880022    1    1    2    0    0  0.76392485242E+02 -0.15670231121E+03 -0.28331614988E+04  0.28426373595E+04  0.15294330000E+03 0.  0.
<mgrwt>
<rscale>  0 0.23191179E+03</rscale>
<asrwt>0</asrwt>
<pdfrwt beam="1">  1        2 0.44183731E+00 0.23191179E+03</pdfrwt>
<pdfrwt beam="2">  1       -2 0.61492291E-01 0.23191179E+03</pdfrwt>
<totfact> 0.64778001E+00</totfact>
</mgrwt>
</event>
<event>
 4    1  0.2202466E-008  0.7751305E+03  0.7818608E-02  0.9596729E-01
         -2   -1    0    0    0  501 -0.00000000000E+00  0.00000000000E+00  0.15668237817E+04  0.15668237817E+04  0.25500000000E-02 0.  1.
          2   -1    0    0  501    0  0.00000000000E+00 -0.00000000000E+00 -0.60918887543E+03  0.60918887543E+03  0.25500000000E-02 0. -1.
    8880022    1    1    2    0    0 -0.74814389930E+03 -0.13310268859E+03  0.11410964787E+04  0.13794667254E+04  0.15294330000E+03 0.  0.
    8880022    1    1    2    0    0  0.74814389930E+03  0.13310268859E+03 -0.18346157244E+03  0.79654593172E+03  0.15294330000E+03 0.  0.
<mgrwt>
<rscale>  0 0.77513049E+03</rscale>
<asrwt>0</asrwt>
<pdfrwt beam="1">  1        2 0.93721366E-01 0.77513049E+03</pdfrwt>
<pdfrwt beam="2">  1       -2 0.24104981E+00 0.77513049E+03</pdfrwt>
<totfact> 0.36402010E+00</totfact>
</mgrwt>
</event>
<event>
 4    1  0.2202466E-008  0.6260089E+03  0.7818608E-02  0.9852868E-01
          2   -1    0    0  501    0  0.00000000000E+00  0.00000000000E+00  0.28126671826E+04  0.28126671826E+04  0.25500000000E-02 0. -1.
         -2   -1    0    0    0  501 -0.00000000000E+00 -0.00000000000E+00 -0.51205407242E+03  0.51205407243E+03  0.25500000000E-02 0.  1.
    8880022    1    1    2    0    0 -0.58825296119E+03 -0.14984650568E+03  0.25685847126E+04  0.26437690142E+04  0.15294330000E+03 0.  0.
    8880022    1    1    2    0    0  0.58825296119E+03  0.14984650568E+03 -0.26797160241E+03  0.68095224085E+03  0.15294330000E+03 0.  0.
<mgrwt>
<rscale>  0 0.62600893E+03</rscale>
<asrwt>0</asrwt>
<pdfrwt beam="1">  1        2 0.43271802E+00 0.62600893E+03</pdfrwt>
<pdfrwt beam="2">  1       -2 0.78777551E-01 0.62600893E+03</pdfrwt>
<totfact> 0.35402422E+00</totfact>
</mgrwt>
</event>
<event>
 4    1  0.2202466E-008  0.3836048E+03  0.7818608E-02  0.1049609E+00
         -2   -1    0    0    0  501 -0.00000000000E+00  0.00000000000E+00  0.79849737184E+02  0.79849737225E+02  0.25500000000E-02 0.  1.
          2   -1    0    0  501    0  0.00000000000E+00 -0.00000000000E+00 -0.25866148808E+04  0.25866148808E+04  0.25500000000E-02 0. -1.
    8880022    1    1    2    0    0  0.34698633796E+03  0.57978076579E+02 -0.53847130146E+03  0.66113839066E+03  0.15294330000E+03 0.  0.
    8880022    1    1    2    0    0 -0.34698633796E+03 -0.57978076579E+02 -0.19682938422E+04  0.20053262274E+04  0.15294330000E+03 0.  0.
<mgrwt>
<rscale>  0 0.38360478E+03</rscale>
<asrwt>0</asrwt>
<pdfrwt beam="1">  1        2 0.39794069E+00 0.38360478E+03</pdfrwt>
<pdfrwt beam="2">  1       -2 0.12284577E-01 0.38360478E+03</pdfrwt>
<totfact> 0.16674518E+02</totfact>
</mgrwt>
</event>
<event>
 4    1  0.2202466E-008  0.6332553E+03  0.7818608E-02  0.9838717E-01
         -2   -1    0    0    0  501 -0.00000000000E+00  0.00000000000E+00  0.82244253192E+03  0.82244253192E+03  0.25500000000E-02 0.  1.
          2   -1    0    0  501    0  0.00000000000E+00 -0.00000000000E+00 -0.23438944253E+04  0.23438944253E+04  0.25500000000E-02 0. -1.
    8880022    1    1    2    0    0 -0.61200496682E+03  0.55412564958E+02  0.64818343980E+03  0.90617551082E+03  0.15294330000E+03 0.  0.
    8880022    1    1    2    0    0  0.61200496682E+03 -0.55412564958E+02 -0.21696353332E+04  0.22601614464E+04  0.15294330000E+03 0.  0.
<mgrwt>
<rscale>  0 0.63325531E+03</rscale>
<asrwt>0</asrwt>
<pdfrwt beam="1">  1        2 0.36059914E+00 0.63325531E+03</pdfrwt>
<pdfrwt beam="2">  1       -2 0.12652962E+00 0.63325531E+03</pdfrwt>
<totfact> 0.21345479E+00</totfact>
</mgrwt>
</event>
<event>
 4    1  0.2202466E-008  0.4443389E+03  0.7818608E-02  0.1029424E+00
          2   -1    0    0  501    0  0.00000000000E+00  0.00000000000E+00  0.86087892472E+03  0.86087892472E+03  0.25500000000E-02 0. -1.
         -2   -1    0    0    0  501 -0.00000000000E+00 -0.00000000000E+00 -0.27205989237E+03  0.27205989238E+03  0.25500000000E-02 0.  1.
    8880022    1    1    2    0    0  0.41665442220E+03  0.21082083136E+02  0.51887073254E+03  0.68312799084E+03  0.15294330000E+03 0.  0.
    8880022    1    1    2    0    0 -0.41665442220E+03 -0.21082083136E+02  0.69948299810E+02  0.44981082627E+03  0.15294330000E+03 0.  0.
<mgrwt>
<rscale>  0 0.44433885E+03</rscale>
<asrwt>0</asrwt>
<pdfrwt beam="1">  1        2 0.13244291E+00 0.44433885E+03</pdfrwt>
<pdfrwt beam="2">  1       -2 0.41855368E-01 0.44433885E+03</pdfrwt>
<totfact> 0.17429764E+02</totfact>
</mgrwt>
</event>
<event>
 4    1  0.2202466E-008  0.6020400E+03  0.7818608E-02  0.9901183E-01
          2   -1    0    0  501    0  0.00000000000E+00  0.00000000000E+00  0.31027032728E+04  0.31027032728E+04  0.25500000000E-02 0. -1.
         -2   -1    0    0    0  501 -0.00000000000E+00 -0.00000000000E+00 -0.17340673697E+03  0.17340673699E+03  0.25500000000E-02 0.  1.
    8880022    1    1    2    0    0  0.57512874910E+03 -0.91035651129E+02  0.24003980171E+04  0.24747450093E+04  0.15294330000E+03 0.  0.
    8880022    1    1    2    0    0 -0.57512874910E+03  0.91035651129E+02  0.52889851879E+03  0.80136500049E+03  0.15294330000E+03 0.  0.
<mgrwt>
<rscale>  0 0.60204005E+03</rscale>
<asrwt>0</asrwt>
<pdfrwt beam="1">  1        2 0.47733893E+00 0.60204005E+03</pdfrwt>
<pdfrwt beam="2">  1       -2 0.26677962E-01 0.60204005E+03</pdfrwt>
<totfact> 0.20847383E+01</totfact>
</mgrwt>
</event>
<event>
 4    1  0.2202466E-008  0.5016140E+03  0.7818608E-02  0.1013359E+00
          2   -1    0    0  501    0  0.00000000000E+00  0.00000000000E+00  0.57556769945E+03  0.57556769946E+03  0.25500000000E-02 0. -1.
         -2   -1    0    0    0  501 -0.00000000000E+00 -0.00000000000E+00 -0.10987601143E+04  0.10987601143E+04  0.25500000000E-02 0.  1.
    8880022    1    1    2    0    0  0.47728017587E+03  0.20701440228E+02 -0.91121120725E+03  0.10401550044E+04  0.15294330000E+03 0.  0.
    8880022    1    1    2    0    0 -0.47728017587E+03 -0.20701440228E+02  0.38801879239E+03  0.63417280939E+03  0.15294330000E+03 0.  0.
<mgrwt>
<rscale>  0 0.50161396E+03</rscale>
<asrwt>0</asrwt>
<pdfrwt beam="1">  1        2 0.88548877E-01 0.50161396E+03</pdfrwt>
<pdfrwt beam="2">  1       -2 0.16904002E+00 0.50161396E+03</pdfrwt>
<totfact> 0.11833722E+01</totfact>
</mgrwt>
</event>
<event>
 4    1  0.2202466E-008  0.6060481E+03  0.7818608E-02  0.9892937E-01
          2   -1    0    0  501    0  0.00000000000E+00  0.00000000000E+00  0.74033608923E+03  0.74033608923E+03  0.25500000000E-02 0. -1.
         -2   -1    0    0    0  501 -0.00000000000E+00 -0.00000000000E+00 -0.67089864248E+03  0.67089864249E+03  0.25500000000E-02 0.  1.
    8880022    1    1    2    0    0  0.20977354579E+03 -0.54762916623E+03  0.39487175225E+03  0.72333809382E+03  0.15294330000E+03 0.  0.
    8880022    1    1    2    0    0 -0.20977354579E+03  0.54762916623E+03 -0.32543430550E+03  0.68789663790E+03  0.15294330000E+03 0.  0.
<mgrwt>
<rscale>  0 0.60604810E+03</rscale>
<asrwt>0</asrwt>
<pdfrwt beam="1">  1        2 0.11389786E+00 0.60604810E+03</pdfrwt>
<pdfrwt beam="2">  1       -2 0.10321517E+00 0.60604810E+03</pdfrwt>
<totfact> 0.30024867E+01</totfact>
</mgrwt>
</event>
<event>
 4    1  0.2202466E-008  0.5878933E+03  0.7818608E-02  0.9930847E-01
          2   -1    0    0  501    0  0.00000000000E+00  0.00000000000E+00  0.24730771909E+04  0.24730771909E+04  0.25500000000E-02 0. -1.
         -2   -1    0    0    0  501 -0.00000000000E+00 -0.00000000000E+00 -0.12247487216E+04  0.12247487216E+04  0.25500000000E-02 0.  1.
    8880022    1    1    2    0    0 -0.55807742262E+03  0.10380963619E+03 -0.11160675589E+04  0.12614377905E+04  0.15294330000E+03 0.  0.
    8880022    1    1    2    0    0  0.55807742262E+03 -0.10380963619E+03  0.23643960282E+04  0.24363881220E+04  0.15294330000E+03 0. -1.
<mgrwt>
<rscale>  0 0.58789328E+03</rscale>
<asrwt>0</asrwt>
<pdfrwt beam="1">  1        2 0.38047341E+00 0.58789328E+03</pdfrwt>
<pdfrwt beam="2">  1       -2 0.18842288E+00 0.58789328E+03</pdfrwt>
<totfact> 0.63089574E-01</totfact>
</mgrwt>
</event>
<event>
 4    1  0.2202466E-008  0.1343177E+04  0.7818608E-02  0.8996009E-01
         -2   -1    0    0    0  501 -0.00000000000E+00  0.00000000000E+00  0.13729897492E+04  0.13729897492E+04  0.25500000000E-02 0.  1.
          2   -1    0    0  501    0  0.00000000000E+00 -0.00000000000E+00 -0.14454373501E+04  0.14454373501E+04  0.25500000000E-02 0. -1.
    8880022    1    1    2    0    0  0.11480601751E+04 -0.68021329826E+03  0.38870680940E+03  0.13982907185E+04  0.15294330000E+03 0.  0.
    8880022    1    1    2    0    0 -0.11480601751E+04  0.68021329826E+03 -0.46115441033E+03  0.14201363808E+04  0.15294330000E+03 0.  0.
<mgrwt>
<rscale>  0 0.13431768E+04</rscale>
<asrwt>0</asrwt>
<pdfrwt beam="1">  1        2 0.22237498E+00 0.13431768E+04</pdfrwt>
<pdfrwt beam="2">  1       -2 0.21122919E+00 0.13431768E+04</pdfrwt>
<totfact> 0.14651862E+00</totfact>
</mgrwt>
</event>
<event>
 4    1  0.2202466E-008  0.1195764E+04  0.7818608E-02  0.9116572E-01
         -2   -1    0    0    0  501 -0.00000000000E+00  0.00000000000E+00  0.76887775361E+03  0.76887775361E+03  0.25500000000E-02 0.  1.
          2   -1    0    0  501    0  0.00000000000E+00 -0.00000000000E+00 -0.23280089210E+04  0.23280089210E+04  0.25500000000E-02 0. -1.
    8880022    1    1    2    0    0 -0.97484564223E+03 -0.67537808968E+03 -0.85040819760E+02  0.11987840440E+04  0.15294330000E+03 0.  0.
    8880022    1    1    2    0    0  0.97484564223E+03  0.67537808968E+03 -0.14740903476E+04  0.18981026306E+04  0.15294330000E+03 0.  0.
<mgrwt>
<rscale>  0 0.11957639E+04</rscale>
<asrwt>0</asrwt>
<pdfrwt beam="1">  1        2 0.35815522E+00 0.11957639E+04</pdfrwt>
<pdfrwt beam="2">  1       -2 0.11828889E+00 0.11957639E+04</pdfrwt>
<totfact> 0.23558131E+00</totfact>
</mgrwt>
</event>
<event>
 4    1  0.2202466E-008  0.1011830E+04  0.7818608E-02  0.9295664E-01
          2   -1    0    0  501    0  0.00000000000E+00  0.00000000000E+00  0.89535360686E+03  0.89535360686E+03  0.25500000000E-02 0. -1.
         -2   -1    0    0    0  501 -0.00000000000E+00 -0.00000000000E+00 -0.15651207656E+04  0.15651207656E+04  0.25500000000E-02 0.  1.
    8880022    1    1    2    0    0 -0.10001119985E+04  0.13588088343E+02 -0.97343657062E+03  0.14040580671E+04  0.15294330000E+03 0.  0.
    8880022    1    1    2    0    0  0.10001119985E+04 -0.13588088343E+02  0.30366941187E+03  0.10564163054E+04  0.15294330000E+03 0.  0.
<mgrwt>
<rscale>  0 0.10118302E+04</rscale>
<asrwt>0</asrwt>
<pdfrwt beam="1">  1        2 0.13774671E+00 0.10118302E+04</pdfrwt>
<pdfrwt beam="2">  1       -2 0.24078781E+00 0.10118302E+04</pdfrwt>
<totfact> 0.21517324E+00</totfact>
</mgrwt>
</event>
<event>
 4    1  0.2202466E-008  0.1118605E+04  0.7818608E-02  0.9187246E-01
         -2   -1    0    0    0  501 -0.00000000000E+00  0.00000000000E+00  0.10536987796E+04  0.10536987796E+04  0.25500000000E-02 0.  1.
          2   -1    0    0  501    0  0.00000000000E+00 -0.00000000000E+00 -0.28453125920E+04  0.28453125920E+04  0.25500000000E-02 0. -1.
    8880022    1    1    2    0    0 -0.26343129151E+03  0.10763310387E+04  0.59227255874E+03  0.12657262686E+04  0.15294330000E+03 0.  0.
    8880022    1    1    2    0    0  0.26343129151E+03 -0.10763310387E+04 -0.23838863711E+04  0.26332851030E+04  0.15294330000E+03 0.  0.
<mgrwt>
<rscale>  0 0.11186046E+04</rscale>
<asrwt>0</asrwt>
<pdfrwt beam="1">  1        2 0.43774039E+00 0.11186046E+04</pdfrwt>
<pdfrwt beam="2">  1       -2 0.16210751E+00 0.11186046E+04</pdfrwt>
<totfact> 0.52405301E-01</totfact>
</mgrwt>
</event>
<event>
 4    1  0.2202466E-008  0.6018522E+03  0.7818608E-02  0.9901571E-01
          2   -1    0    0  501    0  0.00000000000E+00  0.00000000000E+00  0.13914370232E+04  0.13914370232E+04  0.25500000000E-02 0. -1.
         -2   -1    0    0    0  501 -0.00000000000E+00 -0.00000000000E+00 -0.40315859082E+03  0.40315859083E+03  0.25500000000E-02 0.  1.
    8880022    1    1    2    0    0  0.54827375763E+03  0.19552580052E+03  0.10282280990E+04  0.11914189559E+04  0.15294330000E+03 0.  0.
    8880022    1    1    2    0    0 -0.54827375763E+03 -0.19552580052E+03 -0.39949666638E+02  0.60317665808E+03  0.15294330000E+03 0.  0.
<mgrwt>
<rscale>  0 0.60185223E+03</rscale>
<asrwt>0</asrwt>
<pdfrwt beam="1">  1        2 0.21406723E+00 0.60185223E+03</pdfrwt>
<pdfrwt beam="2">  1       -2 0.62024399E-01 0.60185223E+03</pdfrwt>
<totfact> 0.36715546E+01</totfact>
</mgrwt>
</event>
<event>
 4    1  0.2202466E-008  0.1183606E+04  0.7818608E-02  0.9127329E-01
         -2   -1    0    0    0  501 -0.00000000000E+00  0.00000000000E+00  0.32534528221E+04  0.32534528221E+04  0.25500000000E-02 0.  1.
          2   -1    0    0  501    0  0.00000000000E+00 -0.00000000000E+00 -0.77073273180E+03  0.77073273180E+03  0.25500000000E-02 0. -1.
    8880022    1    1    2    0    0  0.11736788330E+04  0.30429673600E+01 -0.95306368226E+02  0.11874368275E+04  0.15294330000E+03 0.  0.
    8880022    1    1    2    0    0 -0.11736788330E+04 -0.30429673600E+01  0.25780264585E+04  0.28367487263E+04  0.15294330000E+03 0.  0.
<mgrwt>
<rscale>  0 0.11836059E+04</rscale>
<asrwt>0</asrwt>
<pdfrwt beam="1">  1        2 0.11857427E+00 0.11836059E+04</pdfrwt>
<pdfrwt beam="2">  1       -2 0.50053120E+00 0.11836059E+04</pdfrwt>
<totfact> 0.58211591E-02</totfact>
</mgrwt>
</event>
<event>
 4    1  0.2202466E-008  0.1355430E+04  0.7818608E-02  0.8986728E-01
          2   -1    0    0  501    0  0.00000000000E+00  0.00000000000E+00  0.20089070154E+04  0.20089070154E+04  0.25500000000E-02 0. -1.
         -2   -1    0    0    0  501 -0.00000000000E+00 -0.00000000000E+00 -0.11457903425E+04  0.11457903425E+04  0.25500000000E-02 0.  1.
    8880022    1    1    2    0    0  0.56906740842E+03  0.12206396945E+04  0.11402099297E+04  0.17712338400E+04  0.15294330000E+03 0.  0.
    8880022    1    1    2    0    0 -0.56906740842E+03 -0.12206396945E+04 -0.27709325683E+03  0.13834635179E+04  0.15294330000E+03 0.  0.
<mgrwt>
<rscale>  0 0.13554301E+04</rscale>
<asrwt>0</asrwt>
<pdfrwt beam="1">  1        2 0.30906261E+00 0.13554301E+04</pdfrwt>
<pdfrwt beam="2">  1       -2 0.17627544E+00 0.13554301E+04</pdfrwt>
<totfact> 0.12142883E+00</totfact>
</mgrwt>
</event>
<event>
 4    1  0.2202466E-008  0.4880462E+03  0.7818608E-02  0.1016947E+00
          2   -1    0    0  501    0  0.00000000000E+00  0.00000000000E+00  0.29401795602E+04  0.29401795602E+04  0.25500000000E-02 0. -1.
         -2   -1    0    0    0  501 -0.00000000000E+00 -0.00000000000E+00 -0.23985583946E+03  0.23985583947E+03  0.25500000000E-02 0.  1.
    8880022    1    1    2    0    0  0.10204193773E+03 -0.45208942091E+03  0.26440965545E+04  0.26887609868E+04  0.15294330000E+03 0.  0.
    8880022    1    1    2    0    0 -0.10204193773E+03  0.45208942091E+03  0.56227166290E+02  0.49127441293E+03  0.15294330000E+03 0.  0.
<mgrwt>
<rscale>  0 0.48804616E+03</rscale>
<asrwt>0</asrwt>
<pdfrwt beam="1">  1        2 0.45233531E+00 0.48804616E+03</pdfrwt>
<pdfrwt beam="2">  1       -2 0.36900899E-01 0.48804616E+03</pdfrwt>
<totfact> 0.14709798E+01</totfact>
</mgrwt>
</event>
<event>
 4    1  0.2202466E-008  0.1076413E+04  0.7818608E-02  0.9228491E-01
         -2   -1    0    0    0  501 -0.00000000000E+00  0.00000000000E+00  0.20109645410E+04  0.20109645410E+04  0.25500000000E-02 0.  1.
          2   -1    0    0  501    0  0.00000000000E+00 -0.00000000000E+00 -0.98507749485E+03  0.98507749485E+03  0.25500000000E-02 0. -1.
    8880022    1    1    2    0    0  0.28125931344E+03  0.10276995905E+04 -0.45220304939E+03  0.11675412201E+04  0.15294330000E+03 0.  0.
    8880022    1    1    2    0    0 -0.28125931344E+03 -0.10276995905E+04  0.14780900955E+04  0.18285008158E+04  0.15294330000E+03 0.  0.
<mgrwt>
<rscale>  0 0.10764130E+04</rscale>
<asrwt>0</asrwt>
<pdfrwt beam="1">  1        2 0.15155039E+00 0.10764130E+04</pdfrwt>
<pdfrwt beam="2">  1       -2 0.30937916E+00 0.10764130E+04</pdfrwt>
<totfact> 0.71310650E-01</totfact>
</mgrwt>
</event>
<event>
 4    1  0.2202466E-008  0.1148570E+04  0.7818608E-02  0.9159104E-01
          2   -1    0    0  501    0  0.00000000000E+00  0.00000000000E+00  0.27243539597E+04  0.27243539597E+04  0.25500000000E-02 0. -1.
         -2   -1    0    0    0  501 -0.00000000000E+00 -0.00000000000E+00 -0.69790298838E+03  0.69790298839E+03  0.25500000000E-02 0.  1.
    8880022    1    1    2    0    0  0.67963271938E+02 -0.11363104676E+04  0.19600305345E+04  0.22717684377E+04  0.15294330000E+03 0.  0.
    8880022    1    1    2    0    0 -0.67963271938E+02  0.11363104676E+04  0.66420436842E+02  0.11504885104E+04  0.15294330000E+03 0.  0.
<mgrwt>
<rscale>  0 0.11485696E+04</rscale>
<asrwt>0</asrwt>
<pdfrwt beam="1">  1        2 0.41913138E+00 0.11485696E+04</pdfrwt>
<pdfrwt beam="2">  1       -2 0.10736969E+00 0.11485696E+04</pdfrwt>
<totfact> 0.17742182E+00</totfact>
</mgrwt>
</event>
<event>
 4    1  0.2202466E-008  0.5816930E+03  0.7818608E-02  0.9944132E-01
         -2   -1    0    0    0  501 -0.00000000000E+00  0.00000000000E+00  0.34474432007E+03  0.34474432008E+03  0.25500000000E-02 0.  1.
          2   -1    0    0  501    0  0.00000000000E+00 -0.00000000000E+00 -0.16810630631E+04  0.16810630631E+04  0.25500000000E-02 0. -1.
    8880022    1    1    2    0    0  0.17839491204E+03  0.53211870636E+03 -0.13215748795E+04  0.14439275874E+04  0.15294330000E+03 0.  0.
    8880022    1    1    2    0    0 -0.17839491204E+03 -0.53211870636E+03 -0.14743863532E+02  0.58187979586E+03  0.15294330000E+03 0.  0.
<mgrwt>
<rscale>  0 0.58169297E+03</rscale>
<asrwt>0</asrwt>
<pdfrwt beam="1">  1        2 0.25862508E+00 0.58169297E+03</pdfrwt>
<pdfrwt beam="2">  1       -2 0.53037589E-01 0.58169297E+03</pdfrwt>
<totfact> 0.35345550E+01</totfact>
</mgrwt>
</event>
<event>
 4    1  0.2202466E-008  0.4505941E+03  0.7818608E-02  0.1027545E+00
          2   -1    0    0  501    0  0.00000000000E+00  0.00000000000E+00  0.17552645836E+04  0.17552645836E+04  0.25500000000E-02 0. -1.
         -2   -1    0    0    0  501 -0.00000000000E+00 -0.00000000000E+00 -0.34704296544E+03  0.34704296545E+03  0.25500000000E-02 0.  1.
    8880022    1    1    2    0    0  0.18041074495E+02  0.42345949156E+03 -0.15416920991E+03  0.47623861631E+03  0.15294330000E+03 0.  0.
    8880022    1    1    2    0    0 -0.18041074495E+02 -0.42345949156E+03  0.15623908280E+04  0.16260689327E+04  0.15294330000E+03 0.  0.
<mgrwt>
<rscale>  0 0.45059413E+03</rscale>
<asrwt>0</asrwt>
<pdfrwt beam="1">  1        2 0.27004071E+00 0.45059413E+03</pdfrwt>
<pdfrwt beam="2">  1       -2 0.53391225E-01 0.45059413E+03</pdfrwt>
<totfact> 0.32543929E+01</totfact>
</mgrwt>
</event>
<event>
 4    1  0.2202466E-008  0.8242365E+03  0.7818608E-02  0.9525584E-01
          2   -1    0    0  501    0  0.00000000000E+00  0.00000000000E+00  0.19906641790E+04  0.19906641790E+04  0.25500000000E-02 0. -1.
         -2   -1    0    0    0  501 -0.00000000000E+00 -0.00000000000E+00 -0.57409529362E+03  0.57409529363E+03  0.25500000000E-02 0.  1.
    8880022    1    1    2    0    0  0.68796789046E+03  0.42740412734E+03  0.15249311342E+04  0.17334303342E+04  0.15294330000E+03 0. -1.
    8880022    1    1    2    0    0 -0.68796789046E+03 -0.42740412734E+03 -0.10836224886E+03  0.83132913841E+03  0.15294330000E+03 0.  0.
<mgrwt>
<rscale>  0 0.82423647E+03</rscale>
<asrwt>0</asrwt>
<pdfrwt beam="1">  1        2 0.30625603E+00 0.82423647E+03</pdfrwt>
<pdfrwt beam="2">  1       -2 0.88322353E-01 0.82423647E+03</pdfrwt>
<totfact> 0.76421841E+00</totfact>
</mgrwt>
</event>
<event>
 4    1  0.2202466E-008  0.6689960E+03  0.7818608E-02  0.9771773E-01
          2   -1    0    0  501    0  0.00000000000E+00  0.00000000000E+00  0.32008666900E+04  0.32008666900E+04  0.25500000000E-02 0. -1.
         -2   -1    0    0    0  501 -0.00000000000E+00 -0.00000000000E+00 -0.17181876586E+03  0.17181876588E+03  0.25500000000E-02 0.  1.
    8880022    1    1    2    0    0 -0.44467172023E+03 -0.47584766969E+03  0.78681943438E+03  0.10327828517E+04  0.15294330000E+03 0.  0.
    8880022    1    1    2    0    0  0.44467172023E+03  0.47584766969E+03  0.22422284897E+04  0.23399026041E+04  0.15294330000E+03 0.  0.
<mgrwt>
<rscale>  0 0.66899596E+03</rscale>
<asrwt>0</asrwt>
<pdfrwt beam="1">  1        2 0.49244100E+00 0.66899596E+03</pdfrwt>
<pdfrwt beam="2">  1       -2 0.26433658E-01 0.66899596E+03</pdfrwt>
<totfact> 0.18150664E+01</totfact>
</mgrwt>
</event>
<event>
 4    1  0.2202466E-008  0.1383645E+04  0.7818608E-02  0.8965743E-01
         -2   -1    0    0    0  501 -0.00000000000E+00  0.00000000000E+00  0.13370228509E+04  0.13370228509E+04  0.25500000000E-02 0.  1.
          2   -1    0    0  501    0  0.00000000000E+00 -0.00000000000E+00 -0.21753447715E+04  0.21753447715E+04  0.25500000000E-02 0. -1.
    8880022    1    1    2    0    0  0.10939205401E+04 -0.83331898262E+03 -0.14458340409E+04  0.20012272239E+04  0.15294330000E+03 0.  0.
    8880022    1    1    2    0    0 -0.10939205401E+04  0.83331898262E+03  0.60751212022E+03  0.15111403985E+04  0.15294330000E+03 0.  0.
<mgrwt>
<rscale>  0 0.13836453E+04</rscale>
<asrwt>0</asrwt>
<pdfrwt beam="1">  1        2 0.33466843E+00 0.13836453E+04</pdfrwt>
<pdfrwt beam="2">  1       -2 0.20569582E+00 0.13836453E+04</pdfrwt>
<totfact> 0.61890152E-01</totfact>
</mgrwt>
</event>
<event>
 4    1  0.2202466E-008  0.1134089E+04  0.7818608E-02  0.9172589E-01
          2   -1    0    0  501    0  0.00000000000E+00  0.00000000000E+00  0.84621746823E+03  0.84621746823E+03  0.25500000000E-02 0. -1.
         -2   -1    0    0    0  501 -0.00000000000E+00 -0.00000000000E+00 -0.17690709742E+04  0.17690709742E+04  0.25500000000E-02 0.  1.
    8880022    1    1    2    0    0 -0.21125286571E+03 -0.11036934806E+04 -0.95219122481E+03  0.14808196561E+04  0.15294330000E+03 0.  0.
    8880022    1    1    2    0    0  0.21125286571E+03  0.11036934806E+04  0.29337718810E+02  0.11344687863E+04  0.15294330000E+03 0.  0.
<mgrwt>
<rscale>  0 0.11340894E+04</rscale>
<asrwt>0</asrwt>
<pdfrwt beam="1">  1        2 0.13018730E+00 0.11340894E+04</pdfrwt>
<pdfrwt beam="2">  1       -2 0.27216476E+00 0.11340894E+04</pdfrwt>
<totfact> 0.14780360E+00</totfact>
</mgrwt>
</event>
<event>
 4    1  0.2202466E-008  0.1561099E+04  0.7818608E-02  0.8844809E-01
          2   -1    0    0  501    0  0.00000000000E+00  0.00000000000E+00  0.14585850575E+04  0.14585850575E+04  0.25500000000E-02 0. -1.
         -2   -1    0    0    0  501 -0.00000000000E+00 -0.00000000000E+00 -0.16708564894E+04  0.16708564894E+04  0.25500000000E-02 0.  1.
    8880022    1    1    2    0    0 -0.66668737099E+03 -0.14032700119E+04 -0.98643258028E+02  0.15642125567E+04  0.15294330000E+03 0. -1.
    8880022    1    1    2    0    0  0.66668737099E+03  0.14032700119E+04 -0.11362817385E+03  0.15652289903E+04  0.15294330000E+03 0.  1.
<mgrwt>
<rscale>  0 0.15610991E+04</rscale>
<asrwt>0</asrwt>
<pdfrwt beam="1">  1        2 0.22439770E+00 0.15610991E+04</pdfrwt>
<pdfrwt beam="2">  1       -2 0.25705484E+00 0.15610991E+04</pdfrwt>
<totfact> 0.72890140E-01</totfact>
</mgrwt>
</event>
<event>
 4    1  0.2202466E-008  0.4614469E+03  0.7818608E-02  0.1024362E+00
          2   -1    0    0  501    0  0.00000000000E+00  0.00000000000E+00  0.23201931766E+04  0.23201931766E+04  0.25500000000E-02 0. -1.
         -2   -1    0    0    0  501 -0.00000000000E+00 -0.00000000000E+00 -0.51751739890E+03  0.51751739891E+03  0.25500000000E-02 0.  1.
    8880022    1    1    2    0    0  0.40449154646E+03  0.16102240708E+03 -0.38557637703E+03  0.60133386922E+03  0.15294330000E+03 0.  0.
    8880022    1    1    2    0    0 -0.40449154646E+03 -0.16102240708E+03  0.21882521547E+04  0.22363767063E+04  0.15294330000E+03 0.  0.
<mgrwt>
<rscale>  0 0.46144694E+03</rscale>
<asrwt>0</asrwt>
<pdfrwt beam="1">  1        2 0.35695280E+00 0.46144694E+03</pdfrwt>
<pdfrwt beam="2">  1       -2 0.79618061E-01 0.46144694E+03</pdfrwt>
<totfact> 0.68593094E+00</totfact>
</mgrwt>
</event>
<event>
 4    1  0.2202466E-008  0.1139101E+04  0.7818608E-02  0.9167898E-01
         -2   -1    0    0    0  501 -0.00000000000E+00  0.00000000000E+00  0.17801742861E+04  0.17801742861E+04  0.25500000000E-02 0.  1.
          2   -1    0    0  501    0  0.00000000000E+00 -0.00000000000E+00 -0.13712217909E+04  0.13712217909E+04  0.25500000000E-02 0. -1.
    8880022    1    1    2    0    0  0.11285493734E+04  0.23135697496E+02  0.12829236534E+04  0.17156467300E+04  0.15294330000E+03 0.  0.
    8880022    1    1    2    0    0 -0.11285493734E+04 -0.23135697496E+02 -0.87397115826E+03  0.14357493469E+04  0.15294330000E+03 0.  0.
<mgrwt>
<rscale>  0 0.11391008E+04</rscale>
<asrwt>0</asrwt>
<pdfrwt beam="1">  1        2 0.21095720E+00 0.11391008E+04</pdfrwt>
<pdfrwt beam="2">  1       -2 0.27387297E+00 0.11391008E+04</pdfrwt>
<totfact> 0.67702022E-01</totfact>
</mgrwt>
</event>
<event>
 4    1  0.2202466E-008  0.5095379E+03  0.7818608E-02  0.1011319E+00
         -2   -1    0    0    0  501 -0.00000000000E+00  0.00000000000E+00  0.68372293862E+03  0.68372293862E+03  0.25500000000E-02 0.  1.
          2   -1    0    0  501    0  0.00000000000E+00 -0.00000000000E+00 -0.51771629152E+03  0.51771629152E+03  0.25500000000E-02 0. -1.
    8880022    1    1    2    0    0  0.15327011476E+03  0.46124340629E+03 -0.22712879575E+03  0.55786768217E+03  0.15294330000E+03 0.  0.
    8880022    1    1    2    0    0 -0.15327011476E+03 -0.46124340629E+03  0.39313544285E+03  0.64357154798E+03  0.15294330000E+03 0.  0.
<mgrwt>
<rscale>  0 0.50953789E+03</rscale>
<asrwt>0</asrwt>
<pdfrwt beam="1">  1        2 0.79648661E-01 0.50953789E+03</pdfrwt>
<pdfrwt beam="2">  1       -2 0.10518814E+00 0.50953789E+03</pdfrwt>
<totfact> 0.44686054E+01</totfact>
</mgrwt>
</event>
<event>
 4    1  0.2202466E-008  0.3052231E+03  0.7818608E-02  0.1082658E+00
          2   -1    0    0  501    0  0.00000000000E+00  0.00000000000E+00  0.53514637907E+03  0.53514637908E+03  0.25500000000E-02 0. -1.
         -2   -1    0    0    0  501 -0.00000000000E+00 -0.00000000000E+00 -0.47984484210E+03  0.47984484211E+03  0.25500000000E-02 0.  1.
    8880022    1    1    2    0    0 -0.15461959637E+03 -0.21415472461E+03 -0.37745822396E+03  0.48542335080E+03  0.15294330000E+03 0.  0.
    8880022    1    1    2    0    0  0.15461959637E+03  0.21415472461E+03  0.43275976092E+03  0.52956787039E+03  0.15294330000E+03 0.  0.
<mgrwt>
<rscale>  0 0.30522306E+03</rscale>
<asrwt>0</asrwt>
<pdfrwt beam="1">  1        2 0.82330212E-01 0.30522306E+03</pdfrwt>
<pdfrwt beam="2">  1       -2 0.73822284E-01 0.30522306E+03</pdfrwt>
<totfact> 0.98609949E+01</totfact>
</mgrwt>
</event>
<event>
 4    1  0.2202466E-008  0.1159451E+04  0.7818608E-02  0.9149108E-01
          2   -1    0    0  501    0  0.00000000000E+00  0.00000000000E+00  0.24515859538E+04  0.24515859538E+04  0.25500000000E-02 0. -1.
         -2   -1    0    0    0  501 -0.00000000000E+00 -0.00000000000E+00 -0.66795012285E+03  0.66795012286E+03  0.25500000000E-02 0.  1.
    8880022    1    1    2    0    0  0.11317496662E+04  0.20019577340E+03  0.15518327574E+04  0.19371402155E+04  0.15294330000E+03 0.  0.
    8880022    1    1    2    0    0 -0.11317496662E+04 -0.20019577340E+03  0.23180307358E+03  0.11823958612E+04  0.15294330000E+03 0.  0.
<mgrwt>
<rscale>  0 0.11594513E+04</rscale>
<asrwt>0</asrwt>
<pdfrwt beam="1">  1        2 0.37716707E+00 0.11594513E+04</pdfrwt>
<pdfrwt beam="2">  1       -2 0.10276156E+00 0.11594513E+04</pdfrwt>
<totfact> 0.28370139E+00</totfact>
</mgrwt>
</event>
<event>
 4    1  0.2202466E-008  0.1531063E+04  0.7818608E-02  0.8864055E-01
          2   -1    0    0  501    0  0.00000000000E+00  0.00000000000E+00  0.27403142840E+04  0.27403142840E+04  0.25500000000E-02 0. -1.
         -2   -1    0    0    0  501 -0.00000000000E+00 -0.00000000000E+00 -0.17710346114E+04  0.17710346114E+04  0.25500000000E-02 0.  1.
    8880022    1    1    2    0    0  0.14734157716E+04  0.38704961962E+03  0.21065110201E+04  0.26041393540E+04  0.15294330000E+03 0.  0.
    8880022    1    1    2    0    0 -0.14734157716E+04 -0.38704961962E+03 -0.11372313475E+04  0.19072095414E+04  0.15294330000E+03 0.  0.
<mgrwt>
<rscale>  0 0.15310627E+04</rscale>
<asrwt>0</asrwt>
<pdfrwt beam="1">  1        2 0.42158681E+00 0.15310627E+04</pdfrwt>
<pdfrwt beam="2">  1       -2 0.27246686E+00 0.15310627E+04</pdfrwt>
<totfact> 0.10996146E-01</totfact>
</mgrwt>
</event>
<event>
 4    1  0.2202466E-008  0.7612685E+03  0.7818608E-02  0.9617836E-01
          2   -1    0    0  501    0  0.00000000000E+00  0.00000000000E+00  0.16455509407E+04  0.16455509407E+04  0.25500000000E-02 0. -1.
         -2   -1    0    0    0  501 -0.00000000000E+00 -0.00000000000E+00 -0.11061180640E+04  0.11061180640E+04  0.25500000000E-02 0.  1.
    8880022    1    1    2    0    0 -0.23878356830E+03  0.70648462690E+03 -0.86616591167E+03  0.11531579077E+04  0.15294330000E+03 0.  0.
    8880022    1    1    2    0    0  0.23878356830E+03 -0.70648462690E+03  0.14055987883E+04  0.15985110970E+04  0.15294330000E+03 0.  0.
<mgrwt>
<rscale>  0 0.76126853E+03</rscale>
<asrwt>0</asrwt>
<pdfrwt beam="1">  1        2 0.25316168E+00 0.76126853E+03</pdfrwt>
<pdfrwt beam="2">  1       -2 0.17017201E+00 0.76126853E+03</pdfrwt>
<totfact> 0.23009251E+00</totfact>
</mgrwt>
</event>
<event>
 4    1  0.2202466E-008  0.1422807E+04  0.7818608E-02  0.8937473E-01
          2   -1    0    0  501    0  0.00000000000E+00  0.00000000000E+00  0.22399113295E+04  0.22399113295E+04  0.25500000000E-02 0. -1.
         -2   -1    0    0    0  501 -0.00000000000E+00 -0.00000000000E+00 -0.10480124567E+04  0.10480124567E+04  0.25500000000E-02 0.  1.
    8880022    1    1    2    0    0  0.12991745970E+04 -0.55958432901E+03 -0.13930239130E+02  0.14228755952E+04  0.15294330000E+03 0.  0.
    8880022    1    1    2    0    0 -0.12991745970E+04  0.55958432901E+03  0.12058291119E+04  0.18650481910E+04  0.15294330000E+03 0.  0.
<mgrwt>
<rscale>  0 0.14228074E+04</rscale>
<asrwt>0</asrwt>
<pdfrwt beam="1">  1        2 0.34460174E+00 0.14228074E+04</pdfrwt>
<pdfrwt beam="2">  1       -2 0.16123269E+00 0.14228074E+04</pdfrwt>
<totfact> 0.11492536E+00</totfact>
</mgrwt>
</event>
<event>
 4    1  0.2202466E-008  0.2500637E+03  0.7818608E-02  0.1113265E+00
         -2   -1    0    0    0  501 -0.00000000000E+00  0.00000000000E+00  0.77046767307E+03  0.77046767308E+03  0.25500000000E-02 0.  1.
          2   -1    0    0  501    0  0.00000000000E+00 -0.00000000000E+00 -0.28783290707E+04  0.28783290707E+04  0.25500000000E-02 0. -1.
    8880022    1    1    2    0    0 -0.19739152693E+03 -0.13296929110E+02  0.74456225297E+03  0.78543289006E+03  0.15294330000E+03 0.  0.
    8880022    1    1    2    0    0  0.19739152693E+03  0.13296929110E+02 -0.28524236506E+04  0.28633638538E+04  0.15294330000E+03 0.  0.
<mgrwt>
<rscale>  0 0.25006374E+03</rscale>
<asrwt>0</asrwt>
<pdfrwt beam="1">  1        2 0.44281985E+00 0.25006374E+03</pdfrwt>
<pdfrwt beam="2">  1       -2 0.11853349E+00 0.25006374E+03</pdfrwt>
<totfact> 0.14538649E+00</totfact>
</mgrwt>
</event>
<event>
 4    1  0.2202466E-008  0.9291042E+03  0.7818608E-02  0.9389914E-01
         -2   -1    0    0    0  501 -0.00000000000E+00  0.00000000000E+00  0.52422558482E+03  0.52422558483E+03  0.25500000000E-02 0.  1.
          2   -1    0    0  501    0  0.00000000000E+00 -0.00000000000E+00 -0.20587678178E+04  0.20587678178E+04  0.25500000000E-02 0. -1.
    8880022    1    1    2    0    0  0.15400431964E+03  0.90339674096E+03 -0.13450765479E+04  0.16347677434E+04  0.15294330000E+03 0.  0.
    8880022    1    1    2    0    0 -0.15400431964E+03 -0.90339674096E+03 -0.18946568507E+03  0.94822565926E+03  0.15294330000E+03 0.  0.
<mgrwt>
<rscale>  0 0.92910422E+03</rscale>
<asrwt>0</asrwt>
<pdfrwt beam="1">  1        2 0.31673351E+00 0.92910422E+03</pdfrwt>
<pdfrwt beam="2">  1       -2 0.80650091E-01 0.92910422E+03</pdfrwt>
<totfact> 0.85063232E+00</totfact>
</mgrwt>
</event>
<event>
 4    1  0.2983945E-008  0.1211699E+04  0.7818608E-02  0.9102678E-01
         -2   -1    0    0    0  501 -0.00000000000E+00  0.00000000000E+00  0.13472514286E+04  0.13472514286E+04  0.25500000000E-02 0.  1.
          2   -1    0    0  501    0  0.00000000000E+00 -0.00000000000E+00 -0.24210021021E+04  0.24210021021E+04  0.25500000000E-02 0. -1.
    8880022    1    1    2    0    0 -0.13818322869E+03  0.11940382267E+04 -0.19340061897E+04  0.22822343189E+04  0.15294330000E+03 0.  0.
    8880022    1    1    2    0    0  0.13818322869E+03 -0.11940382267E+04  0.86025551616E+03  0.14860192118E+04  0.15294330000E+03 0.  0.
<mgrwt>
<rscale>  0 0.12116986E+04</rscale>
<asrwt>0</asrwt>
<pdfrwt beam="1">  1        2 0.37246186E+00 0.12116986E+04</pdfrwt>
<pdfrwt beam="2">  1       -2 0.20726945E+00 0.12116986E+04</pdfrwt>
<totfact> 0.44879722E-01</totfact>
</mgrwt>
</event>
<event>
 4    1  0.2202466E-008  0.1258735E+04  0.7818608E-02  0.9062944E-01
          2   -1    0    0  501    0  0.00000000000E+00  0.00000000000E+00  0.15236791483E+04  0.15236791483E+04  0.25500000000E-02 0. -1.
         -2   -1    0    0    0  501 -0.00000000000E+00 -0.00000000000E+00 -0.16238303266E+04  0.16238303266E+04  0.25500000000E-02 0.  1.
    8880022    1    1    2    0    0  0.10721849951E+03 -0.12448000614E+04  0.89368472906E+03  0.15437250557E+04  0.15294330000E+03 0.  0.
    8880022    1    1    2    0    0 -0.10721849951E+03  0.12448000614E+04 -0.99383590736E+03  0.16037844192E+04  0.15294330000E+03 0.  0.
<mgrwt>
<rscale>  0 0.12587353E+04</rscale>
<asrwt>0</asrwt>
<pdfrwt beam="1">  1        2 0.23441218E+00 0.12587353E+04</pdfrwt>
<pdfrwt beam="2">  1       -2 0.24982005E+00 0.12587353E+04</pdfrwt>
<totfact> 0.76507260E-01</totfact>
</mgrwt>
</event>
<event>
 4    1  0.2202466E-008  0.7322734E+03  0.7818608E-02  0.9663578E-01
         -2   -1    0    0    0  501 -0.00000000000E+00  0.00000000000E+00  0.18950618713E+04  0.18950618713E+04  0.25500000000E-02 0.  1.
          2   -1    0    0  501    0  0.00000000000E+00 -0.00000000000E+00 -0.12246965152E+04  0.12246965152E+04  0.25500000000E-02 0. -1.
    8880022    1    1    2    0    0  0.47746216943E+03  0.53372514275E+03  0.17030429043E+04  0.18538013481E+04  0.15294330000E+03 0.  0.
    8880022    1    1    2    0    0 -0.47746216943E+03 -0.53372514275E+03 -0.10326775482E+04  0.12659570383E+04  0.15294330000E+03 0.  0.
<mgrwt>
<rscale>  0 0.73227338E+03</rscale>
<asrwt>0</asrwt>
<pdfrwt beam="1">  1        2 0.18841485E+00 0.73227338E+03</pdfrwt>
<pdfrwt beam="2">  1       -2 0.29154798E+00 0.73227338E+03</pdfrwt>
<totfact> 0.68917746E-01</totfact>
</mgrwt>
</event>
<event>
 4    1  0.2202466E-008  0.4238329E+03  0.7818608E-02  0.1035826E+00
         -2   -1    0    0    0  501 -0.00000000000E+00  0.00000000000E+00  0.71814818857E+03  0.71814818857E+03  0.25500000000E-02 0.  1.
          2   -1    0    0  501    0  0.00000000000E+00 -0.00000000000E+00 -0.34254389737E+04  0.34254389737E+04  0.25500000000E-02 0. -1.
    8880022    1    1    2    0    0 -0.82057626253E+02  0.38666422145E+03 -0.33483610095E+04  0.33750786328E+04  0.15294330000E+03 0. -1.
    8880022    1    1    2    0    0  0.82057626253E+02 -0.38666422145E+03  0.64107022444E+03  0.76850852947E+03  0.15294330000E+03 0.  0.
<mgrwt>
<rscale>  0 0.42383290E+03</rscale>
<asrwt>0</asrwt>
<pdfrwt beam="1">  1        2 0.52699060E+00 0.42383290E+03</pdfrwt>
<pdfrwt beam="2">  1       -2 0.11048434E+00 0.42383290E+03</pdfrwt>
<totfact> 0.71927091E-01</totfact>
</mgrwt>
</event>
<event>
 4    1  0.2202466E-008  0.4699089E+03  0.7818608E-02  0.1021946E+00
         -2   -1    0    0    0  501 -0.00000000000E+00  0.00000000000E+00  0.13929033194E+03  0.13929033196E+03  0.25500000000E-02 0.  1.
          2   -1    0    0  501    0  0.00000000000E+00 -0.00000000000E+00 -0.28282483484E+04  0.28282483484E+04  0.25500000000E-02 0. -1.
    8880022    1    1    2    0    0 -0.55554657377E+01 -0.44428806543E+03 -0.36083630246E+03  0.59246707796E+03  0.15294330000E+03 0.  0.
    8880022    1    1    2    0    0  0.55554657377E+01  0.44428806543E+03 -0.23281217140E+04  0.23750716024E+04  0.15294330000E+03 0.  0.
<mgrwt>
<rscale>  0 0.46990893E+03</rscale>
<asrwt>0</asrwt>
<pdfrwt beam="1">  1        2 0.43511509E+00 0.46990893E+03</pdfrwt>
<pdfrwt beam="2">  1       -2 0.21429284E-01 0.46990893E+03</pdfrwt>
<totfact> 0.46416361E+01</totfact>
</mgrwt>
</event>
<event>
 4    1  0.2202466E-008  0.9326408E+03  0.7818608E-02  0.9385674E-01
          2   -1    0    0  501    0  0.00000000000E+00  0.00000000000E+00  0.11021497335E+04  0.11021497335E+04  0.25500000000E-02 0. -1.
         -2   -1    0    0    0  501 -0.00000000000E+00 -0.00000000000E+00 -0.13638133045E+04  0.13638133045E+04  0.25500000000E-02 0.  1.
    8880022    1    1    2    0    0  0.48752731263E+03 -0.78022072020E+03 -0.93115634323E+03  0.13179040334E+04  0.15294330000E+03 0.  0.
    8880022    1    1    2    0    0 -0.48752731263E+03  0.78022072020E+03  0.66949277225E+03  0.11480590045E+04  0.15294330000E+03 0.  0.
<mgrwt>
<rscale>  0 0.93264082E+03</rscale>
<asrwt>0</asrwt>
<pdfrwt beam="1">  1        2 0.16956150E+00 0.93264082E+03</pdfrwt>
<pdfrwt beam="2">  1       -2 0.20981743E+00 0.93264082E+03</pdfrwt>
<totfact> 0.24963234E+00</totfact>
</mgrwt>
</event>
<event>
 4    1  0.2202466E-008  0.7337091E+03  0.7818608E-02  0.9661261E-01
          2   -1    0    0  501    0  0.00000000000E+00  0.00000000000E+00  0.11163116338E+04  0.11163116338E+04  0.25500000000E-02 0. -1.
         -2   -1    0    0    0  501 -0.00000000000E+00 -0.00000000000E+00 -0.15048664287E+04  0.15048664287E+04  0.25500000000E-02 0.  1.
    8880022    1    1    2    0    0 -0.71148288336E+03  0.93431552319E+02 -0.12746567394E+04  0.14707409033E+04  0.15294330000E+03 0.  1.
    8880022    1    1    2    0    0  0.71148288336E+03 -0.93431552319E+02  0.88610194451E+03  0.11504371592E+04  0.15294330000E+03 0.  0.
<mgrwt>
<rscale>  0 0.73370907E+03</rscale>
<asrwt>0</asrwt>
<pdfrwt beam="1">  1        2 0.17174025E+00 0.73370907E+03</pdfrwt>
<pdfrwt beam="2">  1       -2 0.23151791E+00 0.73370907E+03</pdfrwt>
<totfact> 0.18420773E+00</totfact>
</mgrwt>
</event>
<event>
 4    1  0.2202466E-008  0.6853711E+03  0.7818608E-02  0.9742582E-01
          2   -1    0    0  501    0  0.00000000000E+00  0.00000000000E+00  0.14511600106E+04  0.14511600106E+04  0.25500000000E-02 0. -1.
         -2   -1    0    0    0  501 -0.00000000000E+00 -0.00000000000E+00 -0.87778975211E+03  0.87778975212E+03  0.25500000000E-02 0.  1.
    8880022    1    1    2    0    0  0.45600224799E+03 -0.48826618325E+03 -0.63849607528E+03  0.93670209087E+03  0.15294330000E+03 0.  0.
    8880022    1    1    2    0    0 -0.45600224799E+03  0.48826618325E+03  0.12118663338E+04  0.13922476719E+04  0.15294330000E+03 0.  0.
<mgrwt>
<rscale>  0 0.68537112E+03</rscale>
<asrwt>0</asrwt>
<pdfrwt beam="1">  1        2 0.22325538E+00 0.68537112E+03</pdfrwt>
<pdfrwt beam="2">  1       -2 0.13504458E+00 0.68537112E+03</pdfrwt>
<totfact> 0.55198145E+00</totfact>
</mgrwt>
</event>
<event>
 4    1  0.2202466E-008  0.6143561E+03  0.7818608E-02  0.9876061E-01
         -2   -1    0    0    0  501 -0.00000000000E+00  0.00000000000E+00  0.10322850305E+04  0.10322850305E+04  0.25500000000E-02 0.  1.
          2   -1    0    0  501    0  0.00000000000E+00 -0.00000000000E+00 -0.13051647587E+04  0.13051647587E+04  0.25500000000E-02 0. -1.
    8880022    1    1    2    0    0 -0.40634061796E+03 -0.43465965334E+03 -0.11280393152E+04  0.12844866919E+04  0.15294330000E+03 0.  0.
    8880022    1    1    2    0    0  0.40634061796E+03  0.43465965334E+03  0.85515958704E+03  0.10529630973E+04  0.15294330000E+03 0.  0.
<mgrwt>
<rscale>  0 0.61435606E+03</rscale>
<asrwt>0</asrwt>
<pdfrwt beam="1">  1        2 0.20079458E+00 0.61435606E+03</pdfrwt>
<pdfrwt beam="2">  1       -2 0.15881308E+00 0.61435606E+03</pdfrwt>
<totfact> 0.44178355E+00</totfact>
</mgrwt>
</event>
<event>
 4    1  0.2202466E-008  0.9600431E+03  0.7818608E-02  0.9353488E-01
         -2   -1    0    0    0  501 -0.00000000000E+00  0.00000000000E+00  0.96857696990E+03  0.96857696991E+03  0.25500000000E-02 0.  1.
          2   -1    0    0  501    0  0.00000000000E+00 -0.00000000000E+00 -0.12890526972E+04  0.12890526972E+04  0.25500000000E-02 0. -1.
    8880022    1    1    2    0    0 -0.92108260471E+03  0.22337850589E+03  0.41733108345E+03  0.10468275922E+04  0.15294330000E+03 0.  0.
    8880022    1    1    2    0    0  0.92108260471E+03 -0.22337850589E+03 -0.73780681076E+03  0.12108020749E+04  0.15294330000E+03 0.  0.
<mgrwt>
<rscale>  0 0.96004311E+03</rscale>
<asrwt>0</asrwt>
<pdfrwt beam="1">  1        2 0.19831580E+00 0.96004311E+03</pdfrwt>
<pdfrwt beam="2">  1       -2 0.14901184E+00 0.96004311E+03</pdfrwt>
<totfact> 0.50949781E+00</totfact>
</mgrwt>
</event>
<event>
 4    1  0.2202466E-008  0.1513241E+04  0.7818608E-02  0.8875695E-01
         -2   -1    0    0    0  501 -0.00000000000E+00  0.00000000000E+00  0.10704274337E+04  0.10704274337E+04  0.25500000000E-02 0.  1.
          2   -1    0    0  501    0  0.00000000000E+00 -0.00000000000E+00 -0.30761632996E+04  0.30761632996E+04  0.25500000000E-02 0. -1.
    8880022    1    1    2    0    0 -0.66689625135E+03 -0.13497248139E+04 -0.21470862700E+04  0.26267620347E+04  0.15294330000E+03 0.  0.
    8880022    1    1    2    0    0  0.66689625135E+03  0.13497248139E+04  0.14135040413E+03  0.15198286986E+04  0.15294330000E+03 0.  0.
<mgrwt>
<rscale>  0 0.15132413E+04</rscale>
<asrwt>0</asrwt>
<pdfrwt beam="1">  1        2 0.47325589E+00 0.15132413E+04</pdfrwt>
<pdfrwt beam="2">  1       -2 0.16468114E+00 0.15132413E+04</pdfrwt>
<totfact> 0.34279944E-01</totfact>
</mgrwt>
</event>
<event>
 4    1  0.2202466E-008  0.1093480E+04  0.7818608E-02  0.9211570E-01
          2   -1    0    0  501    0  0.00000000000E+00  0.00000000000E+00  0.10122700026E+04  0.10122700026E+04  0.25500000000E-02 0. -1.
         -2   -1    0    0    0  501 -0.00000000000E+00 -0.00000000000E+00 -0.17412094487E+04  0.17412094487E+04  0.25500000000E-02 0.  1.
    8880022    1    1    2    0    0  0.10803492465E+04 -0.71776296747E+02 -0.11452381268E+04  0.15834356164E+04  0.15294330000E+03 0.  0.
    8880022    1    1    2    0    0 -0.10803492465E+04  0.71776296747E+02  0.41629868070E+03  0.11700438349E+04  0.15294330000E+03 0.  0.
<mgrwt>
<rscale>  0 0.10934798E+04</rscale>
<asrwt>0</asrwt>
<pdfrwt beam="1">  1        2 0.15573385E+00 0.10934798E+04</pdfrwt>
<pdfrwt beam="2">  1       -2 0.26787838E+00 0.10934798E+04</pdfrwt>
<totfact> 0.12195957E+00</totfact>
</mgrwt>
</event>
<event>
 4    1  0.2202466E-008  0.1085857E+04  0.7818608E-02  0.9219087E-01
          2   -1    0    0  501    0  0.00000000000E+00  0.00000000000E+00  0.18194507063E+04  0.18194507063E+04  0.25500000000E-02 0. -1.
         -2   -1    0    0    0  501 -0.00000000000E+00 -0.00000000000E+00 -0.91307972391E+03  0.91307972391E+03  0.25500000000E-02 0.  1.
    8880022    1    1    2    0    0 -0.78308582915E+03  0.73652611191E+03 -0.28290654396E+03  0.11221060088E+04  0.15294330000E+03 0.  0.
    8880022    1    1    2    0    0  0.78308582915E+03 -0.73652611191E+03  0.11892775263E+04  0.16104244214E+04  0.15294330000E+03 0.  0.
<mgrwt>
<rscale>  0 0.10858572E+04</rscale>
<asrwt>0</asrwt>
<pdfrwt beam="1">  1        2 0.27991549E+00 0.10858572E+04</pdfrwt>
<pdfrwt beam="2">  1       -2 0.14047380E+00 0.10858572E+04</pdfrwt>
<totfact> 0.29532261E+00</totfact>
</mgrwt>
</event>
<event>
 4    1  0.2202466E-008  0.6187447E+03  0.7818608E-02  0.9867262E-01
         -2   -1    0    0    0  501 -0.00000000000E+00  0.00000000000E+00  0.97398472607E+03  0.97398472607E+03  0.25500000000E-02 0.  1.
          2   -1    0    0  501    0  0.00000000000E+00 -0.00000000000E+00 -0.61782021026E+03  0.61782021026E+03  0.25500000000E-02 0. -1.
    8880022    1    1    2    0    0 -0.49976835420E+02  0.59745769060E+03 -0.30195837907E+03  0.68849393014E+03  0.15294330000E+03 0. -1.
    8880022    1    1    2    0    0  0.49976835420E+02 -0.59745769060E+03  0.65812289488E+03  0.90331100619E+03  0.15294330000E+03 0.  0.
<mgrwt>
<rscale>  0 0.61874472E+03</rscale>
<asrwt>0</asrwt>
<pdfrwt beam="1">  1        2 0.95049263E-01 0.61874472E+03</pdfrwt>
<pdfrwt beam="2">  1       -2 0.14984380E+00 0.61874472E+03</pdfrwt>
<totfact> 0.14797569E+01</totfact>
</mgrwt>
</event>
<event>
 4    1  0.2202466E-008  0.6548775E+03  0.7818608E-02  0.9797670E-01
          2   -1    0    0  501    0  0.00000000000E+00  0.00000000000E+00  0.11115592196E+04  0.11115592196E+04  0.25500000000E-02 0. -1.
         -2   -1    0    0    0  501 -0.00000000000E+00 -0.00000000000E+00 -0.44104445634E+03  0.44104445635E+03  0.25500000000E-02 0.  1.
    8880022    1    1    2    0    0 -0.80233923411E+02  0.63169246939E+03  0.60565713834E+02  0.65767219575E+03  0.15294330000E+03 0.  0.
    8880022    1    1    2    0    0  0.80233923411E+02 -0.63169246939E+03  0.60994904942E+03  0.89493148020E+03  0.15294330000E+03 0.  0.
<mgrwt>
<rscale>  0 0.65487748E+03</rscale>
<asrwt>0</asrwt>
<pdfrwt beam="1">  1        2 0.17100911E+00 0.65487748E+03</pdfrwt>
<pdfrwt beam="2">  1       -2 0.67852993E-01 0.65487748E+03</pdfrwt>
<totfact> 0.43777132E+01</totfact>
</mgrwt>
</event>
<event>
 4    1  0.2202466E-008  0.9251731E+03  0.7818608E-02  0.9394650E-01
         -2   -1    0    0    0  501 -0.00000000000E+00  0.00000000000E+00  0.66121344998E+03  0.66121344998E+03  0.25500000000E-02 0.  1.
          2   -1    0    0  501    0  0.00000000000E+00 -0.00000000000E+00 -0.24741837032E+04  0.24741837032E+04  0.25500000000E-02 0. -1.
    8880022    1    1    2    0    0  0.27489926821E+03  0.87004823177E+03 -0.19889857745E+04  0.21936293209E+04  0.15294330000E+03 0.  0.
    8880022    1    1    2    0    0 -0.27489926821E+03 -0.87004823177E+03  0.17601552125E+03  0.94176783232E+03  0.15294330000E+03 0.  0.
<mgrwt>
<rscale>  0 0.92517306E+03</rscale>
<asrwt>0</asrwt>
<pdfrwt beam="1">  1        2 0.38064364E+00 0.92517306E+03</pdfrwt>
<pdfrwt beam="2">  1       -2 0.10172515E+00 0.92517306E+03</pdfrwt>
<totfact> 0.29116728E+00</totfact>
</mgrwt>
</event>
<event>
 4    1  0.2202466E-008  0.8022916E+03  0.7818608E-02  0.9556706E-01
          2   -1    0    0  501    0  0.00000000000E+00  0.00000000000E+00  0.10230851598E+04  0.10230851598E+04  0.25500000000E-02 0. -1.
         -2   -1    0    0    0  501 -0.00000000000E+00 -0.00000000000E+00 -0.10082704338E+04  0.10082704338E+04  0.25500000000E-02 0.  1.
    8880022    1    1    2    0    0  0.44683045901E+03  0.64855432685E+03  0.63021979253E+03  0.10202199831E+04  0.15294330000E+03 0.  0.
    8880022    1    1    2    0    0 -0.44683045901E+03 -0.64855432685E+03 -0.61540506652E+03  0.10111356105E+04  0.15294330000E+03 0.  0.
<mgrwt>
<rscale>  0 0.80229161E+03</rscale>
<asrwt>0</asrwt>
<pdfrwt beam="1">  1        2 0.15739772E+00 0.80229161E+03</pdfrwt>
<pdfrwt beam="2">  1       -2 0.15511853E+00 0.80229161E+03</pdfrwt>
<totfact> 0.67531007E+00</totfact>
</mgrwt>
</event>
<event>
 4    1  0.2202466E-008  0.7252856E+03  0.7818608E-02  0.9674942E-01
         -2   -1    0    0    0  501 -0.00000000000E+00  0.00000000000E+00  0.35343926027E+03  0.35343926028E+03  0.25500000000E-02 0.  1.
          2   -1    0    0  501    0  0.00000000000E+00 -0.00000000000E+00 -0.25062179863E+04  0.25062179863E+04  0.25500000000E-02 0. -1.
    8880022    1    1    2    0    0  0.70774633915E+03 -0.41745105375E+02 -0.16517284816E+03  0.74385566960E+03  0.15294330000E+03 0.  0.
    8880022    1    1    2    0    0 -0.70774633915E+03  0.41745105375E+02 -0.19876058778E+04  0.21158015770E+04  0.15294330000E+03 0.  0.
<mgrwt>
<rscale>  0 0.72528559E+03</rscale>
<asrwt>0</asrwt>
<pdfrwt beam="1">  1        2 0.38557199E+00 0.72528559E+03</pdfrwt>
<pdfrwt beam="2">  1       -2 0.54375272E-01 0.72528559E+03</pdfrwt>
<totfact> 0.11568875E+01</totfact>
</mgrwt>
</event>
<event>
 4    1  0.2202466E-008  0.1583618E+04  0.7818608E-02  0.8830676E-01
          2   -1    0    0  501    0  0.00000000000E+00  0.00000000000E+00  0.30918533965E+04  0.30918533965E+04  0.25500000000E-02 0. -1.
         -2   -1    0    0    0  501 -0.00000000000E+00 -0.00000000000E+00 -0.99071680520E+03  0.99071680520E+03  0.25500000000E-02 0.  1.
    8880022    1    1    2    0    0 -0.14482042105E+04 -0.62222087509E+03  0.18143711739E+03  0.15939778334E+04  0.15294330000E+03 0.  0.
    8880022    1    1    2    0    0  0.14482042105E+04  0.62222087509E+03  0.19196994739E+04  0.24885923683E+04  0.15294330000E+03 0.  0.
<mgrwt>
<rscale>  0 0.15836180E+04</rscale>
<asrwt>0</asrwt>
<pdfrwt beam="1">  1        2 0.47566975E+00 0.15836180E+04</pdfrwt>
<pdfrwt beam="2">  1       -2 0.15241797E+00 0.15836180E+04</pdfrwt>
<totfact> 0.41077588E-01</totfact>
</mgrwt>
</event>
<event>
 4    1  0.2202466E-008  0.7576569E+03  0.7818608E-02  0.9623414E-01
         -2   -1    0    0    0  501 -0.00000000000E+00  0.00000000000E+00  0.37355117226E+03  0.37355117227E+03  0.25500000000E-02 0.  1.
          2   -1    0    0  501    0  0.00000000000E+00 -0.00000000000E+00 -0.18414789484E+04  0.18414789484E+04  0.25500000000E-02 0. -1.
    8880022    1    1    2    0    0  0.40106310179E+02  0.74097492815E+03 -0.11845145428E+04  0.14061005353E+04  0.15294330000E+03 0.  0.
    8880022    1    1    2    0    0 -0.40106310179E+02 -0.74097492815E+03 -0.28341323338E+03  0.80892958540E+03  0.15294330000E+03 0.  0.
<mgrwt>
<rscale>  0 0.75765692E+03</rscale>
<asrwt>0</asrwt>
<pdfrwt beam="1">  1        2 0.28330445E+00 0.75765692E+03</pdfrwt>
<pdfrwt beam="2">  1       -2 0.57469412E-01 0.75765692E+03</pdfrwt>
<totfact> 0.23885778E+01</totfact>
</mgrwt>
</event>
<event>
 4    1  0.2202466E-008  0.4975451E+03  0.7818608E-02  0.1014422E+00
         -2   -1    0    0    0  501 -0.00000000000E+00  0.00000000000E+00  0.13875879668E+04  0.13875879668E+04  0.25500000000E-02 0.  1.
          2   -1    0    0  501    0  0.00000000000E+00 -0.00000000000E+00 -0.89547378221E+03  0.89547378221E+03  0.25500000000E-02 0. -1.
    8880022    1    1    2    0    0 -0.28842412247E+03  0.37546106783E+03 -0.77545134425E+03  0.92134463052E+03  0.15294330000E+03 0.  0.
    8880022    1    1    2    0    0  0.28842412247E+03 -0.37546106783E+03  0.12675655288E+04  0.13617171185E+04  0.15294330000E+03 0.  0.
<mgrwt>
<rscale>  0 0.49754511E+03</rscale>
<asrwt>0</asrwt>
<pdfrwt beam="1">  1        2 0.13776520E+00 0.49754511E+03</pdfrwt>
<pdfrwt beam="2">  1       -2 0.21347507E+00 0.49754511E+03</pdfrwt>
<totfact> 0.34465286E+00</totfact>
</mgrwt>
</event>
<event>
 4    1  0.2202466E-008  0.7540742E+03  0.7818608E-02  0.9628980E-01
          2   -1    0    0  501    0  0.00000000000E+00  0.00000000000E+00  0.15127163910E+04  0.15127163910E+04  0.25500000000E-02 0. -1.
         -2   -1    0    0    0  501 -0.00000000000E+00 -0.00000000000E+00 -0.50282063693E+03  0.50282063693E+03  0.25500000000E-02 0.  1.
    8880022    1    1    2    0    0 -0.40660523832E+02 -0.73728080519E+03 -0.13694841926E+01  0.75407545538E+03  0.15294330000E+03 0.  1.
    8880022    1    1    2    0    0  0.40660523832E+02  0.73728080519E+03  0.10112652383E+04  0.12614615725E+04  0.15294330000E+03 0.  0.
<mgrwt>
<rscale>  0 0.75407421E+03</rscale>
<asrwt>0</asrwt>
<pdfrwt beam="1">  1        2 0.23272560E+00 0.75407421E+03</pdfrwt>
<pdfrwt beam="2">  1       -2 0.77357022E-01 0.75407421E+03</pdfrwt>
<totfact> 0.19051400E+01</totfact>
</mgrwt>
</event>
<event>
 4    1  0.2202466E-008  0.3035128E+03  0.7818608E-02  0.1083498E+00
          2   -1    0    0  501    0  0.00000000000E+00  0.00000000000E+00  0.85588230031E+03  0.85588230031E+03  0.25500000000E-02 0. -1.
         -2   -1    0    0    0  501 -0.00000000000E+00 -0.00000000000E+00 -0.38240573132E+03  0.38240573133E+03  0.25500000000E-02 0.  1.
    8880022    1    1    2    0    0  0.10306334730E+03 -0.24105255735E+03 -0.28809014122E+03  0.41846860270E+03  0.15294330000E+03 0.  0.
    8880022    1    1    2    0    0 -0.10306334730E+03  0.24105255735E+03  0.76156671021E+03  0.81981942894E+03  0.15294330000E+03 0.  0.
<mgrwt>
<rscale>  0 0.30351284E+03</rscale>
<asrwt>0</asrwt>
<pdfrwt beam="1">  1        2 0.13167420E+00 0.30351284E+03</pdfrwt>
<pdfrwt beam="2">  1       -2 0.58831652E-01 0.30351284E+03</pdfrwt>
<totfact> 0.90159657E+01</totfact>
</mgrwt>
</event>
<event>
 4    1  0.2202466E-008  0.8126423E+03  0.7818608E-02  0.9541896E-01
         -2   -1    0    0    0  501 -0.00000000000E+00  0.00000000000E+00  0.60885979730E+03  0.60885979730E+03  0.25500000000E-02 0.  1.
          2   -1    0    0  501    0  0.00000000000E+00 -0.00000000000E+00 -0.29601667979E+04  0.29601667979E+04  0.25500000000E-02 0. -1.
    8880022    1    1    2    0    0 -0.79800230945E+03  0.13715117576E+02 -0.25960988255E+04  0.27203155249E+04  0.15294330000E+03 0.  0.
    8880022    1    1    2    0    0  0.79800230945E+03 -0.13715117576E+02  0.24479182487E+03  0.84871107031E+03  0.15294330000E+03 0.  0.
<mgrwt>
<rscale>  0 0.81264226E+03</rscale>
<asrwt>0</asrwt>
<pdfrwt beam="1">  1        2 0.45541027E+00 0.81264226E+03</pdfrwt>
<pdfrwt beam="2">  1       -2 0.93670740E-01 0.81264226E+03</pdfrwt>
<totfact> 0.18696811E+00</totfact>
</mgrwt>
</event>
<event>
 4    1  0.2202466E-008  0.5500438E+03  0.7818608E-02  0.1001484E+00
          2   -1    0    0  501    0  0.00000000000E+00  0.00000000000E+00  0.67483470209E+03  0.67483470209E+03  0.25500000000E-02 0. -1.
         -2   -1    0    0    0  501 -0.00000000000E+00 -0.00000000000E+00 -0.72004200638E+03  0.72004200638E+03  0.25500000000E-02 0.  1.
    8880022    1    1    2    0    0 -0.52726332184E+03 -0.33910918221E+02 -0.45103558362E+03  0.71132363354E+03  0.15294330000E+03 0.  0.
    8880022    1    1    2    0    0  0.52726332184E+03  0.33910918221E+02  0.40582827933E+03  0.68355307493E+03  0.15294330000E+03 0.  0.
<mgrwt>
<rscale>  0 0.55004383E+03</rscale>
<asrwt>0</asrwt>
<pdfrwt beam="1">  1        2 0.10382072E+00 0.55004383E+03</pdfrwt>
<pdfrwt beam="2">  1       -2 0.11077569E+00 0.55004383E+03</pdfrwt>
<totfact> 0.28648831E+01</totfact>
</mgrwt>
</event>
<event>
 4    1  0.2202466E-008  0.1671761E+04  0.7818608E-02  0.8777636E-01
         -2   -1    0    0    0  501 -0.00000000000E+00  0.00000000000E+00  0.25367937938E+04  0.25367937938E+04  0.25500000000E-02 0.  1.
          2   -1    0    0  501    0  0.00000000000E+00 -0.00000000000E+00 -0.22143538135E+04  0.22143538135E+04  0.25500000000E-02 0. -1.
    8880022    1    1    2    0    0  0.97467381354E+03  0.13495934543E+04 -0.15227147073E+04  0.22612923888E+04  0.15294330000E+03 0.  0.
    8880022    1    1    2    0    0 -0.97467381354E+03 -0.13495934543E+04  0.18451546877E+04  0.24898552185E+04  0.15294330000E+03 0.  0.
<mgrwt>
<rscale>  0 0.16717605E+04</rscale>
<asrwt>0</asrwt>
<pdfrwt beam="1">  1        2 0.34066982E+00 0.16717605E+04</pdfrwt>
<pdfrwt beam="2">  1       -2 0.39027597E+00 0.16717605E+04</pdfrwt>
<totfact> 0.39981402E-02</totfact>
</mgrwt>
</event>
<event>
 4    1  0.2202466E-008  0.7697700E+03  0.7818608E-02  0.9604835E-01
         -2   -1    0    0    0  501 -0.00000000000E+00  0.00000000000E+00  0.61630803710E+03  0.61630803711E+03  0.25500000000E-02 0.  1.
          2   -1    0    0  501    0  0.00000000000E+00 -0.00000000000E+00 -0.32419730649E+04  0.32419730649E+04  0.25500000000E-02 0. -1.
    8880022    1    1    2    0    0 -0.11108549099E+03  0.74619986062E+03 -0.29308266480E+04  0.30302294818E+04  0.15294330000E+03 0.  0.
    8880022    1    1    2    0    0  0.11108549099E+03 -0.74619986062E+03  0.30516162025E+03  0.82805162024E+03  0.15294330000E+03 0.  1.
<mgrwt>
<rscale>  0 0.76977001E+03</rscale>
<asrwt>0</asrwt>
<pdfrwt beam="1">  1        2 0.49876508E+00 0.76977001E+03</pdfrwt>
<pdfrwt beam="2">  1       -2 0.94816623E-01 0.76977001E+03</pdfrwt>
<totfact> 0.12222184E+00</totfact>
</mgrwt>
</event>
<event>
 4    1  0.2202466E-008  0.4280029E+03  0.7818608E-02  0.1034493E+00
          2   -1    0    0  501    0  0.00000000000E+00  0.00000000000E+00  0.49046478332E+04  0.49046478332E+04  0.25500000000E-02 0. -1.
         -2   -1    0    0    0  501 -0.00000000000E+00 -0.00000000000E+00 -0.27858595064E+03  0.27858595065E+03  0.25500000000E-02 0.  1.
    8880022    1    1    2    0    0 -0.22040352561E+03 -0.33349234044E+03  0.47246715867E+04  0.47440181398E+04  0.15294330000E+03 0.  0.
    8880022    1    1    2    0    0  0.22040352561E+03  0.33349234044E+03 -0.98609704154E+02  0.43921564407E+03  0.15294330000E+03 0.  0.
<mgrwt>
<rscale>  0 0.42800293E+03</rscale>
<asrwt>0</asrwt>
<pdfrwt beam="1">  1        2 0.75456119E+00 0.42800293E+03</pdfrwt>
<pdfrwt beam="2">  1       -2 0.42859378E-01 0.42800293E+03</pdfrwt>
<totfact> 0.30990872E-01</totfact>
</mgrwt>
</event>
<event>
 4    1  0.2202466E-008  0.2116123E+03  0.7818608E-02  0.1140296E+00
          2   -1    0    0  501    0  0.00000000000E+00  0.00000000000E+00  0.15072919258E+04  0.15072919258E+04  0.25500000000E-02 0. -1.
         -2   -1    0    0    0  501 -0.00000000000E+00 -0.00000000000E+00 -0.85529336832E+03  0.85529336832E+03  0.25500000000E-02 0.  1.
    8880022    1    1    2    0    0 -0.12723327875E+03  0.72109588847E+02 -0.83459585660E+03  0.86100522466E+03  0.15294330000E+03 0.  0.
    8880022    1    1    2    0    0  0.12723327875E+03 -0.72109588847E+02  0.14865944141E+04  0.15015800695E+04  0.15294330000E+03 0.  0.
<mgrwt>
<rscale>  0 0.21161227E+03</rscale>
<asrwt>0</asrwt>
<pdfrwt beam="1">  1        2 0.23189106E+00 0.21161227E+03</pdfrwt>
<pdfrwt beam="2">  1       -2 0.13158360E+00 0.21161227E+03</pdfrwt>
<totfact> 0.62801004E+00</totfact>
</mgrwt>
</event>
<event>
 4    1  0.2202466E-008  0.9537634E+03  0.7818608E-02  0.9360763E-01
         -2   -1    0    0    0  501 -0.00000000000E+00  0.00000000000E+00  0.15543501866E+04  0.15543501866E+04  0.25500000000E-02 0.  1.
          2   -1    0    0  501    0  0.00000000000E+00 -0.00000000000E+00 -0.15165290027E+04  0.15165290028E+04  0.25500000000E-02 0. -1.
    8880022    1    1    2    0    0  0.41470110924E+03  0.84516030052E+03  0.12221446291E+04  0.15502587175E+04  0.15294330000E+03 0.  0.
    8880022    1    1    2    0    0 -0.41470110924E+03 -0.84516030052E+03 -0.11843234453E+04  0.15206204719E+04  0.15294330000E+03 0.  0.
<mgrwt>
<rscale>  0 0.95376339E+03</rscale>
<asrwt>0</asrwt>
<pdfrwt beam="1">  1        2 0.23331216E+00 0.95376339E+03</pdfrwt>
<pdfrwt beam="2">  1       -2 0.23913080E+00 0.95376339E+03</pdfrwt>
<totfact> 0.93555563E-01</totfact>
</mgrwt>
</event>
<event>
 4    1  0.2202466E-008  0.1415956E+04  0.7818608E-02  0.8942349E-01
         -2   -1    0    0    0  501 -0.00000000000E+00  0.00000000000E+00  0.92423793724E+03  0.92423793724E+03  0.25500000000E-02 0.  1.
          2   -1    0    0  501    0  0.00000000000E+00 -0.00000000000E+00 -0.23195333924E+04  0.23195333924E+04  0.25500000000E-02 0. -1.
    8880022    1    1    2    0    0  0.12763664166E+04 -0.59365755042E+03 -0.28485690297E+03  0.14443253182E+04  0.15294330000E+03 0.  0.
    8880022    1    1    2    0    0 -0.12763664166E+04  0.59365755042E+03 -0.11104385521E+04  0.17994460114E+04  0.15294330000E+03 0.  0.
<mgrwt>
<rscale>  0 0.14159563E+04</rscale>
<asrwt>0</asrwt>
<pdfrwt beam="1">  1        2 0.35685129E+00 0.14159563E+04</pdfrwt>
<pdfrwt beam="2">  1       -2 0.14219045E+00 0.14159563E+04</pdfrwt>
<totfact> 0.14533309E+00</totfact>
</mgrwt>
</event>
<event>
 4    1  0.2202466E-008  0.5378002E+03  0.7818608E-02  0.1004358E+00
          2   -1    0    0  501    0  0.00000000000E+00  0.00000000000E+00  0.41859688904E+04  0.41859688904E+04  0.25500000000E-02 0. -1.
         -2   -1    0    0    0  501 -0.00000000000E+00 -0.00000000000E+00 -0.42858344760E+03  0.42858344761E+03  0.25500000000E-02 0.  1.
    8880022    1    1    2    0    0  0.41001990778E+03  0.31260375571E+03  0.39918139618E+04  0.40278788203E+04  0.15294330000E+03 0.  0.
    8880022    1    1    2    0    0 -0.41001990778E+03 -0.31260375571E+03 -0.23442851895E+03  0.58667351770E+03  0.15294330000E+03 0.  0.
<mgrwt>
<rscale>  0 0.53780023E+03</rscale>
<asrwt>0</asrwt>
<pdfrwt beam="1">  1        2 0.64399525E+00 0.53780023E+03</pdfrwt>
<pdfrwt beam="2">  1       -2 0.65935911E-01 0.53780023E+03</pdfrwt>
<totfact> 0.60865286E-01</totfact>
</mgrwt>
</event>
<event>
 4    1  0.2202466E-008  0.1040884E+04  0.7818608E-02  0.9264806E-01
         -2   -1    0    0    0  501 -0.00000000000E+00  0.00000000000E+00  0.13023852591E+04  0.13023852591E+04  0.25500000000E-02 0.  1.
          2   -1    0    0  501    0  0.00000000000E+00 -0.00000000000E+00 -0.16386040731E+04  0.16386040731E+04  0.25500000000E-02 0. -1.
    8880022    1    1    2    0    0 -0.10290300038E+04  0.33851850776E+02 -0.11998878409E+04  0.15884493005E+04  0.15294330000E+03 0.  0.
    8880022    1    1    2    0    0  0.10290300038E+04 -0.33851850776E+02  0.86366902681E+03  0.13525400317E+04  0.15294330000E+03 0.  0.
<mgrwt>
<rscale>  0 0.10408844E+04</rscale>
<asrwt>0</asrwt>
<pdfrwt beam="1">  1        2 0.25209293E+00 0.10408844E+04</pdfrwt>
<pdfrwt beam="2">  1       -2 0.20036696E+00 0.10408844E+04</pdfrwt>
<totfact> 0.13882647E+00</totfact>
</mgrwt>
</event>
<event>
 4    1  0.2202466E-008  0.7158826E+03  0.7818608E-02  0.9690450E-01
          2   -1    0    0  501    0  0.00000000000E+00  0.00000000000E+00  0.34246558457E+04  0.34246558457E+04  0.25500000000E-02 0. -1.
         -2   -1    0    0    0  501 -0.00000000000E+00 -0.00000000000E+00 -0.29060206226E+03  0.29060206227E+03  0.25500000000E-02 0.  1.
    8880022    1    1    2    0    0 -0.55872309297E+03  0.42062417174E+03  0.28607778920E+04  0.29489893165E+04  0.15294330000E+03 0.  0.
    8880022    1    1    2    0    0  0.55872309297E+03 -0.42062417174E+03  0.27327589150E+03  0.76626859152E+03  0.15294330000E+03 0.  0.
<mgrwt>
<rscale>  0 0.71588256E+03</rscale>
<asrwt>0</asrwt>
<pdfrwt beam="1">  1        2 0.52687017E+00 0.71588256E+03</pdfrwt>
<pdfrwt beam="2">  1       -2 0.44708007E-01 0.71588256E+03</pdfrwt>
<totfact> 0.47383901E+00</totfact>
</mgrwt>
</event>
<event>
 4    1  0.2202466E-008  0.1399144E+04  0.7818608E-02  0.8954438E-01
          2   -1    0    0  501    0  0.00000000000E+00  0.00000000000E+00  0.27669794541E+04  0.27669794541E+04  0.25500000000E-02 0. -1.
         -2   -1    0    0    0  501 -0.00000000000E+00 -0.00000000000E+00 -0.20552804426E+04  0.20552804426E+04  0.25500000000E-02 0.  1.
    8880022    1    1    2    0    0 -0.13864232521E+04  0.10974421815E+03 -0.15966753626E+04  0.21229642234E+04  0.15294330000E+03 0.  0.
    8880022    1    1    2    0    0  0.13864232521E+04 -0.10974421815E+03  0.23083743741E+04  0.26992956733E+04  0.15294330000E+03 0.  0.
<mgrwt>
<rscale>  0 0.13991443E+04</rscale>
<asrwt>0</asrwt>
<pdfrwt beam="1">  1        2 0.42568914E+00 0.13991443E+04</pdfrwt>
<pdfrwt beam="2">  1       -2 0.31619699E+00 0.13991443E+04</pdfrwt>
<totfact> 0.58385054E-02</totfact>
</mgrwt>
</event>
<event>
 4    1  0.2202466E-008  0.5186860E+03  0.7818608E-02  0.1009013E+00
         -2   -1    0    0    0  501 -0.00000000000E+00  0.00000000000E+00  0.10424039249E+04  0.10424039249E+04  0.25500000000E-02 0.  1.
          2   -1    0    0  501    0  0.00000000000E+00 -0.00000000000E+00 -0.73574091826E+03  0.73574091826E+03  0.25500000000E-02 0. -1.
    8880022    1    1    2    0    0  0.48228391835E+03 -0.11421799901E+03 -0.56302546443E+03  0.76552782824E+03  0.15294330000E+03 0. -1.
    8880022    1    1    2    0    0 -0.48228391835E+03  0.11421799901E+03  0.86968847104E+03  0.10126170149E+04  0.15294330000E+03 0.  0.
<mgrwt>
<rscale>  0 0.51868602E+03</rscale>
<asrwt>0</asrwt>
<pdfrwt beam="1">  1        2 0.11319091E+00 0.51868602E+03</pdfrwt>
<pdfrwt beam="2">  1       -2 0.16036983E+00 0.51868602E+03</pdfrwt>
<totfact> 0.10089334E+01</totfact>
</mgrwt>
</event>
<event>
 4    1  0.2202466E-008  0.1225682E+04  0.7818608E-02  0.9090670E-01
         -2   -1    0    0    0  501 -0.00000000000E+00  0.00000000000E+00  0.19533095049E+04  0.19533095049E+04  0.25500000000E-02 0.  1.
          2   -1    0    0  501    0  0.00000000000E+00 -0.00000000000E+00 -0.14493077819E+04  0.14493077819E+04  0.25500000000E-02 0. -1.
    8880022    1    1    2    0    0 -0.56486872883E+02  0.12147893874E+04  0.14175288916E+04  0.18739487278E+04  0.15294330000E+03 0.  0.
    8880022    1    1    2    0    0  0.56486872883E+02 -0.12147893874E+04 -0.91352716858E+03  0.15286685590E+04  0.15294330000E+03 0.  0.
<mgrwt>
<rscale>  0 0.12256817E+04</rscale>
<asrwt>0</asrwt>
<pdfrwt beam="1">  1        2 0.22297043E+00 0.12256817E+04</pdfrwt>
<pdfrwt beam="2">  1       -2 0.30050915E+00 0.12256817E+04</pdfrwt>
<totfact> 0.41616138E-01</totfact>
</mgrwt>
</event>
<event>
 4    1  0.2202466E-008  0.7310718E+03  0.7818608E-02  0.9665523E-01
          2   -1    0    0  501    0  0.00000000000E+00  0.00000000000E+00  0.96934563617E+03  0.96934563617E+03  0.25500000000E-02 0. -1.
         -2   -1    0    0    0  501 -0.00000000000E+00 -0.00000000000E+00 -0.14815709940E+04  0.14815709940E+04  0.25500000000E-02 0.  1.
    8880022    1    1    2    0    0  0.29905091556E+03  0.64934037763E+03  0.71490292449E+03  0.10225224792E+04  0.15294330000E+03 0.  0.
    8880022    1    1    2    0    0 -0.29905091556E+03 -0.64934037763E+03 -0.12271282823E+04  0.14283941509E+04  0.15294330000E+03 0.  0.
<mgrwt>
<rscale>  0 0.73107184E+03</rscale>
<asrwt>0</asrwt>
<pdfrwt beam="1">  1        2 0.14913010E+00 0.73107184E+03</pdfrwt>
<pdfrwt beam="2">  1       -2 0.22793400E+00 0.73107184E+03</pdfrwt>
<totfact> 0.23969098E+00</totfact>
</mgrwt>
</event>
<event>
 4    1  0.2202466E-008  0.7410386E+03  0.7818608E-02  0.9649515E-01
         -2   -1    0    0    0  501 -0.00000000000E+00  0.00000000000E+00  0.15299768146E+04  0.15299768146E+04  0.25500000000E-02 0.  1.
          2   -1    0    0  501    0  0.00000000000E+00 -0.00000000000E+00 -0.15026505837E+04  0.15026505837E+04  0.25500000000E-02 0. -1.
    8880022    1    1    2    0    0  0.66705836343E+03 -0.28421759549E+03 -0.13092217962E+04  0.15043935211E+04  0.15294330000E+03 0.  0.
    8880022    1    1    2    0    0 -0.66705836343E+03  0.28421759549E+03  0.13365480271E+04  0.15282338772E+04  0.15294330000E+03 0.  0.
<mgrwt>
<rscale>  0 0.74103857E+03</rscale>
<asrwt>0</asrwt>
<pdfrwt beam="1">  1        2 0.23117701E+00 0.74103857E+03</pdfrwt>
<pdfrwt beam="2">  1       -2 0.23538105E+00 0.74103857E+03</pdfrwt>
<totfact> 0.10420105E+00</totfact>
</mgrwt>
</event>
<event>
 4    1  0.2202466E-008  0.4647804E+03  0.7818608E-02  0.1023404E+00
         -2   -1    0    0    0  501 -0.00000000000E+00  0.00000000000E+00  0.15695085861E+03  0.15695085863E+03  0.25500000000E-02 0.  1.
          2   -1    0    0  501    0  0.00000000000E+00 -0.00000000000E+00 -0.30116063993E+04  0.30116063993E+04  0.25500000000E-02 0. -1.
    8880022    1    1    2    0    0 -0.43729101350E+03  0.37493079871E+02 -0.25947396745E+04  0.26360377071E+04  0.15294330000E+03 0.  0.
    8880022    1    1    2    0    0  0.43729101350E+03 -0.37493079871E+02 -0.25991586613E+03  0.53251955082E+03  0.15294330000E+03 0.  0.
<mgrwt>
<rscale>  0 0.46478039E+03</rscale>
<asrwt>0</asrwt>
<pdfrwt beam="1">  1        2 0.46332402E+00 0.46478039E+03</pdfrwt>
<pdfrwt beam="2">  1       -2 0.24146288E-01 0.46478039E+03</pdfrwt>
<totfact> 0.29284829E+01</totfact>
</mgrwt>
</event>
<event>
 4    1  0.2202466E-008  0.7789325E+03  0.7818608E-02  0.9591022E-01
         -2   -1    0    0    0  501 -0.00000000000E+00  0.00000000000E+00  0.78008465129E+03  0.78008465129E+03  0.25500000000E-02 0.  1.
          2   -1    0    0  501    0  0.00000000000E+00 -0.00000000000E+00 -0.28993650945E+04  0.28993650945E+04  0.25500000000E-02 0. -1.
    8880022    1    1    2    0    0 -0.54400548574E+03 -0.53609913425E+03  0.51409417260E+03  0.93328919504E+03  0.15294330000E+03 0.  0.
    8880022    1    1    2    0    0  0.54400548574E+03  0.53609913425E+03 -0.26333746158E+04  0.27461605507E+04  0.15294330000E+03 0.  0.
<mgrwt>
<rscale>  0 0.77893254E+03</rscale>
<asrwt>0</asrwt>
<pdfrwt beam="1">  1        2 0.44605616E+00 0.77893254E+03</pdfrwt>
<pdfrwt beam="2">  1       -2 0.12001302E+00 0.77893254E+03</pdfrwt>
<totfact> 0.11293375E+00</totfact>
</mgrwt>
</event>
<event>
 4    1  0.2202466E-008  0.4969440E+03  0.7818608E-02  0.1014580E+00
          2   -1    0    0  501    0  0.00000000000E+00  0.00000000000E+00  0.30830047005E+03  0.30830047006E+03  0.25500000000E-02 0. -1.
         -2   -1    0    0    0  501 -0.00000000000E+00 -0.00000000000E+00 -0.11970018577E+04  0.11970018577E+04  0.25500000000E-02 0.  1.
    8880022    1    1    2    0    0  0.36378470042E+03 -0.30203040267E+03 -0.11451608487E+02  0.49707591447E+03  0.15294330000E+03 0.  0.
    8880022    1    1    2    0    0 -0.36378470042E+03  0.30203040267E+03 -0.87724977912E+03  0.10082264133E+04  0.15294330000E+03 0.  0.
<mgrwt>
<rscale>  0 0.49694399E+03</rscale>
<asrwt>0</asrwt>
<pdfrwt beam="1">  1        2 0.47430842E-01 0.49694399E+03</pdfrwt>
<pdfrwt beam="2">  1       -2 0.18415413E+00 0.49694399E+03</pdfrwt>
<totfact> 0.18840468E+01</totfact>
</mgrwt>
</event>
<event>
 4    1  0.2202466E-008  0.1103656E+04  0.7818608E-02  0.9201636E-01
         -2   -1    0    0    0  501 -0.00000000000E+00  0.00000000000E+00  0.98321060291E+03  0.98321060291E+03  0.25500000000E-02 0.  1.
          2   -1    0    0  501    0  0.00000000000E+00 -0.00000000000E+00 -0.25671182522E+04  0.25671182522E+04  0.25500000000E-02 0. -1.
    8880022    1    1    2    0    0  0.10869519295E+04 -0.11489560303E+03 -0.20688554282E+04  0.23448283375E+04  0.15294330000E+03 0.  0.
    8880022    1    1    2    0    0 -0.10869519295E+04  0.11489560303E+03  0.48494777892E+03  0.12055005176E+04  0.15294330000E+03 0.  0.
<mgrwt>
<rscale>  0 0.11036563E+04</rscale>
<asrwt>0</asrwt>
<pdfrwt beam="1">  1        2 0.39494127E+00 0.11036563E+04</pdfrwt>
<pdfrwt beam="2">  1       -2 0.15126317E+00 0.11036563E+04</pdfrwt>
<totfact> 0.92423856E-01</totfact>
</mgrwt>
</event>
<event>
 4    1  0.2343175E-008  0.1356847E+04  0.7818608E-02  0.8985661E-01
         -2   -1    0    0    0  501 -0.00000000000E+00  0.00000000000E+00  0.23523901282E+04  0.23523901282E+04  0.25500000000E-02 0.  1.
          2   -1    0    0  501    0  0.00000000000E+00 -0.00000000000E+00 -0.22394414706E+04  0.22394414706E+04  0.25500000000E-02 0. -1.
    8880022    1    1    2    0    0  0.13277557263E+04  0.23389651559E+03  0.19082519252E+04  0.23414653343E+04  0.15294330000E+03 0.  0.
    8880022    1    1    2    0    0 -0.13277557263E+04 -0.23389651559E+03 -0.17953032676E+04  0.22503662645E+04  0.15294330000E+03 0.  0.
<mgrwt>
<rscale>  0 0.13568473E+04</rscale>
<asrwt>0</asrwt>
<pdfrwt beam="1">  1        2 0.34452946E+00 0.13568473E+04</pdfrwt>
<pdfrwt beam="2">  1       -2 0.36190617E+00 0.13568473E+04</pdfrwt>
<totfact> 0.61540698E-02</totfact>
</mgrwt>
</event>
<event>
 4    1  0.2202466E-008  0.9133809E+03  0.7818608E-02  0.9409007E-01
         -2   -1    0    0    0  501 -0.00000000000E+00  0.00000000000E+00  0.15841389090E+04  0.15841389090E+04  0.25500000000E-02 0.  1.
          2   -1    0    0  501    0  0.00000000000E+00 -0.00000000000E+00 -0.17918711411E+04  0.17918711411E+04  0.25500000000E-02 0. -1.
    8880022    1    1    2    0    0  0.89747714636E+03  0.73538232570E+02 -0.15222897260E+04  0.17752832909E+04  0.15294330000E+03 0.  0.
    8880022    1    1    2    0    0 -0.89747714636E+03 -0.73538232570E+02  0.13145574939E+04  0.16007267592E+04  0.15294330000E+03 0.  0.
<mgrwt>
<rscale>  0 0.91338095E+03</rscale>
<asrwt>0</asrwt>
<pdfrwt beam="1">  1        2 0.27567249E+00 0.91338095E+03</pdfrwt>
<pdfrwt beam="2">  1       -2 0.24371368E+00 0.91338095E+03</pdfrwt>
<totfact> 0.62152639E-01</totfact>
</mgrwt>
</event>
<event>
 4    1  0.2202466E-008  0.1353217E+04  0.7818608E-02  0.8988396E-01
         -2   -1    0    0    0  501 -0.00000000000E+00  0.00000000000E+00  0.14533636585E+04  0.14533636585E+04  0.25500000000E-02 0.  1.
          2   -1    0    0  501    0  0.00000000000E+00 -0.00000000000E+00 -0.17027688733E+04  0.17027688733E+04  0.25500000000E-02 0. -1.
    8880022    1    1    2    0    0 -0.75194620701E+03 -0.11146218434E+04  0.68002697153E+03  0.15144745911E+04  0.15294330000E+03 0.  0.
    8880022    1    1    2    0    0  0.75194620701E+03  0.11146218434E+04 -0.92943218636E+03  0.16416579406E+04  0.15294330000E+03 0.  0.
<mgrwt>
<rscale>  0 0.13532171E+04</rscale>
<asrwt>0</asrwt>
<pdfrwt beam="1">  1        2 0.26196444E+00 0.13532171E+04</pdfrwt>
<pdfrwt beam="2">  1       -2 0.22359441E+00 0.13532171E+04</pdfrwt>
<totfact> 0.87413064E-01</totfact>
</mgrwt>
</event>
<event>
 4    1  0.2202466E-008  0.1310085E+04  0.7818608E-02  0.9021606E-01
          2   -1    0    0  501    0  0.00000000000E+00  0.00000000000E+00  0.24518324882E+04  0.24518324882E+04  0.25500000000E-02 0. -1.
         -2   -1    0    0    0  501 -0.00000000000E+00 -0.00000000000E+00 -0.77309411368E+03  0.77309411368E+03  0.25500000000E-02 0.  1.
    8880022    1    1    2    0    0 -0.11834244363E+04  0.54077481965E+03  0.34361460888E+03  0.13543978198E+04  0.15294330000E+03 0.  0.
    8880022    1    1    2    0    0  0.11834244363E+04 -0.54077481965E+03  0.13351237656E+04  0.18705287821E+04  0.15294330000E+03 0.  0.
<mgrwt>
<rscale>  0 0.13100849E+04</rscale>
<asrwt>0</asrwt>
<pdfrwt beam="1">  1        2 0.37720499E+00 0.13100849E+04</pdfrwt>
<pdfrwt beam="2">  1       -2 0.11893756E+00 0.13100849E+04</pdfrwt>
<totfact> 0.19508079E+00</totfact>
</mgrwt>
</event>
<event>
 4    1  0.2202466E-008  0.7739351E+03  0.7818608E-02  0.9598531E-01
         -2   -1    0    0    0  501 -0.00000000000E+00  0.00000000000E+00  0.47755612645E+03  0.47755612645E+03  0.25500000000E-02 0.  1.
          2   -1    0    0  501    0  0.00000000000E+00 -0.00000000000E+00 -0.29061627322E+04  0.29061627322E+04  0.25500000000E-02 0. -1.
    8880022    1    1    2    0    0 -0.71226475316E+03 -0.26127162736E+03 -0.24898537380E+04  0.26073640389E+04  0.15294330000E+03 0.  0.
    8880022    1    1    2    0    0  0.71226475316E+03  0.26127162736E+03  0.61247132266E+02  0.77635481971E+03  0.15294330000E+03 0.  0.
<mgrwt>
<rscale>  0 0.77393514E+03</rscale>
<asrwt>0</asrwt>
<pdfrwt beam="1">  1        2 0.44710195E+00 0.77393514E+03</pdfrwt>
<pdfrwt beam="2">  1       -2 0.73470175E-01 0.77393514E+03</pdfrwt>
<totfact> 0.35236941E+00</totfact>
</mgrwt>
</event>
<event>
 4    1  0.2202466E-008  0.7713178E+03  0.7818608E-02  0.9602487E-01
         -2   -1    0    0    0  501 -0.00000000000E+00  0.00000000000E+00  0.59147173257E+03  0.59147173257E+03  0.25500000000E-02 0.  1.
          2   -1    0    0  501    0  0.00000000000E+00 -0.00000000000E+00 -0.24641381745E+04  0.24641381745E+04  0.25500000000E-02 0. -1.
    8880022    1    1    2    0    0 -0.14618587023E+03 -0.74173391052E+03 -0.21116562215E+04  0.22481154671E+04  0.15294330000E+03 0.  0.
    8880022    1    1    2    0    0  0.14618587023E+03  0.74173391052E+03  0.23898977964E+03  0.80749443989E+03  0.15294330000E+03 0.  0.
<mgrwt>
<rscale>  0 0.77131780E+03</rscale>
<asrwt>0</asrwt>
<pdfrwt beam="1">  1        2 0.37909817E+00 0.77131780E+03</pdfrwt>
<pdfrwt beam="2">  1       -2 0.90995653E-01 0.77131780E+03</pdfrwt>
<totfact> 0.39313505E+00</totfact>
</mgrwt>
</event>
<event>
 4    1  0.2202466E-008  0.1174119E+04  0.7818608E-02  0.9135817E-01
         -2   -1    0    0    0  501 -0.00000000000E+00  0.00000000000E+00  0.16373364203E+04  0.16373364203E+04  0.25500000000E-02 0.  1.
          2   -1    0    0  501    0  0.00000000000E+00 -0.00000000000E+00 -0.15180477931E+04  0.15180477931E+04  0.25500000000E-02 0. -1.
    8880022    1    1    2    0    0  0.97321535756E+03 -0.63876078101E+03 -0.99324894285E+03  0.15378877017E+04  0.15294330000E+03 0.  0.
    8880022    1    1    2    0    0 -0.97321535756E+03  0.63876078101E+03  0.11125375700E+04  0.16174965117E+04  0.15294330000E+03 0.  0.
<mgrwt>
<rscale>  0 0.11741189E+04</rscale>
<asrwt>0</asrwt>
<pdfrwt beam="1">  1        2 0.23354582E+00 0.11741189E+04</pdfrwt>
<pdfrwt beam="2">  1       -2 0.25189791E+00 0.11741189E+04</pdfrwt>
<totfact> 0.75624662E-01</totfact>
</mgrwt>
</event>
<event>
 4    1  0.2202466E-008  0.9157919E+03  0.7818608E-02  0.9406053E-01
         -2   -1    0    0    0  501 -0.00000000000E+00  0.00000000000E+00  0.66441544163E+03  0.66441544163E+03  0.25500000000E-02 0.  1.
          2   -1    0    0  501    0  0.00000000000E+00 -0.00000000000E+00 -0.19469688177E+04  0.19469688177E+04  0.25500000000E-02 0. -1.
    8880022    1    1    2    0    0 -0.10383992174E+03  0.89693944213E+03  0.13302394435E+03  0.92540267720E+03  0.15294330000E+03 0.  0.
    8880022    1    1    2    0    0  0.10383992174E+03 -0.89693944213E+03 -0.14155773204E+04  0.16859815821E+04  0.15294330000E+03 0.  0.
<mgrwt>
<rscale>  0 0.91579187E+03</rscale>
<asrwt>0</asrwt>
<pdfrwt beam="1">  1        2 0.29953366E+00 0.91579187E+03</pdfrwt>
<pdfrwt beam="2">  1       -2 0.10221776E+00 0.91579187E+03</pdfrwt>
<totfact> 0.56627991E+00</totfact>
</mgrwt>
</event>
<event>
 4    1  0.2202466E-008  0.5809608E+03  0.7818608E-02  0.9945713E-01
         -2   -1    0    0    0  501 -0.00000000000E+00  0.00000000000E+00  0.57971224184E+03  0.57971224185E+03  0.25500000000E-02 0.  1.
          2   -1    0    0  501    0  0.00000000000E+00 -0.00000000000E+00 -0.15303666297E+04  0.15303666297E+04  0.25500000000E-02 0. -1.
    8880022    1    1    2    0    0  0.37886277486E+03 -0.41302153205E+03  0.35511714285E+03  0.68089913076E+03  0.15294330000E+03 0.  0.
    8880022    1    1    2    0    0 -0.37886277486E+03  0.41302153205E+03 -0.13057715307E+04  0.14291797408E+04  0.15294330000E+03 0.  0.
<mgrwt>
<rscale>  0 0.58096079E+03</rscale>
<asrwt>0</asrwt>
<pdfrwt beam="1">  1        2 0.23544102E+00 0.58096079E+03</pdfrwt>
<pdfrwt beam="2">  1       -2 0.89186499E-01 0.58096079E+03</pdfrwt>
<totfact> 0.13841802E+01</totfact>
</mgrwt>
</event>
<event>
 4    1  0.2202466E-008  0.4752101E+03  0.7818608E-02  0.1020460E+00
          2   -1    0    0  501    0  0.00000000000E+00  0.00000000000E+00  0.14658854150E+04  0.14658854150E+04  0.25500000000E-02 0. -1.
         -2   -1    0    0    0  501 -0.00000000000E+00 -0.00000000000E+00 -0.94730652655E+03  0.94730652656E+03  0.25500000000E-02 0.  1.
    8880022    1    1    2    0    0 -0.56446584905E+01  0.44989007417E+03  0.13634252898E+04  0.14438674159E+04  0.15294330000E+03 0. -1.
    8880022    1    1    2    0    0  0.56446584905E+01 -0.44989007417E+03 -0.84484640136E+03  0.96932452559E+03  0.15294330000E+03 0.  0.
<mgrwt>
<rscale>  0 0.47521005E+03</rscale>
<asrwt>0</asrwt>
<pdfrwt beam="1">  1        2 0.22552083E+00 0.47521005E+03</pdfrwt>
<pdfrwt beam="2">  1       -2 0.14573947E+00 0.47521005E+03</pdfrwt>
<totfact> 0.46396634E+00</totfact>
</mgrwt>
</event>
<event>
 4    1  0.2202466E-008  0.3744967E+03  0.7818608E-02  0.1052987E+00
          2   -1    0    0  501    0  0.00000000000E+00  0.00000000000E+00  0.16201743942E+04  0.16201743942E+04  0.25500000000E-02 0. -1.
         -2   -1    0    0    0  501 -0.00000000000E+00 -0.00000000000E+00 -0.12741369726E+04  0.12741369726E+04  0.25500000000E-02 0.  1.
    8880022    1    1    2    0    0 -0.29655217718E+03 -0.17003812607E+03 -0.12241133442E+04  0.12801176863E+04  0.15294330000E+03 0.  0.
    8880022    1    1    2    0    0  0.29655217718E+03  0.17003812607E+03  0.15701507658E+04  0.16141936806E+04  0.15294330000E+03 0. -1.
<mgrwt>
<rscale>  0 0.37449674E+03</rscale>
<asrwt>0</asrwt>
<pdfrwt beam="1">  1        2 0.24925760E+00 0.37449674E+03</pdfrwt>
<pdfrwt beam="2">  1       -2 0.19602107E+00 0.37449674E+03</pdfrwt>
<totfact> 0.17507423E+00</totfact>
</mgrwt>
</event>
<event>
 4    1  0.2202466E-008  0.9389335E+03  0.7818608E-02  0.9378180E-01
         -2   -1    0    0    0  501 -0.00000000000E+00  0.00000000000E+00  0.10364648902E+04  0.10364648902E+04  0.25500000000E-02 0.  1.
          2   -1    0    0  501    0  0.00000000000E+00 -0.00000000000E+00 -0.13405762834E+04  0.13405762834E+04  0.25500000000E-02 0. -1.
    8880022    1    1    2    0    0 -0.35511935907E+03  0.85562529522E+03  0.56649504490E+03  0.10965913979E+04  0.15294330000E+03 0.  0.
    8880022    1    1    2    0    0  0.35511935907E+03 -0.85562529522E+03 -0.87060643815E+03  0.12804497757E+04  0.15294330000E+03 0.  0.
<mgrwt>
<rscale>  0 0.93893347E+03</rscale>
<asrwt>0</asrwt>
<pdfrwt beam="1">  1        2 0.20624251E+00 0.93893347E+03</pdfrwt>
<pdfrwt beam="2">  1       -2 0.15945614E+00 0.93893347E+03</pdfrwt>
<totfact> 0.39757007E+00</totfact>
</mgrwt>
</event>
<event>
 4    1  0.2202466E-008  0.9184943E+03  0.7818608E-02  0.9402753E-01
          2   -1    0    0  501    0  0.00000000000E+00  0.00000000000E+00  0.14971642918E+04  0.14971642918E+04  0.25500000000E-02 0. -1.
         -2   -1    0    0    0  501 -0.00000000000E+00 -0.00000000000E+00 -0.70538764447E+03  0.70538764447E+03  0.25500000000E-02 0.  1.
    8880022    1    1    2    0    0  0.90565936655E+03 -0.45986835745E+01 -0.98053008458E+02  0.92371320311E+03  0.15294330000E+03 0.  0.
    8880022    1    1    2    0    0 -0.90565936655E+03  0.45986835745E+01  0.88982965578E+03  0.12788387332E+04  0.15294330000E+03 0.  0.
<mgrwt>
<rscale>  0 0.91849425E+03</rscale>
<asrwt>0</asrwt>
<pdfrwt beam="1">  1        2 0.23033297E+00 0.91849425E+03</pdfrwt>
<pdfrwt beam="2">  1       -2 0.10852118E+00 0.91849425E+03</pdfrwt>
<totfact> 0.86803930E+00</totfact>
</mgrwt>
</event>
<event>
 4    1  0.2528994E-008  0.1037236E+04  0.7818608E-02  0.9268622E-01
         -2   -1    0    0    0  501 -0.00000000000E+00  0.00000000000E+00  0.12681053485E+04  0.12681053485E+04  0.25500000000E-02 0.  1.
          2   -1    0    0  501    0  0.00000000000E+00 -0.00000000000E+00 -0.27603135406E+04  0.27603135406E+04  0.25500000000E-02 0. -1.
    8880022    1    1    2    0    0 -0.81701914228E+03  0.62044095780E+03 -0.24224347765E+04  0.26351563825E+04  0.15294330000E+03 0.  0.
    8880022    1    1    2    0    0  0.81701914228E+03 -0.62044095780E+03  0.93022658436E+03  0.13932625066E+04  0.15294330000E+03 0.  0.
<mgrwt>
<rscale>  0 0.10372362E+04</rscale>
<asrwt>0</asrwt>
<pdfrwt beam="1">  1        2 0.42466362E+00 0.10372362E+04</pdfrwt>
<pdfrwt beam="2">  1       -2 0.19509313E+00 0.10372362E+04</pdfrwt>
<totfact> 0.35196573E-01</totfact>
</mgrwt>
</event>
<event>
 4    1  0.2202466E-008  0.7921477E+03  0.7818608E-02  0.9571453E-01
         -2   -1    0    0    0  501 -0.00000000000E+00  0.00000000000E+00  0.11323556500E+04  0.11323556500E+04  0.25500000000E-02 0.  1.
          2   -1    0    0  501    0  0.00000000000E+00 -0.00000000000E+00 -0.17176624617E+04  0.17176624617E+04  0.25500000000E-02 0. -1.
    8880022    1    1    2    0    0 -0.43497623089E+03 -0.64412890637E+03  0.88017294267E+03  0.11841462880E+04  0.15294330000E+03 0.  0.
    8880022    1    1    2    0    0  0.43497623089E+03  0.64412890637E+03 -0.14654797543E+04  0.16658718236E+04  0.15294330000E+03 0.  0.
<mgrwt>
<rscale>  0 0.79214773E+03</rscale>
<asrwt>0</asrwt>
<pdfrwt beam="1">  1        2 0.26425576E+00 0.79214773E+03</pdfrwt>
<pdfrwt beam="2">  1       -2 0.17420856E+00 0.79214773E+03</pdfrwt>
<totfact> 0.19574187E+00</totfact>
</mgrwt>
</event>
<event>
 4    1  0.2202466E-008  0.1098679E+04  0.7818608E-02  0.9206481E-01
          2   -1    0    0  501    0  0.00000000000E+00  0.00000000000E+00  0.36597434255E+04  0.36597434255E+04  0.25500000000E-02 0. -1.
         -2   -1    0    0    0  501 -0.00000000000E+00 -0.00000000000E+00 -0.12203992951E+04  0.12203992951E+04  0.25500000000E-02 0.  1.
    8880022    1    1    2    0    0 -0.10878067206E+04  0.19476806376E+02  0.33040925210E+04  0.34819709717E+04  0.15294330000E+03 0.  0.
    8880022    1    1    2    0    0  0.10878067206E+04 -0.19476806376E+02 -0.86474839058E+03  0.13981717489E+04  0.15294330000E+03 0.  0.
<mgrwt>
<rscale>  0 0.10986785E+04</rscale>
<asrwt>0</asrwt>
<pdfrwt beam="1">  1        2 0.56303744E+00 0.10986785E+04</pdfrwt>
<pdfrwt beam="2">  1       -2 0.18775374E+00 0.10986785E+04</pdfrwt>
<totfact> 0.10184409E-01</totfact>
</mgrwt>
</event>
<event>
 4    1  0.2202466E-008  0.8796337E+03  0.7818608E-02  0.9451405E-01
          2   -1    0    0  501    0  0.00000000000E+00  0.00000000000E+00  0.19551519909E+04  0.19551519909E+04  0.25500000000E-02 0. -1.
         -2   -1    0    0    0  501 -0.00000000000E+00 -0.00000000000E+00 -0.44837672643E+03  0.44837672643E+03  0.25500000000E-02 0.  1.
    8880022    1    1    2    0    0  0.51648846450E+03  0.69541604308E+03  0.34167669965E+03  0.94366224203E+03  0.15294330000E+03 0.  0.
    8880022    1    1    2    0    0 -0.51648846450E+03 -0.69541604308E+03  0.11650985648E+04  0.14598664753E+04  0.15294330000E+03 0.  0.
<mgrwt>
<rscale>  0 0.87963371E+03</rscale>
<asrwt>0</asrwt>
<pdfrwt beam="1">  1        2 0.30079261E+00 0.87963371E+03</pdfrwt>
<pdfrwt beam="2">  1       -2 0.68981035E-01 0.87963371E+03</pdfrwt>
<totfact> 0.13802745E+01</totfact>
</mgrwt>
</event>
<event>
 4    1  0.2202466E-008  0.6627063E+03  0.7818608E-02  0.9783225E-01
          2   -1    0    0  501    0  0.00000000000E+00  0.00000000000E+00  0.95251211103E+03  0.95251211103E+03  0.25500000000E-02 0. -1.
         -2   -1    0    0    0  501 -0.00000000000E+00 -0.00000000000E+00 -0.75380663838E+03  0.75380663838E+03  0.25500000000E-02 0.  1.
    8880022    1    1    2    0    0  0.59628207047E+00 -0.64481593038E+03  0.63101393341E+03  0.91507277131E+03  0.15294330000E+03 0.  0.
    8880022    1    1    2    0    0 -0.59628207047E+00  0.64481593038E+03 -0.43230846076E+03  0.79124597811E+03  0.15294330000E+03 0.  0.
<mgrwt>
<rscale>  0 0.66270626E+03</rscale>
<asrwt>0</asrwt>
<pdfrwt beam="1">  1        2 0.14654032E+00 0.66270626E+03</pdfrwt>
<pdfrwt beam="2">  1       -2 0.11597025E+00 0.66270626E+03</pdfrwt>
<totfact> 0.16037163E+01</totfact>
</mgrwt>
</event>
<event>
 4    1  0.2829790E-008  0.8918360E+03  0.7818608E-02  0.9435845E-01
          2   -1    0    0  501    0  0.00000000000E+00  0.00000000000E+00  0.25238084768E+04  0.25238084768E+04  0.25500000000E-02 0. -1.
         -2   -1    0    0    0  501 -0.00000000000E+00 -0.00000000000E+00 -0.19296239938E+04  0.19296239938E+04  0.25500000000E-02 0.  1.
    8880022    1    1    2    0    0  0.40865555957E+03  0.77780489888E+03  0.23338736282E+04  0.24984670485E+04  0.15294330000E+03 0.  0.
    8880022    1    1    2    0    0 -0.40865555957E+03 -0.77780489888E+03 -0.17396891451E+04  0.19549654221E+04  0.15294330000E+03 0.  0.
<mgrwt>
<rscale>  0 0.89183602E+03</rscale>
<asrwt>0</asrwt>
<pdfrwt beam="1">  1        2 0.38827823E+00 0.89183602E+03</pdfrwt>
<pdfrwt beam="2">  1       -2 0.29686523E+00 0.89183602E+03</pdfrwt>
<totfact> 0.11681394E-01</totfact>
</mgrwt>
</event>
<event>
 4    1  0.2202466E-008  0.9281428E+03  0.7818608E-02  0.9391070E-01
          2   -1    0    0  501    0  0.00000000000E+00  0.00000000000E+00  0.13078938055E+04  0.13078938055E+04  0.25500000000E-02 0. -1.
         -2   -1    0    0    0  501 -0.00000000000E+00 -0.00000000000E+00 -0.85217903780E+03  0.85217903780E+03  0.25500000000E-02 0.  1.
    8880022    1    1    2    0    0  0.79426032062E+03  0.45520091985E+03  0.74254294703E+03  0.11886206357E+04  0.15294330000E+03 0.  0.
    8880022    1    1    2    0    0 -0.79426032062E+03 -0.45520091985E+03 -0.28682817929E+03  0.97145220767E+03  0.15294330000E+03 0.  0.
<mgrwt>
<rscale>  0 0.92814276E+03</rscale>
<asrwt>0</asrwt>
<pdfrwt beam="1">  1        2 0.20121443E+00 0.92814276E+03</pdfrwt>
<pdfrwt beam="2">  1       -2 0.13110447E+00 0.92814276E+03</pdfrwt>
<totfact> 0.69526984E+00</totfact>
</mgrwt>
</event>
<event>
 4    1  0.2202466E-008  0.4074866E+03  0.7818608E-02  0.1041218E+00
         -2   -1    0    0    0  501 -0.00000000000E+00  0.00000000000E+00  0.55113160162E+03  0.55113160163E+03  0.25500000000E-02 0.  1.
          2   -1    0    0  501    0  0.00000000000E+00 -0.00000000000E+00 -0.32156444577E+04  0.32156444577E+04  0.25500000000E-02 0. -1.
    8880022    1    1    2    0    0  0.11559595070E+03 -0.35957088228E+03 -0.31252456334E+04  0.31516988380E+04  0.15294330000E+03 0.  0.
    8880022    1    1    2    0    0 -0.11559595070E+03  0.35957088228E+03  0.46073277728E+03  0.61507722139E+03  0.15294330000E+03 0.  0.
<mgrwt>
<rscale>  0 0.40748656E+03</rscale>
<asrwt>0</asrwt>
<pdfrwt beam="1">  1        2 0.49471452E+00 0.40748656E+03</pdfrwt>
<pdfrwt beam="2">  1       -2 0.84789479E-01 0.40748656E+03</pdfrwt>
<totfact> 0.18304508E+00</totfact>
</mgrwt>
</event>
<event>
 4    1  0.2202466E-008  0.1297384E+04  0.7818608E-02  0.9031642E-01
          2   -1    0    0  501    0  0.00000000000E+00  0.00000000000E+00  0.28638509254E+04  0.28638509254E+04  0.25500000000E-02 0. -1.
         -2   -1    0    0    0  501 -0.00000000000E+00 -0.00000000000E+00 -0.81043370150E+03  0.81043370150E+03  0.25500000000E-02 0.  1.
    8880022    1    1    2    0    0 -0.65481660253E+03  0.11095174211E+04  0.63686822281E+02  0.12989462479E+04  0.15294330000E+03 0.  0.
    8880022    1    1    2    0    0  0.65481660253E+03 -0.11095174211E+04  0.19897304016E+04  0.23753383790E+04  0.15294330000E+03 0.  0.
<mgrwt>
<rscale>  0 0.12973840E+04</rscale>
<asrwt>0</asrwt>
<pdfrwt beam="1">  1        2 0.44059245E+00 0.12973840E+04</pdfrwt>
<pdfrwt beam="2">  1       -2 0.12468211E+00 0.12973840E+04</pdfrwt>
<totfact> 0.99269295E-01</totfact>
</mgrwt>
</event>
<event>
 4    1  0.2202466E-008  0.5047813E+03  0.7818608E-02  0.1012538E+00
          2   -1    0    0  501    0  0.00000000000E+00  0.00000000000E+00  0.10113095532E+04  0.10113095532E+04  0.25500000000E-02 0. -1.
         -2   -1    0    0    0  501 -0.00000000000E+00 -0.00000000000E+00 -0.31936069271E+03  0.31936069272E+03  0.25500000000E-02 0.  1.
    8880022    1    1    2    0    0  0.29694350591E+03  0.37846677174E+03  0.65164172350E+03  0.82428219187E+03  0.15294330000E+03 0.  0.
    8880022    1    1    2    0    0 -0.29694350591E+03 -0.37846677174E+03  0.40307137037E+02  0.50638805409E+03  0.15294330000E+03 0.  0.
<mgrwt>
<rscale>  0 0.50478133E+03</rscale>
<asrwt>0</asrwt>
<pdfrwt beam="1">  1        2 0.15558608E+00 0.50478133E+03</pdfrwt>
<pdfrwt beam="2">  1       -2 0.49132415E-01 0.50478133E+03</pdfrwt>
<totfact> 0.10065476E+02</totfact>
</mgrwt>
</event>
<event>
 4    1  0.2202466E-008  0.1089534E+04  0.7818608E-02  0.9215453E-01
         -2   -1    0    0    0  501 -0.00000000000E+00  0.00000000000E+00  0.73005562819E+03  0.73005562819E+03  0.25500000000E-02 0.  1.
          2   -1    0    0  501    0  0.00000000000E+00 -0.00000000000E+00 -0.39369027449E+04  0.39369027449E+04  0.25500000000E-02 0. -1.
    8880022    1    1    2    0    0  0.96853425396E+03  0.47501007957E+03  0.18436260589E+03  0.11050223528E+04  0.15294330000E+03 0.  0.
    8880022    1    1    2    0    0 -0.96853425396E+03 -0.47501007957E+03 -0.33912097226E+04  0.35619360203E+04  0.15294330000E+03 0.  0.
<mgrwt>
<rscale>  0 0.10895342E+04</rscale>
<asrwt>0</asrwt>
<pdfrwt beam="1">  1        2 0.60567733E+00 0.10895342E+04</pdfrwt>
<pdfrwt beam="2">  1       -2 0.11231625E+00 0.10895342E+04</pdfrwt>
<totfact> 0.24723918E-01</totfact>
</mgrwt>
</event>
<event>
 4    1  0.2606946E-008  0.1453740E+04  0.7818608E-02  0.8915812E-01
          2   -1    0    0  501    0  0.00000000000E+00  0.00000000000E+00  0.24860193149E+04  0.24860193149E+04  0.25500000000E-02 0. -1.
         -2   -1    0    0    0  501 -0.00000000000E+00 -0.00000000000E+00 -0.16137187248E+04  0.16137187248E+04  0.25500000000E-02 0.  1.
    8880022    1    1    2    0    0  0.35430117854E+03  0.14015846387E+04  0.18462538156E+04  0.23498965146E+04  0.15294330000E+03 0.  0.
    8880022    1    1    2    0    0 -0.35430117854E+03 -0.14015846387E+04 -0.97395322553E+03  0.17498415252E+04  0.15294330000E+03 0.  0.
<mgrwt>
<rscale>  0 0.14537402E+04</rscale>
<asrwt>0</asrwt>
<pdfrwt beam="1">  1        2 0.38246451E+00 0.14537402E+04</pdfrwt>
<pdfrwt beam="2">  1       -2 0.24826442E+00 0.14537402E+04</pdfrwt>
<totfact> 0.22033373E-01</totfact>
</mgrwt>
</event>
<event>
 4    1  0.2202466E-008  0.1533859E+04  0.7818608E-02  0.8862244E-01
          2   -1    0    0  501    0  0.00000000000E+00  0.00000000000E+00  0.15423766691E+04  0.15423766691E+04  0.25500000000E-02 0. -1.
         -2   -1    0    0    0  501 -0.00000000000E+00 -0.00000000000E+00 -0.17445143123E+04  0.17445143123E+04  0.25500000000E-02 0.  1.
    8880022    1    1    2    0    0  0.32680947259E+03  0.14908140874E+04  0.48139021475E+03  0.16076253502E+04  0.15294330000E+03 0.  0.
    8880022    1    1    2    0    0 -0.32680947259E+03 -0.14908140874E+04 -0.68352785792E+03  0.16792656312E+04  0.15294330000E+03 0.  0.
<mgrwt>
<rscale>  0 0.15338588E+04</rscale>
<asrwt>0</asrwt>
<pdfrwt beam="1">  1        2 0.23728872E+00 0.15338588E+04</pdfrwt>
<pdfrwt beam="2">  1       -2 0.26838682E+00 0.15338588E+04</pdfrwt>
<totfact> 0.55802233E-01</totfact>
</mgrwt>
</event>
<event>
 4    1  0.7845863E-008  0.1765913E+04  0.7818608E-02  0.8724639E-01
          2   -1    0    0  501    0  0.00000000000E+00  0.00000000000E+00  0.35714805135E+04  0.35714805135E+04  0.25500000000E-02 0. -1.
         -2   -1    0    0    0  501 -0.00000000000E+00 -0.00000000000E+00 -0.32079199950E+04  0.32079199950E+04  0.25500000000E-02 0.  1.
    8880022    1    1    2    0    0 -0.11133681607E+04  0.13621560352E+04  0.30736004959E+04  0.35447805838E+04  0.15294330000E+03 0.  0.
    8880022    1    1    2    0    0  0.11133681607E+04 -0.13621560352E+04 -0.27100399774E+04  0.32346199247E+04  0.15294330000E+03 0.  0.
<mgrwt>
<rscale>  0 0.17659132E+04</rscale>
<asrwt>0</asrwt>
<pdfrwt beam="1">  1        2 0.54945854E+00 0.17659132E+04</pdfrwt>
<pdfrwt beam="2">  1       -2 0.49352615E+00 0.17659132E+04</pdfrwt>
<totfact> 0.11802323E-03</totfact>
</mgrwt>
</event>
<event>
 4    1  0.2202466E-008  0.1571850E+04  0.7818608E-02  0.8838031E-01
         -2   -1    0    0    0  501 -0.00000000000E+00  0.00000000000E+00  0.22786916091E+04  0.22786916091E+04  0.25500000000E-02 0.  1.
          2   -1    0    0  501    0  0.00000000000E+00 -0.00000000000E+00 -0.20835785555E+04  0.20835785555E+04  0.25500000000E-02 0. -1.
    8880022    1    1    2    0    0  0.15602407564E+04  0.11388173343E+03 -0.14129684341E+04  0.21135732105E+04  0.15294330000E+03 0.  0.
    8880022    1    1    2    0    0 -0.15602407564E+04 -0.11388173343E+03  0.16080814877E+04  0.22486969541E+04  0.15294330000E+03 0.  0.
<mgrwt>
<rscale>  0 0.15718498E+04</rscale>
<asrwt>0</asrwt>
<pdfrwt beam="1">  1        2 0.32055055E+00 0.15718498E+04</pdfrwt>
<pdfrwt beam="2">  1       -2 0.35056794E+00 0.15718498E+04</pdfrwt>
<totfact> 0.86167174E-02</totfact>
</mgrwt>
</event>
<event>
 4    1  0.2202466E-008  0.4541991E+03  0.7818608E-02  0.1026477E+00
          2   -1    0    0  501    0  0.00000000000E+00  0.00000000000E+00  0.21866228461E+04  0.21866228461E+04  0.25500000000E-02 0. -1.
         -2   -1    0    0    0  501 -0.00000000000E+00 -0.00000000000E+00 -0.40912448351E+03  0.40912448352E+03  0.25500000000E-02 0.  1.
    8880022    1    1    2    0    0 -0.28523552457E+02  0.42672186420E+03  0.20271833908E+04  0.20774429704E+04  0.15294330000E+03 0.  0.
    8880022    1    1    2    0    0  0.28523552457E+02 -0.42672186420E+03 -0.24968502821E+03  0.51830435919E+03  0.15294330000E+03 0.  0.
<mgrwt>
<rscale>  0 0.45419907E+03</rscale>
<asrwt>0</asrwt>
<pdfrwt beam="1">  1        2 0.33640352E+00 0.45419907E+03</pdfrwt>
<pdfrwt beam="2">  1       -2 0.62942228E-01 0.45419907E+03</pdfrwt>
<totfact> 0.13541310E+01</totfact>
</mgrwt>
</event>
<event>
 4    1  0.2202466E-008  0.1255847E+04  0.7818608E-02  0.9065331E-01
          2   -1    0    0  501    0  0.00000000000E+00  0.00000000000E+00  0.25054374128E+04  0.25054374128E+04  0.25500000000E-02 0. -1.
         -2   -1    0    0    0  501 -0.00000000000E+00 -0.00000000000E+00 -0.10380826145E+04  0.10380826145E+04  0.25500000000E-02 0.  1.
    8880022    1    1    2    0    0  0.12455370748E+04  0.48951636869E+02 -0.37788440651E+03  0.13114675540E+04  0.15294330000E+03 0.  0.
    8880022    1    1    2    0    0 -0.12455370748E+04 -0.48951636869E+02  0.18452392048E+04  0.22320524733E+04  0.15294330000E+03 0.  0.
<mgrwt>
<rscale>  0 0.12558465E+04</rscale>
<asrwt>0</asrwt>
<pdfrwt beam="1">  1        2 0.38545191E+00 0.12558465E+04</pdfrwt>
<pdfrwt beam="2">  1       -2 0.15970502E+00 0.12558465E+04</pdfrwt>
<totfact> 0.84875909E-01</totfact>
</mgrwt>
</event>
<event>
 4    1  0.2202466E-008  0.3729289E+03  0.7818608E-02  0.1053579E+00
          2   -1    0    0  501    0  0.00000000000E+00  0.00000000000E+00  0.17499111901E+04  0.17499111901E+04  0.25500000000E-02 0. -1.
         -2   -1    0    0    0  501 -0.00000000000E+00 -0.00000000000E+00 -0.81368178426E+03  0.81368178427E+03  0.25500000000E-02 0.  1.
    8880022    1    1    2    0    0  0.28209029819E+03  0.19002471213E+03 -0.74947418096E+03  0.83713053253E+03  0.15294330000E+03 0.  0.
    8880022    1    1    2    0    0 -0.28209029819E+03 -0.19002471213E+03  0.16857035868E+04  0.17264624419E+04  0.15294330000E+03 0.  0.
<mgrwt>
<rscale>  0 0.37292892E+03</rscale>
<asrwt>0</asrwt>
<pdfrwt beam="1">  1        2 0.26921710E+00 0.37292892E+03</pdfrwt>
<pdfrwt beam="2">  1       -2 0.12518181E+00 0.37292892E+03</pdfrwt>
<totfact> 0.49328338E+00</totfact>
</mgrwt>
</event>
<event>
 4    1  0.2202466E-008  0.1073793E+04  0.7818608E-02  0.9231119E-01
         -2   -1    0    0    0  501 -0.00000000000E+00  0.00000000000E+00  0.15741011013E+04  0.15741011013E+04  0.25500000000E-02 0.  1.
          2   -1    0    0  501    0  0.00000000000E+00 -0.00000000000E+00 -0.19632185678E+04  0.19632185678E+04  0.25500000000E-02 0. -1.
    8880022    1    1    2    0    0  0.98665549282E+03  0.39515776980E+03  0.12057997131E+04  0.16146155350E+04  0.15294330000E+03 0.  0.
    8880022    1    1    2    0    0 -0.98665549282E+03 -0.39515776980E+03 -0.15949171796E+04  0.19227041341E+04  0.15294330000E+03 0.  0.
<mgrwt>
<rscale>  0 0.10737925E+04</rscale>
<asrwt>0</asrwt>
<pdfrwt beam="1">  1        2 0.30203363E+00 0.10737925E+04</pdfrwt>
<pdfrwt beam="2">  1       -2 0.24216940E+00 0.10737925E+04</pdfrwt>
<totfact> 0.49804768E-01</totfact>
</mgrwt>
</event>
<event>
 4    1  0.2202466E-008  0.8722088E+03  0.7818608E-02  0.9461004E-01
         -2   -1    0    0    0  501 -0.00000000000E+00  0.00000000000E+00  0.26970033221E+03  0.26970033222E+03  0.25500000000E-02 0.  1.
          2   -1    0    0  501    0  0.00000000000E+00 -0.00000000000E+00 -0.29246303617E+04  0.29246303617E+04  0.25500000000E-02 0. -1.
    8880022    1    1    2    0    0 -0.36315663205E+03 -0.77812197713E+03 -0.10264064941E+04  0.13469441320E+04  0.15294330000E+03 0.  0.
    8880022    1    1    2    0    0  0.36315663205E+03  0.77812197713E+03 -0.16285235354E+04  0.18473865619E+04  0.15294330000E+03 0.  0.
<mgrwt>
<rscale>  0 0.87220881E+03</rscale>
<asrwt>0</asrwt>
<pdfrwt beam="1">  1        2 0.44994311E+00 0.87220881E+03</pdfrwt>
<pdfrwt beam="2">  1       -2 0.41492361E-01 0.87220881E+03</pdfrwt>
<totfact> 0.11097218E+01</totfact>
</mgrwt>
</event>
<event>
 4    1  0.2202466E-008  0.5571740E+03  0.7818608E-02  0.9998469E-01
          2   -1    0    0  501    0  0.00000000000E+00  0.00000000000E+00  0.34921730845E+04  0.34921730845E+04  0.25500000000E-02 0. -1.
         -2   -1    0    0    0  501 -0.00000000000E+00 -0.00000000000E+00 -0.95228715423E+02  0.95228715457E+02  0.25500000000E-02 0.  1.
    8880022    1    1    2    0    0 -0.41934180616E+03  0.33347219017E+03  0.12359477624E+04  0.13557321919E+04  0.15294330000E+03 0.  0.
    8880022    1    1    2    0    0  0.41934180616E+03 -0.33347219017E+03  0.21609966067E+04  0.22316696080E+04  0.15294330000E+03 0.  0.
<mgrwt>
<rscale>  0 0.55717403E+03</rscale>
<asrwt>0</asrwt>
<pdfrwt beam="1">  1        2 0.53725737E+00 0.55717403E+03</pdfrwt>
<pdfrwt beam="2">  1       -2 0.14650572E-01 0.55717403E+03</pdfrwt>
<totfact> 0.33502404E+01</totfact>
</mgrwt>
</event>
<event>
 4    1  0.2202466E-008  0.6937004E+03  0.7818608E-02  0.9728066E-01
         -2   -1    0    0    0  501 -0.00000000000E+00  0.00000000000E+00  0.63738304017E+03  0.63738304018E+03  0.25500000000E-02 0.  1.
          2   -1    0    0  501    0  0.00000000000E+00 -0.00000000000E+00 -0.11136977965E+04  0.11136977965E+04  0.25500000000E-02 0. -1.
    8880022    1    1    2    0    0  0.22497666907E+03  0.63813328866E+03  0.25873304014E+03  0.74038033118E+03  0.15294330000E+03 0.  0.
    8880022    1    1    2    0    0 -0.22497666907E+03 -0.63813328866E+03 -0.73504779648E+03  0.10107005055E+04  0.15294330000E+03 0.  0.
<mgrwt>
<rscale>  0 0.69370040E+03</rscale>
<asrwt>0</asrwt>
<pdfrwt beam="1">  1        2 0.17133812E+00 0.69370040E+03</pdfrwt>
<pdfrwt beam="2">  1       -2 0.98058929E-01 0.69370040E+03</pdfrwt>
<totfact> 0.18939640E+01</totfact>
</mgrwt>
</event>
<event>
 4    1  0.2202466E-008  0.7905652E+03  0.7818608E-02  0.9573775E-01
          2   -1    0    0  501    0  0.00000000000E+00  0.00000000000E+00  0.12988020309E+04  0.12988020309E+04  0.25500000000E-02 0. -1.
         -2   -1    0    0    0  501 -0.00000000000E+00 -0.00000000000E+00 -0.21283251727E+04  0.21283251727E+04  0.25500000000E-02 0.  1.
    8880022    1    1    2    0    0 -0.46372503902E+01  0.77561600193E+03  0.10926906122E+04  0.13486905181E+04  0.15294330000E+03 0.  0.
    8880022    1    1    2    0    0  0.46372503902E+01 -0.77561600193E+03 -0.19222137540E+04  0.20784366855E+04  0.15294330000E+03 0.  0.
<mgrwt>
<rscale>  0 0.79056520E+03</rscale>
<asrwt>0</asrwt>
<pdfrwt beam="1">  1        2 0.19981570E+00 0.79056520E+03</pdfrwt>
<pdfrwt beam="2">  1       -2 0.32743464E+00 0.79056520E+03</pdfrwt>
<totfact> 0.37397430E-01</totfact>
</mgrwt>
</event>
<event>
 4    1  0.2202466E-008  0.1132346E+04  0.7818608E-02  0.9174227E-01
         -2   -1    0    0    0  501 -0.00000000000E+00  0.00000000000E+00  0.90187203890E+03  0.90187203891E+03  0.25500000000E-02 0.  1.
          2   -1    0    0  501    0  0.00000000000E+00 -0.00000000000E+00 -0.26611037433E+04  0.26611037433E+04  0.25500000000E-02 0. -1.
    8880022    1    1    2    0    0 -0.62803057920E+03  0.92972709820E+03 -0.20953971201E+04  0.23817841274E+04  0.15294330000E+03 0.  0.
    8880022    1    1    2    0    0  0.62803057920E+03 -0.92972709820E+03  0.33616541575E+03  0.11811916548E+04  0.15294330000E+03 0.  0.
<mgrwt>
<rscale>  0 0.11323456E+04</rscale>
<asrwt>0</asrwt>
<pdfrwt beam="1">  1        2 0.40940057E+00 0.11323456E+04</pdfrwt>
<pdfrwt beam="2">  1       -2 0.13874955E+00 0.11323456E+04</pdfrwt>
<totfact> 0.10190749E+00</totfact>
</mgrwt>
</event>
<event>
 4    1  0.2202466E-008  0.1427885E+04  0.7818608E-02  0.8933878E-01
         -2   -1    0    0    0  501 -0.00000000000E+00  0.00000000000E+00  0.26752998801E+04  0.26752998801E+04  0.25500000000E-02 0.  1.
          2   -1    0    0  501    0  0.00000000000E+00 -0.00000000000E+00 -0.10368719440E+04  0.10368719441E+04  0.25500000000E-02 0. -1.
    8880022    1    1    2    0    0  0.61085057118E+03  0.12815319529E+04  0.17746888822E+04  0.22778004409E+04  0.15294330000E+03 0.  0.
    8880022    1    1    2    0    0 -0.61085057118E+03 -0.12815319529E+04 -0.13626094618E+03  0.14343713833E+04  0.15294330000E+03 0.  0.
<mgrwt>
<rscale>  0 0.14278845E+04</rscale>
<asrwt>0</asrwt>
<pdfrwt beam="1">  1        2 0.15951876E+00 0.14278845E+04</pdfrwt>
<pdfrwt beam="2">  1       -2 0.41158460E+00 0.14278845E+04</pdfrwt>
<totfact> 0.14225761E-01</totfact>
</mgrwt>
</event>
<event>
 4    1  0.2202466E-008  0.1239121E+04  0.7818608E-02  0.9079286E-01
          2   -1    0    0  501    0  0.00000000000E+00  0.00000000000E+00  0.29604280314E+04  0.29604280314E+04  0.25500000000E-02 0. -1.
         -2   -1    0    0    0  501 -0.00000000000E+00 -0.00000000000E+00 -0.97450068185E+03  0.97450068185E+03  0.25500000000E-02 0.  1.
    8880022    1    1    2    0    0 -0.36527071498E+03  0.11741411179E+04  0.23386002825E+04  0.26465964926E+04  0.15294330000E+03 0.  0.
    8880022    1    1    2    0    0  0.36527071498E+03 -0.11741411179E+04 -0.35267293301E+03  0.12883322206E+04  0.15294330000E+03 0.  0.
<mgrwt>
<rscale>  0 0.12391213E+04</rscale>
<asrwt>0</asrwt>
<pdfrwt beam="1">  1        2 0.45545046E+00 0.12391213E+04</pdfrwt>
<pdfrwt beam="2">  1       -2 0.14992318E+00 0.12391213E+04</pdfrwt>
<totfact> 0.54128021E-01</totfact>
</mgrwt>
</event>
<event>
 4    1  0.2202466E-008  0.7579311E+03  0.7818608E-02  0.9622989E-01
         -2   -1    0    0    0  501 -0.00000000000E+00  0.00000000000E+00  0.30838507962E+03  0.30838507963E+03  0.25500000000E-02 0.  1.
          2   -1    0    0  501    0  0.00000000000E+00 -0.00000000000E+00 -0.23246880066E+04  0.23246880066E+04  0.25500000000E-02 0. -1.
    8880022    1    1    2    0    0  0.16468333656E+03 -0.72384209138E+03 -0.42131232066E+03  0.86715840487E+03  0.15294330000E+03 0.  0.
    8880022    1    1    2    0    0 -0.16468333656E+03  0.72384209138E+03 -0.15949906063E+04  0.17659146814E+04  0.15294330000E+03 0.  0.
<mgrwt>
<rscale>  0 0.75793115E+03</rscale>
<asrwt>0</asrwt>
<pdfrwt beam="1">  1        2 0.35764430E+00 0.75793115E+03</pdfrwt>
<pdfrwt beam="2">  1       -2 0.47443860E-01 0.75793115E+03</pdfrwt>
<totfact> 0.19228033E+01</totfact>
</mgrwt>
</event>
<event>
 4    1  0.2202466E-008  0.5782809E+03  0.7818608E-02  0.9951520E-01
         -2   -1    0    0    0  501 -0.00000000000E+00  0.00000000000E+00  0.27035051182E+03  0.27035051183E+03  0.25500000000E-02 0.  1.
          2   -1    0    0  501    0  0.00000000000E+00 -0.00000000000E+00 -0.17145000133E+04  0.17145000133E+04  0.25500000000E-02 0. -1.
    8880022    1    1    2    0    0  0.46026273329E+03  0.31492122073E+03 -0.19830476993E+03  0.61133754483E+03  0.15294330000E+03 0.  0.
    8880022    1    1    2    0    0 -0.46026273329E+03 -0.31492122073E+03 -0.12458447315E+04  0.13735129803E+04  0.15294330000E+03 0.  0.
<mgrwt>
<rscale>  0 0.57828091E+03</rscale>
<asrwt>0</asrwt>
<pdfrwt beam="1">  1        2 0.26376923E+00 0.57828091E+03</pdfrwt>
<pdfrwt beam="2">  1       -2 0.41592387E-01 0.57828091E+03</pdfrwt>
<totfact> 0.55193321E+01</totfact>
</mgrwt>
</event>
<event>
 4    1  0.2202466E-008  0.4061613E+03  0.7818608E-02  0.1041667E+00
         -2   -1    0    0    0  501 -0.00000000000E+00  0.00000000000E+00  0.69110519993E+03  0.69110519994E+03  0.25500000000E-02 0.  1.
          2   -1    0    0  501    0  0.00000000000E+00 -0.00000000000E+00 -0.52364268576E+03  0.52364268576E+03  0.25500000000E-02 0. -1.
    8880022    1    1    2    0    0 -0.86603043273E+02 -0.36616291085E+03 -0.36430913098E+03  0.54560806474E+03  0.15294330000E+03 0.  0.
    8880022    1    1    2    0    0  0.86603043273E+02  0.36616291085E+03  0.53177164515E+03  0.66913982096E+03  0.15294330000E+03 0.  0.
<mgrwt>
<rscale>  0 0.40616132E+03</rscale>
<asrwt>0</asrwt>
<pdfrwt beam="1">  1        2 0.80560413E-01 0.40616132E+03</pdfrwt>
<pdfrwt beam="2">  1       -2 0.10632388E+00 0.40616132E+03</pdfrwt>
<totfact> 0.43498335E+01</totfact>
</mgrwt>
</event>
<event>
 4    1  0.2202466E-008  0.1100840E+04  0.7818608E-02  0.9204373E-01
         -2   -1    0    0    0  501 -0.00000000000E+00  0.00000000000E+00  0.62324786591E+03  0.62324786591E+03  0.25500000000E-02 0.  1.
          2   -1    0    0  501    0  0.00000000000E+00 -0.00000000000E+00 -0.20380912294E+04  0.20380912294E+04  0.25500000000E-02 0. -1.
    8880022    1    1    2    0    0 -0.82240589010E+03  0.71561613617E+03 -0.99271004511E+03  0.14823369351E+04  0.15294330000E+03 0.  0.
    8880022    1    1    2    0    0  0.82240589010E+03 -0.71561613617E+03 -0.42213331843E+03  0.11790021603E+04  0.15294330000E+03 0.  0.
<mgrwt>
<rscale>  0 0.11008404E+04</rscale>
<asrwt>0</asrwt>
<pdfrwt beam="1">  1        2 0.31355249E+00 0.11008404E+04</pdfrwt>
<pdfrwt beam="2">  1       -2 0.95884288E-01 0.11008404E+04</pdfrwt>
<totfact> 0.57440216E+00</totfact>
</mgrwt>
</event>
<event>
 4    1  0.2202466E-008  0.4792765E+03  0.7818608E-02  0.1019334E+00
         -2   -1    0    0    0  501 -0.00000000000E+00  0.00000000000E+00  0.14594025153E+03  0.14594025155E+03  0.25500000000E-02 0.  1.
          2   -1    0    0  501    0  0.00000000000E+00 -0.00000000000E+00 -0.20410939299E+04  0.20410939299E+04  0.25500000000E-02 0. -1.
    8880022    1    1    2    0    0  0.26607321077E+03  0.36812952662E+03 -0.14707060079E+04  0.15468296986E+04  0.15294330000E+03 0.  0.
    8880022    1    1    2    0    0 -0.26607321077E+03 -0.36812952662E+03 -0.42444767050E+03  0.64020448285E+03  0.15294330000E+03 0.  0.
<mgrwt>
<rscale>  0 0.47927649E+03</rscale>
<asrwt>0</asrwt>
<pdfrwt beam="1">  1        2 0.31401443E+00 0.47927649E+03</pdfrwt>
<pdfrwt beam="2">  1       -2 0.22452348E-01 0.47927649E+03</pdfrwt>
<totfact> 0.11714759E+02</totfact>
</mgrwt>
</event>
<event>
 4    1  0.2202466E-008  0.1203937E+04  0.7818608E-02  0.9109417E-01
         -2   -1    0    0    0  501 -0.00000000000E+00  0.00000000000E+00  0.14122378040E+04  0.14122378040E+04  0.25500000000E-02 0.  1.
          2   -1    0    0  501    0  0.00000000000E+00 -0.00000000000E+00 -0.13008022290E+04  0.13008022290E+04  0.25500000000E-02 0. -1.
    8880022    1    1    2    0    0  0.30382169319E+02 -0.11937963406E+04 -0.56736537732E+03  0.13309274599E+04  0.15294330000E+03 0.  0.
    8880022    1    1    2    0    0 -0.30382169319E+02  0.11937963406E+04  0.67880095226E+03  0.13821125731E+04  0.15294330000E+03 0.  0.
<mgrwt>
<rscale>  0 0.12039371E+04</rscale>
<asrwt>0</asrwt>
<pdfrwt beam="1">  1        2 0.20012342E+00 0.12039371E+04</pdfrwt>
<pdfrwt beam="2">  1       -2 0.21726735E+00 0.12039371E+04</pdfrwt>
<totfact> 0.16483556E+00</totfact>
</mgrwt>
</event>
<event>
 4    1  0.2202466E-008  0.9841356E+03  0.7818608E-02  0.9326118E-01
          2   -1    0    0  501    0  0.00000000000E+00  0.00000000000E+00  0.32569884031E+04  0.32569884031E+04  0.25500000000E-02 0. -1.
         -2   -1    0    0    0  501 -0.00000000000E+00 -0.00000000000E+00 -0.54184175839E+03  0.54184175839E+03  0.25500000000E-02 0.  1.
    8880022    1    1    2    0    0  0.29171621830E+03  0.92737962236E+03  0.26334246984E+04  0.28113072779E+04  0.15294330000E+03 0.  0.
    8880022    1    1    2    0    0 -0.29171621830E+03 -0.92737962236E+03  0.81721946323E+02  0.98752288353E+03  0.15294330000E+03 0.  0.
<mgrwt>
<rscale>  0 0.98413565E+03</rscale>
<asrwt>0</asrwt>
<pdfrwt beam="1">  1        2 0.50107515E+00 0.98413565E+03</pdfrwt>
<pdfrwt beam="2">  1       -2 0.83360269E-01 0.98413565E+03</pdfrwt>
<totfact> 0.15439230E+00</totfact>
</mgrwt>
</event>
<event>
 4    1  0.3265190E-008  0.1118218E+04  0.7818608E-02  0.9187616E-01
         -2   -1    0    0    0  501 -0.00000000000E+00  0.00000000000E+00  0.10683901454E+04  0.10683901454E+04  0.25500000000E-02 0.  1.
          2   -1    0    0  501    0  0.00000000000E+00 -0.00000000000E+00 -0.29503400150E+04  0.29503400150E+04  0.25500000000E-02 0. -1.
    8880022    1    1    2    0    0  0.94254189696E+03 -0.58192233738E+03 -0.25017104245E+04  0.27402491739E+04  0.15294330000E+03 0.  0.
    8880022    1    1    2    0    0 -0.94254189696E+03  0.58192233738E+03  0.61976055493E+03  0.12784809865E+04  0.15294330000E+03 0.  0.
<mgrwt>
<rscale>  0 0.11182175E+04</rscale>
<asrwt>0</asrwt>
<pdfrwt beam="1">  1        2 0.45389846E+00 0.11182175E+04</pdfrwt>
<pdfrwt beam="2">  1       -2 0.16436772E+00 0.11182175E+04</pdfrwt>
<totfact> 0.43555184E-01</totfact>
</mgrwt>
</event>
<event>
 4    1  0.2202466E-008  0.5264393E+03  0.7818608E-02  0.1007099E+00
         -2   -1    0    0    0  501 -0.00000000000E+00  0.00000000000E+00  0.27470811280E+03  0.27470811281E+03  0.25500000000E-02 0.  1.
          2   -1    0    0  501    0  0.00000000000E+00 -0.00000000000E+00 -0.20761083050E+04  0.20761083050E+04  0.25500000000E-02 0. -1.
    8880022    1    1    2    0    0 -0.49046163171E+03  0.11486534028E+03 -0.17434509574E+04  0.18211972854E+04  0.15294330000E+03 0.  0.
    8880022    1    1    2    0    0  0.49046163171E+03 -0.11486534028E+03 -0.57949234829E+02  0.52961913241E+03  0.15294330000E+03 0.  0.
<mgrwt>
<rscale>  0 0.52643928E+03</rscale>
<asrwt>0</asrwt>
<pdfrwt beam="1">  1        2 0.31940127E+00 0.52643928E+03</pdfrwt>
<pdfrwt beam="2">  1       -2 0.42262788E-01 0.52643928E+03</pdfrwt>
<totfact> 0.34413372E+01</totfact>
</mgrwt>
</event>
<event>
 4    1  0.2202466E-008  0.3663581E+03  0.7818608E-02  0.1056094E+00
          2   -1    0    0  501    0  0.00000000000E+00  0.00000000000E+00  0.26824608276E+04  0.26824608276E+04  0.25500000000E-02 0. -1.
         -2   -1    0    0    0  501 -0.00000000000E+00 -0.00000000000E+00 -0.17094406306E+03  0.17094406308E+03  0.25500000000E-02 0.  1.
    8880022    1    1    2    0    0  0.16142124993E+03  0.29115251064E+03  0.55886345833E+02  0.37059619675E+03  0.15294330000E+03 0.  0.
    8880022    1    1    2    0    0 -0.16142124993E+03 -0.29115251064E+03  0.24556304187E+04  0.24828086940E+04  0.15294330000E+03 0. -1.
<mgrwt>
<rscale>  0 0.36635810E+03</rscale>
<asrwt>0</asrwt>
<pdfrwt beam="1">  1        2 0.41268625E+00 0.36635810E+03</pdfrwt>
<pdfrwt beam="2">  1       -2 0.26299089E-01 0.36635810E+03</pdfrwt>
<totfact> 0.40269791E+01</totfact>
</mgrwt>
</event>
<event>
 4    1  0.2202466E-008  0.3291512E+03  0.7818608E-02  0.1071513E+00
         -2   -1    0    0    0  501 -0.00000000000E+00  0.00000000000E+00  0.87239409023E+03  0.87239409023E+03  0.25500000000E-02 0.  1.
          2   -1    0    0  501    0  0.00000000000E+00 -0.00000000000E+00 -0.67311725919E+03  0.67311725920E+03  0.25500000000E-02 0. -1.
    8880022    1    1    2    0    0 -0.10191967916E+03 -0.27305907801E+03 -0.59820050166E+03  0.68277695794E+03  0.15294330000E+03 0.  0.
    8880022    1    1    2    0    0  0.10191967916E+03  0.27305907801E+03  0.79747733270E+03  0.86273439149E+03  0.15294330000E+03 0.  0.
<mgrwt>
<rscale>  0 0.32915123E+03</rscale>
<asrwt>0</asrwt>
<pdfrwt beam="1">  1        2 0.10355650E+00 0.32915123E+03</pdfrwt>
<pdfrwt beam="2">  1       -2 0.13421448E+00 0.32915123E+03</pdfrwt>
<totfact> 0.18545125E+01</totfact>
</mgrwt>
</event>
<event>
 4    1  0.2202466E-008  0.9244990E+03  0.7818608E-02  0.9395464E-01
         -2   -1    0    0    0  501 -0.00000000000E+00  0.00000000000E+00  0.71055065107E+03  0.71055065107E+03  0.25500000000E-02 0.  1.
          2   -1    0    0  501    0  0.00000000000E+00 -0.00000000000E+00 -0.21941724724E+04  0.21941724724E+04  0.25500000000E-02 0. -1.
    8880022    1    1    2    0    0 -0.51097939905E+03 -0.75512042551E+03  0.23439842106E+03  0.95375105562E+03  0.15294330000E+03 0.  0.
    8880022    1    1    2    0    0  0.51097939905E+03  0.75512042551E+03 -0.17180202424E+04  0.19509720679E+04  0.15294330000E+03 0.  0.
<mgrwt>
<rscale>  0 0.92449903E+03</rscale>
<asrwt>0</asrwt>
<pdfrwt beam="1">  1        2 0.33756499E+00 0.92449903E+03</pdfrwt>
<pdfrwt beam="2">  1       -2 0.10931549E+00 0.92449903E+03</pdfrwt>
<totfact> 0.35156179E+00</totfact>
</mgrwt>
</event>
<event>
 4    1  0.2202466E-008  0.6258010E+03  0.7818608E-02  0.9853277E-01
          2   -1    0    0  501    0  0.00000000000E+00  0.00000000000E+00  0.44290971198E+04  0.44290971198E+04  0.25500000000E-02 0. -1.
         -2   -1    0    0    0  501 -0.00000000000E+00 -0.00000000000E+00 -0.29947157038E+03  0.29947157039E+03  0.25500000000E-02 0.  1.
    8880022    1    1    2    0    0 -0.16501277968E+03 -0.58395718335E+03  0.40496037871E+04  0.40976722289E+04  0.15294330000E+03 0.  0.
    8880022    1    1    2    0    0  0.16501277968E+03  0.58395718335E+03  0.80021762277E+02  0.63089646132E+03  0.15294330000E+03 0.  0.
<mgrwt>
<rscale>  0 0.62580098E+03</rscale>
<asrwt>0</asrwt>
<pdfrwt beam="1">  1        2 0.68139954E+00 0.62580098E+03</pdfrwt>
<pdfrwt beam="2">  1       -2 0.46072550E-01 0.62580098E+03</pdfrwt>
<totfact> 0.75877004E-01</totfact>
</mgrwt>
</event>
<event>
 4    1  0.2456245E-008  0.1496924E+04  0.7818608E-02  0.8886501E-01
         -2   -1    0    0    0  501 -0.00000000000E+00  0.00000000000E+00  0.19320452350E+04  0.19320452350E+04  0.25500000000E-02 0.  1.
          2   -1    0    0  501    0  0.00000000000E+00 -0.00000000000E+00 -0.17963813529E+04  0.17963813529E+04  0.25500000000E-02 0. -1.
    8880022    1    1    2    0    0 -0.13037185753E+04  0.71951878010E+03  0.11775794348E+04  0.19045929688E+04  0.15294330000E+03 0.  0.
    8880022    1    1    2    0    0  0.13037185753E+04 -0.71951878010E+03 -0.10419155527E+04  0.18238336192E+04  0.15294330000E+03 0.  0.
<mgrwt>
<rscale>  0 0.14969239E+04</rscale>
<asrwt>0</asrwt>
<pdfrwt beam="1">  1        2 0.27636636E+00 0.14969239E+04</pdfrwt>
<pdfrwt beam="2">  1       -2 0.29723773E+00 0.14969239E+04</pdfrwt>
<totfact> 0.26899820E-01</totfact>
</mgrwt>
</event>
<event>
 4    1  0.2202466E-008  0.5986996E+03  0.7818608E-02  0.9908108E-01
         -2   -1    0    0    0  501 -0.00000000000E+00  0.00000000000E+00  0.33725407404E+03  0.33725407405E+03  0.25500000000E-02 0.  1.
          2   -1    0    0  501    0  0.00000000000E+00 -0.00000000000E+00 -0.18772444481E+04  0.18772444481E+04  0.25500000000E-02 0. -1.
    8880022    1    1    2    0    0  0.33074364766E+03  0.47503491341E+03 -0.40689252408E+02  0.60008065933E+03  0.15294330000E+03 0.  0.
    8880022    1    1    2    0    0 -0.33074364766E+03 -0.47503491341E+03 -0.14993011217E+04  0.16144178628E+04  0.15294330000E+03 0.  0.
<mgrwt>
<rscale>  0 0.59869958E+03</rscale>
<asrwt>0</asrwt>
<pdfrwt beam="1">  1        2 0.28880683E+00 0.59869958E+03</pdfrwt>
<pdfrwt beam="2">  1       -2 0.51885243E-01 0.59869958E+03</pdfrwt>
<totfact> 0.28871856E+01</totfact>
</mgrwt>
</event>
<event>
 4    1  0.2202466E-008  0.2968680E+03  0.7818608E-02  0.1086817E+00
         -2   -1    0    0    0  501 -0.00000000000E+00  0.00000000000E+00  0.10358021930E+04  0.10358021930E+04  0.25500000000E-02 0.  1.
          2   -1    0    0  501    0  0.00000000000E+00 -0.00000000000E+00 -0.15144889830E+04  0.15144889830E+04  0.25500000000E-02 0. -1.
    8880022    1    1    2    0    0  0.25121682775E+03 -0.40361663492E+02 -0.14781522413E+04  0.15076686174E+04  0.15294330000E+03 0.  0.
    8880022    1    1    2    0    0 -0.25121682775E+03  0.40361663492E+02  0.99946545128E+03  0.10426225586E+04  0.15294330000E+03 0.  0.
<mgrwt>
<rscale>  0 0.29686800E+03</rscale>
<asrwt>0</asrwt>
<pdfrwt beam="1">  1        2 0.23299831E+00 0.29686800E+03</pdfrwt>
<pdfrwt beam="2">  1       -2 0.15935418E+00 0.29686800E+03</pdfrwt>
<totfact> 0.36566318E+00</totfact>
</mgrwt>
</event>
<event>
 4    1  0.2202466E-008  0.3540039E+03  0.7818608E-02  0.1060984E+00
         -2   -1    0    0    0  501 -0.00000000000E+00  0.00000000000E+00  0.57889562369E+03  0.57889562370E+03  0.25500000000E-02 0.  1.
          2   -1    0    0  501    0  0.00000000000E+00 -0.00000000000E+00 -0.10539926933E+04  0.10539926933E+04  0.25500000000E-02 0. -1.
    8880022    1    1    2    0    0  0.20962174205E+03  0.24080253217E+03  0.49023734549E+03  0.60469119571E+03  0.15294330000E+03 0.  1.
    8880022    1    1    2    0    0 -0.20962174205E+03 -0.24080253217E+03 -0.96533441507E+03  0.10281971213E+04  0.15294330000E+03 0.  0.
<mgrwt>
<rscale>  0 0.35400394E+03</rscale>
<asrwt>0</asrwt>
<pdfrwt beam="1">  1        2 0.16215272E+00 0.35400394E+03</pdfrwt>
<pdfrwt beam="2">  1       -2 0.89060865E-01 0.35400394E+03</pdfrwt>
<totfact> 0.27141902E+01</totfact>
</mgrwt>
</event>
<event>
 4    1  0.2202466E-008  0.1012685E+04  0.7818608E-02  0.9294740E-01
         -2   -1    0    0    0  501 -0.00000000000E+00  0.00000000000E+00  0.44409233240E+03  0.44409233241E+03  0.25500000000E-02 0.  1.
          2   -1    0    0  501    0  0.00000000000E+00 -0.00000000000E+00 -0.47386790963E+04  0.47386790963E+04  0.25500000000E-02 0. -1.
    8880022    1    1    2    0    0  0.71035941920E+03  0.70535779306E+03 -0.29182653343E+03  0.10538949185E+04  0.15294330000E+03 0.  0.
    8880022    1    1    2    0    0 -0.71035941920E+03 -0.70535779306E+03 -0.40027602305E+04  0.41288765102E+04  0.15294330000E+03 0.  0.
<mgrwt>
<rscale>  0 0.10126854E+04</rscale>
<asrwt>0</asrwt>
<pdfrwt beam="1">  1        2 0.72902752E+00 0.10126854E+04</pdfrwt>
<pdfrwt beam="2">  1       -2 0.68321901E-01 0.10126854E+04</pdfrwt>
<totfact> 0.14812678E-01</totfact>
</mgrwt>
</event>
<event>
 4    1  0.2202466E-008  0.1075459E+04  0.7818608E-02  0.9229447E-01
          2   -1    0    0  501    0  0.00000000000E+00  0.00000000000E+00  0.14702287404E+04  0.14702287404E+04  0.25500000000E-02 0. -1.
         -2   -1    0    0    0  501 -0.00000000000E+00 -0.00000000000E+00 -0.16130290810E+04  0.16130290810E+04  0.25500000000E-02 0.  1.
    8880022    1    1    2    0    0 -0.29119879968E+03 -0.10239253008E+04  0.10320136016E+04  0.14905245686E+04  0.15294330000E+03 0.  0.
    8880022    1    1    2    0    0  0.29119879968E+03  0.10239253008E+04 -0.11748139423E+04  0.15927332528E+04  0.15294330000E+03 0.  0.
<mgrwt>
<rscale>  0 0.10754587E+04</rscale>
<asrwt>0</asrwt>
<pdfrwt beam="1">  1        2 0.22618904E+00 0.10754587E+04</pdfrwt>
<pdfrwt beam="2">  1       -2 0.24815832E+00 0.10754587E+04</pdfrwt>
<totfact> 0.85934101E-01</totfact>
</mgrwt>
</event>
<event>
 4    1  0.2202466E-008  0.1298684E+04  0.7818608E-02  0.9030609E-01
          2   -1    0    0  501    0  0.00000000000E+00  0.00000000000E+00  0.20448294286E+04  0.20448294286E+04  0.25500000000E-02 0. -1.
         -2   -1    0    0    0  501 -0.00000000000E+00 -0.00000000000E+00 -0.90327299659E+03  0.90327299660E+03  0.25500000000E-02 0.  1.
    8880022    1    1    2    0    0  0.12314710410E+04 -0.38297234866E+03  0.13631171535E+03  0.13058182421E+04  0.15294330000E+03 0.  0.
    8880022    1    1    2    0    0 -0.12314710410E+04  0.38297234866E+03  0.10052447167E+04  0.16422841831E+04  0.15294330000E+03 0.  0.
<mgrwt>
<rscale>  0 0.12986841E+04</rscale>
<asrwt>0</asrwt>
<pdfrwt beam="1">  1        2 0.31458914E+00 0.12986841E+04</pdfrwt>
<pdfrwt beam="2">  1       -2 0.13896508E+00 0.12986841E+04</pdfrwt>
<totfact> 0.22272846E+00</totfact>
</mgrwt>
</event>
<event>
 4    1  0.2202466E-008  0.3919986E+03  0.7818608E-02  0.1046586E+00
         -2   -1    0    0    0  501 -0.00000000000E+00  0.00000000000E+00  0.92436905501E+03  0.92436905501E+03  0.25500000000E-02 0.  1.
          2   -1    0    0  501    0  0.00000000000E+00 -0.00000000000E+00 -0.78845335698E+03  0.78845335698E+03  0.25500000000E-02 0. -1.
    8880022    1    1    2    0    0  0.15116228463E+02  0.36061440619E+03  0.82874924394E+03  0.91678144215E+03  0.15294330000E+03 0.  0.
    8880022    1    1    2    0    0 -0.15116228463E+02 -0.36061440619E+03 -0.69283354591E+03  0.79604096984E+03  0.15294330000E+03 0.  0.
<mgrwt>
<rscale>  0 0.39199860E+03</rscale>
<asrwt>0</asrwt>
<pdfrwt beam="1">  1        2 0.12130052E+00 0.39199860E+03</pdfrwt>
<pdfrwt beam="2">  1       -2 0.14221062E+00 0.39199860E+03</pdfrwt>
<totfact> 0.12961980E+01</totfact>
</mgrwt>
</event>
<event>
 4    1  0.2202466E-008  0.7873248E+03  0.7818608E-02  0.9578547E-01
         -2   -1    0    0    0  501 -0.00000000000E+00  0.00000000000E+00  0.32774148737E+03  0.32774148738E+03  0.25500000000E-02 0.  1.
          2   -1    0    0  501    0  0.00000000000E+00 -0.00000000000E+00 -0.24832833359E+04  0.24832833359E+04  0.25500000000E-02 0. -1.
    8880022    1    1    2    0    0 -0.50666039718E+03 -0.58290982205E+03 -0.17639710179E+04  0.19317023641E+04  0.15294330000E+03 0.  0.
    8880022    1    1    2    0    0  0.50666039718E+03  0.58290982205E+03 -0.39157083065E+03  0.87932245913E+03  0.15294330000E+03 0.  0.
<mgrwt>
<rscale>  0 0.78732476E+03</rscale>
<asrwt>0</asrwt>
<pdfrwt beam="1">  1        2 0.38204358E+00 0.78732476E+03</pdfrwt>
<pdfrwt beam="2">  1       -2 0.50421769E-01 0.78732476E+03</pdfrwt>
<totfact> 0.13783582E+01</totfact>
</mgrwt>
</event>
<event>
 4    1  0.2202466E-008  0.1319799E+04  0.7818608E-02  0.9014010E-01
          2   -1    0    0  501    0  0.00000000000E+00  0.00000000000E+00  0.10844913073E+04  0.10844913073E+04  0.25500000000E-02 0. -1.
         -2   -1    0    0    0  501 -0.00000000000E+00 -0.00000000000E+00 -0.18009471144E+04  0.18009471144E+04  0.25500000000E-02 0.  1.
    8880022    1    1    2    0    0 -0.12863894161E+04 -0.25235134617E+03  0.11624051210E+03  0.13249084653E+04  0.15294330000E+03 0.  0.
    8880022    1    1    2    0    0  0.12863894161E+04  0.25235134617E+03 -0.83269631925E+03  0.15605299564E+04  0.15294330000E+03 0.  0.
<mgrwt>
<rscale>  0 0.13197994E+04</rscale>
<asrwt>0</asrwt>
<pdfrwt beam="1">  1        2 0.16684482E+00 0.13197994E+04</pdfrwt>
<pdfrwt beam="2">  1       -2 0.27706879E+00 0.13197994E+04</pdfrwt>
<totfact> 0.94100320E-01</totfact>
</mgrwt>
</event>
<event>
 4    1  0.2202466E-008  0.7748517E+03  0.7818608E-02  0.9597149E-01
          2   -1    0    0  501    0  0.00000000000E+00  0.00000000000E+00  0.17364399151E+04  0.17364399151E+04  0.25500000000E-02 0. -1.
         -2   -1    0    0    0  501 -0.00000000000E+00 -0.00000000000E+00 -0.13118339522E+04  0.13118339522E+04  0.25500000000E-02 0.  1.
    8880022    1    1    2    0    0  0.19226967484E+03  0.73487138271E+03  0.15202472911E+04  0.17063256008E+04  0.15294330000E+03 0.  0.
    8880022    1    1    2    0    0 -0.19226967484E+03 -0.73487138271E+03 -0.10956413281E+04  0.13419482665E+04  0.15294330000E+03 0.  0.
<mgrwt>
<rscale>  0 0.77485175E+03</rscale>
<asrwt>0</asrwt>
<pdfrwt beam="1">  1        2 0.26714460E+00 0.77485175E+03</pdfrwt>
<pdfrwt beam="2">  1       -2 0.20182061E+00 0.77485175E+03</pdfrwt>
<totfact> 0.12508521E+00</totfact>
</mgrwt>
</event>
<event>
 4    1  0.2202466E-008  0.9097351E+03  0.7818608E-02  0.9413493E-01
         -2   -1    0    0    0  501 -0.00000000000E+00  0.00000000000E+00  0.81123503470E+03  0.81123503470E+03  0.25500000000E-02 0.  1.
          2   -1    0    0  501    0  0.00000000000E+00 -0.00000000000E+00 -0.32763356635E+04  0.32763356635E+04  0.25500000000E-02 0. -1.
    8880022    1    1    2    0    0 -0.11847724568E+03  0.88892598450E+03  0.46344315118E+03  0.10209786830E+04  0.15294330000E+03 0.  0.
    8880022    1    1    2    0    0  0.11847724568E+03 -0.88892598450E+03 -0.29285437800E+04  0.30665920152E+04  0.15294330000E+03 0.  0.
<mgrwt>
<rscale>  0 0.90973508E+03</rscale>
<asrwt>0</asrwt>
<pdfrwt beam="1">  1        2 0.50405164E+00 0.90973508E+03</pdfrwt>
<pdfrwt beam="2">  1       -2 0.12480539E+00 0.90973508E+03</pdfrwt>
<totfact> 0.57964515E-01</totfact>
</mgrwt>
</event>
<event>
 4    1  0.2202466E-008  0.5513362E+03  0.7818608E-02  0.1001185E+00
          2   -1    0    0  501    0  0.00000000000E+00  0.00000000000E+00  0.11229477877E+04  0.11229477877E+04  0.25500000000E-02 0. -1.
         -2   -1    0    0    0  501 -0.00000000000E+00 -0.00000000000E+00 -0.10901675322E+04  0.10901675322E+04  0.25500000000E-02 0.  1.
    8880022    1    1    2    0    0  0.22437338654E+03  0.47982972891E+03 -0.94300109253E+03  0.10923473343E+04  0.15294330000E+03 0.  1.
    8880022    1    1    2    0    0 -0.22437338654E+03 -0.47982972891E+03  0.97578134806E+03  0.11207679856E+04  0.15294330000E+03 0.  0.
<mgrwt>
<rscale>  0 0.55133623E+03</rscale>
<asrwt>0</asrwt>
<pdfrwt beam="1">  1        2 0.17276120E+00 0.55133623E+03</pdfrwt>
<pdfrwt beam="2">  1       -2 0.16771808E+00 0.55133623E+03</pdfrwt>
<totfact> 0.49273301E+00</totfact>
</mgrwt>
</event>
<event>
 4    1  0.2202466E-008  0.6040718E+03  0.7818608E-02  0.9896994E-01
         -2   -1    0    0    0  501 -0.00000000000E+00  0.00000000000E+00  0.68830434844E+03  0.68830434845E+03  0.25500000000E-02 0.  1.
          2   -1    0    0  501    0  0.00000000000E+00 -0.00000000000E+00 -0.72209753221E+03  0.72209753222E+03  0.25500000000E-02 0. -1.
    8880022    1    1    2    0    0 -0.49417212823E+03 -0.31193747064E+03  0.34669113014E+03  0.69648939019E+03  0.15294330000E+03 0.  0.
    8880022    1    1    2    0    0  0.49417212823E+03  0.31193747064E+03 -0.38048431392E+03  0.71391249048E+03  0.15294330000E+03 0.  0.
<mgrwt>
<rscale>  0 0.60407179E+03</rscale>
<asrwt>0</asrwt>
<pdfrwt beam="1">  1        2 0.11109193E+00 0.60407179E+03</pdfrwt>
<pdfrwt beam="2">  1       -2 0.10589298E+00 0.60407179E+03</pdfrwt>
<totfact> 0.29158971E+01</totfact>
</mgrwt>
</event>
<event>
 4    1  0.2202466E-008  0.3361962E+03  0.7818608E-02  0.1068428E+00
         -2   -1    0    0    0  501 -0.00000000000E+00  0.00000000000E+00  0.67850303346E+03  0.67850303346E+03  0.25500000000E-02 0.  1.
          2   -1    0    0  501    0  0.00000000000E+00 -0.00000000000E+00 -0.34527307658E+03  0.34527307659E+03  0.25500000000E-02 0. -1.
    8880022    1    1    2    0    0 -0.43706096417E+01 -0.29936115389E+03 -0.20163476233E+03  0.39202606174E+03  0.15294330000E+03 0.  0.
    8880022    1    1    2    0    0  0.43706096417E+01  0.29936115389E+03  0.53486471920E+03  0.63175004832E+03  0.15294330000E+03 0.  0.
<mgrwt>
<rscale>  0 0.33619616E+03</rscale>
<asrwt>0</asrwt>
<pdfrwt beam="1">  1        2 0.53118934E-01 0.33619616E+03</pdfrwt>
<pdfrwt beam="2">  1       -2 0.10438508E+00 0.33619616E+03</pdfrwt>
<totfact> 0.72891962E+01</totfact>
</mgrwt>
</event>
<event>
 4    1  0.2202466E-008  0.1531292E+04  0.7818608E-02  0.8863907E-01
         -2   -1    0    0    0  501 -0.00000000000E+00  0.00000000000E+00  0.14109594941E+04  0.14109594941E+04  0.25500000000E-02 0.  1.
          2   -1    0    0  501    0  0.00000000000E+00 -0.00000000000E+00 -0.35833585602E+04  0.35833585602E+04  0.25500000000E-02 0. -1.
    8880022    1    1    2    0    0 -0.92696036334E+03  0.12092177597E+04 -0.29147968831E+04  0.32925515376E+04  0.15294330000E+03 0.  0.
    8880022    1    1    2    0    0  0.92696036334E+03 -0.12092177597E+04  0.74239781698E+03  0.17017665166E+04  0.15294330000E+03 0.  0.
<mgrwt>
<rscale>  0 0.15312919E+04</rscale>
<asrwt>0</asrwt>
<pdfrwt beam="1">  1        2 0.55128593E+00 0.15312919E+04</pdfrwt>
<pdfrwt beam="2">  1       -2 0.21707069E+00 0.15312919E+04</pdfrwt>
<totfact> 0.69094241E-02</totfact>
</mgrwt>
</event>
<event>
 4    1  0.2202466E-008  0.4937733E+03  0.7818608E-02  0.1015417E+00
         -2   -1    0    0    0  501 -0.00000000000E+00  0.00000000000E+00  0.79517506207E+03  0.79517506208E+03  0.25500000000E-02 0.  1.
          2   -1    0    0  501    0  0.00000000000E+00 -0.00000000000E+00 -0.10988759900E+04  0.10988759900E+04  0.25500000000E-02 0. -1.
    8880022    1    1    2    0    0  0.44734167126E+03 -0.14249851695E+03  0.65227102624E+03  0.81808895780E+03  0.15294330000E+03 0.  0.
    8880022    1    1    2    0    0 -0.44734167126E+03  0.14249851695E+03 -0.95597195421E+03  0.10759620943E+04  0.15294330000E+03 0. -1.
<mgrwt>
<rscale>  0 0.49377328E+03</rscale>
<asrwt>0</asrwt>
<pdfrwt beam="1">  1        2 0.16905784E+00 0.49377328E+03</pdfrwt>
<pdfrwt beam="2">  1       -2 0.12233463E+00 0.49377328E+03</pdfrwt>
<totfact> 0.11679892E+01</totfact>
</mgrwt>
</event>
<event>
 4    1  0.2202466E-008  0.6140617E+03  0.7818608E-02  0.9876655E-01
          2   -1    0    0  501    0  0.00000000000E+00  0.00000000000E+00  0.21902726868E+04  0.21902726868E+04  0.25500000000E-02 0. -1.
         -2   -1    0    0    0  501 -0.00000000000E+00 -0.00000000000E+00 -0.38538131382E+03  0.38538131383E+03  0.25500000000E-02 0.  1.
    8880022    1    1    2    0    0 -0.59415298787E+03  0.25735286125E+02 -0.55476248163E+02  0.61656252324E+03  0.15294330000E+03 0.  0.
    8880022    1    1    2    0    0  0.59415298787E+03 -0.25735286125E+02  0.18603676211E+04  0.19590914774E+04  0.15294330000E+03 0.  0.
<mgrwt>
<rscale>  0 0.61406167E+03</rscale>
<asrwt>0</asrwt>
<pdfrwt beam="1">  1        2 0.33696503E+00 0.61406167E+03</pdfrwt>
<pdfrwt beam="2">  1       -2 0.59289433E-01 0.61406167E+03</pdfrwt>
<totfact> 0.14766677E+01</totfact>
</mgrwt>
</event>
<event>
 4    1  0.2202466E-008  0.7640424E+03  0.7818608E-02  0.9613574E-01
         -2   -1    0    0    0  501 -0.00000000000E+00  0.00000000000E+00  0.68301753753E+03  0.68301753753E+03  0.25500000000E-02 0.  1.
          2   -1    0    0  501    0  0.00000000000E+00 -0.00000000000E+00 -0.17015022490E+04  0.17015022490E+04  0.25500000000E-02 0. -1.
    8880022    1    1    2    0    0  0.74700341480E+03 -0.48528776575E+02  0.33186423958E+03  0.83300340360E+03  0.15294330000E+03 0.  0.
    8880022    1    1    2    0    0 -0.74700341480E+03  0.48528776575E+02 -0.13503489511E+04  0.15515163829E+04  0.15294330000E+03 0.  0.
<mgrwt>
<rscale>  0 0.76404241E+03</rscale>
<asrwt>0</asrwt>
<pdfrwt beam="1">  1        2 0.26176958E+00 0.76404241E+03</pdfrwt>
<pdfrwt beam="2">  1       -2 0.10507962E+00 0.76404241E+03</pdfrwt>
<totfact> 0.73745992E+00</totfact>
</mgrwt>
</event>
<event>
 4    1  0.2202466E-008  0.4182692E+03  0.7818608E-02  0.1037631E+00
          2   -1    0    0  501    0  0.00000000000E+00  0.00000000000E+00  0.73543343945E+03  0.73543343946E+03  0.25500000000E-02 0. -1.
         -2   -1    0    0    0  501 -0.00000000000E+00 -0.00000000000E+00 -0.60910874883E+03  0.60910874884E+03  0.25500000000E-02 0.  1.
    8880022    1    1    2    0    0  0.19018246240E+03 -0.33968824903E+03 -0.46166259154E+03  0.62296185837E+03  0.15294330000E+03 0.  0.
    8880022    1    1    2    0    0 -0.19018246240E+03  0.33968824903E+03  0.58798728216E+03  0.72158032993E+03  0.15294330000E+03 0.  0.
<mgrwt>
<rscale>  0 0.41826921E+03</rscale>
<asrwt>0</asrwt>
<pdfrwt beam="1">  1        2 0.11314361E+00 0.41826921E+03</pdfrwt>
<pdfrwt beam="2">  1       -2 0.93709038E-01 0.41826921E+03</pdfrwt>
<totfact> 0.38879163E+01</totfact>
</mgrwt>
</event>
<event>
 4    1  0.2202466E-008  0.2529558E+03  0.7818608E-02  0.1111451E+00
         -2   -1    0    0    0  501 -0.00000000000E+00  0.00000000000E+00  0.25351960848E+03  0.25351960849E+03  0.25500000000E-02 0.  1.
          2   -1    0    0  501    0  0.00000000000E+00 -0.00000000000E+00 -0.33254942958E+04  0.33254942958E+04  0.25500000000E-02 0. -1.
    8880022    1    1    2    0    0  0.18491838118E+03  0.80000949885E+02  0.18427116086E+03  0.31295762240E+03  0.15294330000E+03 0.  0.
    8880022    1    1    2    0    0 -0.18491838118E+03 -0.80000949885E+02 -0.32562458482E+04  0.32660562819E+04  0.15294330000E+03 0.  0.
<mgrwt>
<rscale>  0 0.25295575E+03</rscale>
<asrwt>0</asrwt>
<pdfrwt beam="1">  1        2 0.51161448E+00 0.25295575E+03</pdfrwt>
<pdfrwt beam="2">  1       -2 0.39003019E-01 0.25295575E+03</pdfrwt>
<totfact> 0.84342480E+00</totfact>
</mgrwt>
</event>
<event>
 4    1  0.2202466E-008  0.5674702E+03  0.7818608E-02  0.9975292E-01
         -2   -1    0    0    0  501 -0.00000000000E+00  0.00000000000E+00  0.17418712777E+03  0.17418712779E+03  0.25500000000E-02 0.  1.
          2   -1    0    0  501    0  0.00000000000E+00 -0.00000000000E+00 -0.23945773841E+04  0.23945773841E+04  0.25500000000E-02 0. -1.
    8880022    1    1    2    0    0  0.48865585411E+03 -0.24463482218E+03 -0.17234222549E+04  0.18144438987E+04  0.15294330000E+03 0.  0.
    8880022    1    1    2    0    0 -0.48865585411E+03  0.24463482218E+03 -0.49696800145E+03  0.75432061317E+03  0.15294330000E+03 0.  0.
<mgrwt>
<rscale>  0 0.56747017E+03</rscale>
<asrwt>0</asrwt>
<pdfrwt beam="1">  1        2 0.36839650E+00 0.56747017E+03</pdfrwt>
<pdfrwt beam="2">  1       -2 0.26798021E-01 0.56747017E+03</pdfrwt>
<totfact> 0.53937907E+01</totfact>
</mgrwt>
</event>
<event>
 4    1  0.2202466E-008  0.6596504E+03  0.7818608E-02  0.9788838E-01
         -2   -1    0    0    0  501 -0.00000000000E+00  0.00000000000E+00  0.27533013796E+03  0.27533013797E+03  0.25500000000E-02 0.  1.
          2   -1    0    0  501    0  0.00000000000E+00 -0.00000000000E+00 -0.21802208053E+04  0.21802208053E+04  0.25500000000E-02 0. -1.
    8880022    1    1    2    0    0 -0.96563015261E+02  0.63436780895E+03 -0.30846813977E+03  0.72821094417E+03  0.15294330000E+03 0.  0.
    8880022    1    1    2    0    0  0.96563015261E+02 -0.63436780895E+03 -0.15964225276E+04  0.17273399991E+04  0.15294330000E+03 0.  0.
<mgrwt>
<rscale>  0 0.65965035E+03</rscale>
<asrwt>0</asrwt>
<pdfrwt beam="1">  1        2 0.33541857E+00 0.65965035E+03</pdfrwt>
<pdfrwt beam="2">  1       -2 0.42358484E-01 0.65965035E+03</pdfrwt>
<totfact> 0.29391884E+01</totfact>
</mgrwt>
</event>
<event>
 4    1  0.2202466E-008  0.1525219E+04  0.7818608E-02  0.8867854E-01
         -2   -1    0    0    0  501 -0.00000000000E+00  0.00000000000E+00  0.11600739954E+04  0.11600739954E+04  0.25500000000E-02 0.  1.
          2   -1    0    0  501    0  0.00000000000E+00 -0.00000000000E+00 -0.23449647315E+04  0.23449647315E+04  0.25500000000E-02 0. -1.
    8880022    1    1    2    0    0 -0.14362476372E+04 -0.48999357803E+03 -0.12594394193E+04  0.19779990611E+04  0.15294330000E+03 0.  0.
    8880022    1    1    2    0    0  0.14362476372E+04  0.48999357803E+03  0.74548683204E+02  0.15270396658E+04  0.15294330000E+03 0.  0.
<mgrwt>
<rscale>  0 0.15252189E+04</rscale>
<asrwt>0</asrwt>
<pdfrwt beam="1">  1        2 0.36076380E+00 0.15252189E+04</pdfrwt>
<pdfrwt beam="2">  1       -2 0.17847292E+00 0.15252189E+04</pdfrwt>
<totfact> 0.74541547E-01</totfact>
</mgrwt>
</event>
<event>
 4    1  0.2202466E-008  0.2470410E+03  0.7818608E-02  0.1115189E+00
          2   -1    0    0  501    0  0.00000000000E+00  0.00000000000E+00  0.92741955195E+03  0.92741955195E+03  0.25500000000E-02 0. -1.
         -2   -1    0    0    0  501 -0.00000000000E+00 -0.00000000000E+00 -0.70422532673E+02  0.70422532719E+02  0.25500000000E-02 0.  1.
    8880022    1    1    2    0    0  0.10827520855E+03  0.16097856590E+03  0.30074899958E+03  0.38920333148E+03  0.15294330000E+03 0.  1.
    8880022    1    1    2    0    0 -0.10827520855E+03 -0.16097856590E+03  0.55624801969E+03  0.60863875319E+03  0.15294330000E+03 0. -1.
<mgrwt>
<rscale>  0 0.24704103E+03</rscale>
<asrwt>0</asrwt>
<pdfrwt beam="1">  1        2 0.14267992E+00 0.24704103E+03</pdfrwt>
<pdfrwt beam="2">  1       -2 0.10834236E-01 0.24704103E+03</pdfrwt>
<totfact> 0.17003633E+03</totfact>
</mgrwt>
</event>
<event>
 4    1  0.2202466E-008  0.8046138E+03  0.7818608E-02  0.9553363E-01
          2   -1    0    0  501    0  0.00000000000E+00  0.00000000000E+00  0.25067164267E+04  0.25067164267E+04  0.25500000000E-02 0. -1.
         -2   -1    0    0    0  501 -0.00000000000E+00 -0.00000000000E+00 -0.88346177362E+03  0.88346177362E+03  0.25500000000E-02 0.  1.
    8880022    1    1    2    0    0 -0.78700492606E+03 -0.68081130449E+02  0.22375833661E+04  0.23778525538E+04  0.15294330000E+03 0.  0.
    8880022    1    1    2    0    0  0.78700492606E+03  0.68081130449E+02 -0.61432871307E+03  0.10123256466E+04  0.15294330000E+03 0.  0.
<mgrwt>
<rscale>  0 0.80461385E+03</rscale>
<asrwt>0</asrwt>
<pdfrwt beam="1">  1        2 0.38564868E+00 0.80461385E+03</pdfrwt>
<pdfrwt beam="2">  1       -2 0.13591720E+00 0.80461385E+03</pdfrwt>
<totfact> 0.13917391E+00</totfact>
</mgrwt>
</event>
<event>
 4    1  0.2202466E-008  0.6075412E+03  0.7818608E-02  0.9889883E-01
         -2   -1    0    0    0  501 -0.00000000000E+00  0.00000000000E+00  0.95371891694E+03  0.95371891695E+03  0.25500000000E-02 0.  1.
          2   -1    0    0  501    0  0.00000000000E+00 -0.00000000000E+00 -0.87815780063E+03  0.87815780064E+03  0.25500000000E-02 0. -1.
    8880022    1    1    2    0    0 -0.20915500642E+03 -0.54951687061E+03 -0.64720685178E+03  0.88768404841E+03  0.15294330000E+03 0.  0.
    8880022    1    1    2    0    0  0.20915500642E+03  0.54951687061E+03  0.72276796809E+03  0.94419266917E+03  0.15294330000E+03 0.  0.
<mgrwt>
<rscale>  0 0.60754116E+03</rscale>
<asrwt>0</asrwt>
<pdfrwt beam="1">  1        2 0.13510120E+00 0.60754116E+03</pdfrwt>
<pdfrwt beam="2">  1       -2 0.14672599E+00 0.60754116E+03</pdfrwt>
<totfact> 0.99819045E+00</totfact>
</mgrwt>
</event>
<event>
 4    1  0.2202466E-008  0.2920195E+03  0.7818608E-02  0.1089299E+00
         -2   -1    0    0    0  501 -0.00000000000E+00  0.00000000000E+00  0.11106725889E+04  0.11106725889E+04  0.25500000000E-02 0.  1.
          2   -1    0    0  501    0  0.00000000000E+00 -0.00000000000E+00 -0.55985337697E+03  0.55985337698E+03  0.25500000000E-02 0. -1.
    8880022    1    1    2    0    0  0.21503921801E+03 -0.12506740679E+03 -0.50046845533E+03  0.57943424935E+03  0.15294330000E+03 0.  0.
    8880022    1    1    2    0    0 -0.21503921801E+03  0.12506740679E+03  0.10512876672E+04  0.10910917165E+04  0.15294330000E+03 0.  1.
<mgrwt>
<rscale>  0 0.29201948E+03</rscale>
<asrwt>0</asrwt>
<pdfrwt beam="1">  1        2 0.86131290E-01 0.29201948E+03</pdfrwt>
<pdfrwt beam="2">  1       -2 0.17087270E+00 0.29201948E+03</pdfrwt>
<totfact> 0.12374719E+01</totfact>
</mgrwt>
</event>
<event>
 4    1  0.2202466E-008  0.3406951E+03  0.7818608E-02  0.1066500E+00
          2   -1    0    0  501    0  0.00000000000E+00  0.00000000000E+00  0.13119222739E+04  0.13119222739E+04  0.25500000000E-02 0. -1.
         -2   -1    0    0    0  501 -0.00000000000E+00 -0.00000000000E+00 -0.17575361517E+03  0.17575361519E+03  0.25500000000E-02 0.  1.
    8880022    1    1    2    0    0 -0.14578529982E+03 -0.26726047468E+03  0.43906658771E+02  0.34351268196E+03  0.15294330000E+03 0.  1.
    8880022    1    1    2    0    0  0.14578529982E+03  0.26726047468E+03  0.10922619999E+04  0.11441632071E+04  0.15294330000E+03 0.  0.
<mgrwt>
<rscale>  0 0.34069512E+03</rscale>
<asrwt>0</asrwt>
<pdfrwt beam="1">  1        2 0.20183419E+00 0.34069512E+03</pdfrwt>
<pdfrwt beam="2">  1       -2 0.27039018E-01 0.34069512E+03</pdfrwt>
<totfact> 0.21300425E+02</totfact>
</mgrwt>
</event>
<event>
 4    1  0.2202466E-008  0.3340995E+03  0.7818608E-02  0.1069337E+00
          2   -1    0    0  501    0  0.00000000000E+00  0.00000000000E+00  0.82798667021E+03  0.82798667021E+03  0.25500000000E-02 0. -1.
         -2   -1    0    0    0  501 -0.00000000000E+00 -0.00000000000E+00 -0.25263176234E+03  0.25263176235E+03  0.25500000000E-02 0.  1.
    8880022    1    1    2    0    0 -0.22236158930E+03  0.19694197888E+03  0.65666152566E+03  0.73676782757E+03  0.15294330000E+03 0.  0.
    8880022    1    1    2    0    0  0.22236158930E+03 -0.19694197888E+03 -0.81306617786E+02  0.34385060499E+03  0.15294330000E+03 0.  0.
<mgrwt>
<rscale>  0 0.33409949E+03</rscale>
<asrwt>0</asrwt>
<pdfrwt beam="1">  1        2 0.12738256E+00 0.33409949E+03</pdfrwt>
<pdfrwt beam="2">  1       -2 0.38866426E-01 0.33409949E+03</pdfrwt>
<totfact> 0.21412985E+02</totfact>
</mgrwt>
</event>
<event>
 4    1  0.2202466E-008  0.4573158E+03  0.7818608E-02  0.1025563E+00
          2   -1    0    0  501    0  0.00000000000E+00  0.00000000000E+00  0.82262719729E+03  0.82262719729E+03  0.25500000000E-02 0. -1.
         -2   -1    0    0    0  501 -0.00000000000E+00 -0.00000000000E+00 -0.40454682339E+03  0.40454682340E+03  0.25500000000E-02 0.  1.
    8880022    1    1    2    0    0  0.42390656651E+03  0.77777294666E+02  0.58305896087E+03  0.74100977697E+03  0.15294330000E+03 0.  0.
    8880022    1    1    2    0    0 -0.42390656651E+03 -0.77777294666E+02 -0.16497858697E+03  0.48616424372E+03  0.15294330000E+03 0.  0.
<mgrwt>
<rscale>  0 0.45731580E+03</rscale>
<asrwt>0</asrwt>
<pdfrwt beam="1">  1        2 0.12655803E+00 0.45731580E+03</pdfrwt>
<pdfrwt beam="2">  1       -2 0.62237973E-01 0.45731580E+03</pdfrwt>
<totfact> 0.82668470E+01</totfact>
</mgrwt>
</event>
<event>
 4    1  0.2202466E-008  0.1658197E+04  0.7818608E-02  0.8785572E-01
          2   -1    0    0  501    0  0.00000000000E+00  0.00000000000E+00  0.25772584603E+04  0.25772584603E+04  0.25500000000E-02 0. -1.
         -2   -1    0    0    0  501 -0.00000000000E+00 -0.00000000000E+00 -0.18363513662E+04  0.18363513662E+04  0.25500000000E-02 0.  1.
    8880022    1    1    2    0    0  0.12982339226E+04 -0.10202030842E+04 -0.10580561105E+04  0.19670028055E+04  0.15294330000E+03 0.  0.
    8880022    1    1    2    0    0 -0.12982339226E+04  0.10202030842E+04  0.17989632046E+04  0.24466070210E+04  0.15294330000E+03 0.  0.
<mgrwt>
<rscale>  0 0.16581970E+04</rscale>
<asrwt>0</asrwt>
<pdfrwt beam="1">  1        2 0.39650130E+00 0.16581970E+04</pdfrwt>
<pdfrwt beam="2">  1       -2 0.28251560E+00 0.16581970E+04</pdfrwt>
<totfact> 0.11736823E-01</totfact>
</mgrwt>
</event>
<event>
 4    1  0.2202466E-008  0.9156070E+03  0.7818608E-02  0.9406280E-01
         -2   -1    0    0    0  501 -0.00000000000E+00  0.00000000000E+00  0.13054711100E+04  0.13054711100E+04  0.25500000000E-02 0.  1.
          2   -1    0    0  501    0  0.00000000000E+00 -0.00000000000E+00 -0.91353578256E+03  0.91353578256E+03  0.25500000000E-02 0. -1.
    8880022    1    1    2    0    0  0.66641426740E+03 -0.60896345242E+03 -0.40873565854E+03  0.10026968404E+04  0.15294330000E+03 0.  0.
    8880022    1    1    2    0    0 -0.66641426740E+03  0.60896345242E+03  0.80067098600E+03  0.12163100522E+04  0.15294330000E+03 0.  0.
<mgrwt>
<rscale>  0 0.91560697E+03</rscale>
<asrwt>0</asrwt>
<pdfrwt beam="1">  1        2 0.14054397E+00 0.91560697E+03</pdfrwt>
<pdfrwt beam="2">  1       -2 0.20084171E+00 0.91560697E+03</pdfrwt>
<totfact> 0.37768744E+00</totfact>
</mgrwt>
</event>
<event>
 4    1  0.2202466E-008  0.8341240E+03  0.7818608E-02  0.9511896E-01
         -2   -1    0    0    0  501 -0.00000000000E+00  0.00000000000E+00  0.10308424264E+04  0.10308424264E+04  0.25500000000E-02 0.  1.
          2   -1    0    0  501    0  0.00000000000E+00 -0.00000000000E+00 -0.81312661896E+03  0.81312661897E+03  0.25500000000E-02 0. -1.
    8880022    1    1    2    0    0  0.25233374935E+03 -0.78019153268E+03 -0.27121627722E+03  0.87710949760E+03  0.15294330000E+03 0.  0.
    8880022    1    1    2    0    0 -0.25233374935E+03  0.78019153268E+03  0.48893208468E+03  0.96685954780E+03  0.15294330000E+03 0.  1.
<mgrwt>
<rscale>  0 0.83412397E+03</rscale>
<asrwt>0</asrwt>
<pdfrwt beam="1">  1        2 0.12509640E+00 0.83412397E+03</pdfrwt>
<pdfrwt beam="2">  1       -2 0.15859114E+00 0.83412397E+03</pdfrwt>
<totfact> 0.87625329E+00</totfact>
</mgrwt>
</event>
<event>
 4    1  0.2202466E-008  0.6878863E+03  0.7818608E-02  0.9738175E-01
          2   -1    0    0  501    0  0.00000000000E+00  0.00000000000E+00  0.10723242119E+04  0.10723242119E+04  0.25500000000E-02 0. -1.
         -2   -1    0    0    0  501 -0.00000000000E+00 -0.00000000000E+00 -0.96881961627E+03  0.96881961627E+03  0.25500000000E-02 0.  1.
    8880022    1    1    2    0    0  0.11370251279E+03  0.66095964824E+03  0.80485226643E+03  0.10587609465E+04  0.15294330000E+03 0.  0.
    8880022    1    1    2    0    0 -0.11370251279E+03 -0.66095964824E+03 -0.70134767076E+03  0.98238288173E+03  0.15294330000E+03 0.  0.
<mgrwt>
<rscale>  0 0.68788631E+03</rscale>
<asrwt>0</asrwt>
<pdfrwt beam="1">  1        2 0.16497296E+00 0.68788631E+03</pdfrwt>
<pdfrwt beam="2">  1       -2 0.14904917E+00 0.68788631E+03</pdfrwt>
<totfact> 0.70999375E+00</totfact>
</mgrwt>
</event>
<event>
 4    1  0.2202466E-008  0.4583498E+03  0.7818608E-02  0.1025261E+00
         -2   -1    0    0    0  501 -0.00000000000E+00  0.00000000000E+00  0.26302979931E+03  0.26302979932E+03  0.25500000000E-02 0.  1.
          2   -1    0    0  501    0  0.00000000000E+00 -0.00000000000E+00 -0.15677663865E+04  0.15677663865E+04  0.25500000000E-02 0. -1.
    8880022    1    1    2    0    0  0.30263085774E+02 -0.43101862428E+03 -0.12935016717E+04  0.13723086885E+04  0.15294330000E+03 0.  1.
    8880022    1    1    2    0    0 -0.30263085774E+02  0.43101862428E+03 -0.11234915465E+02  0.45848749729E+03  0.15294330000E+03 0.  1.
<mgrwt>
<rscale>  0 0.45834982E+03</rscale>
<asrwt>0</asrwt>
<pdfrwt beam="1">  1        2 0.24119482E+00 0.45834982E+03</pdfrwt>
<pdfrwt beam="2">  1       -2 0.40466124E-01 0.45834982E+03</pdfrwt>
<totfact> 0.71235247E+01</totfact>
</mgrwt>
</event>
<event>
 4    1  0.2202466E-008  0.9405610E+03  0.7818608E-02  0.9376252E-01
         -2   -1    0    0    0  501 -0.00000000000E+00  0.00000000000E+00  0.76712896635E+03  0.76712896635E+03  0.25500000000E-02 0.  1.
          2   -1    0    0  501    0  0.00000000000E+00 -0.00000000000E+00 -0.12471348286E+04  0.12471348286E+04  0.25500000000E-02 0. -1.
    8880022    1    1    2    0    0 -0.78027419393E+03  0.50242967812E+03 -0.51640237189E+03  0.10729988173E+04  0.15294330000E+03 0.  0.
    8880022    1    1    2    0    0  0.78027419393E+03 -0.50242967812E+03  0.36396509687E+02  0.94126497763E+03  0.15294330000E+03 0.  0.
<mgrwt>
<rscale>  0 0.94056103E+03</rscale>
<asrwt>0</asrwt>
<pdfrwt beam="1">  1        2 0.19186690E+00 0.94056103E+03</pdfrwt>
<pdfrwt beam="2">  1       -2 0.11801984E+00 0.94056103E+03</pdfrwt>
<totfact> 0.98133706E+00</totfact>
</mgrwt>
</event>
<event>
 4    1  0.2202466E-008  0.5688963E+03  0.7818608E-02  0.9972124E-01
         -2   -1    0    0    0  501 -0.00000000000E+00  0.00000000000E+00  0.56257368967E+03  0.56257368967E+03  0.25500000000E-02 0.  1.
          2   -1    0    0  501    0  0.00000000000E+00 -0.00000000000E+00 -0.22576711142E+04  0.22576711142E+04  0.25500000000E-02 0. -1.
    8880022    1    1    2    0    0 -0.54643576937E+03  0.40734463951E+02 -0.20648236214E+04  0.21417608613E+04  0.15294330000E+03 0.  0.
    8880022    1    1    2    0    0  0.54643576937E+03 -0.40734463951E+02  0.36972619688E+03  0.67848394253E+03  0.15294330000E+03 0.  0.
<mgrwt>
<rscale>  0 0.56889630E+03</rscale>
<asrwt>0</asrwt>
<pdfrwt beam="1">  1        2 0.34733401E+00 0.56889630E+03</pdfrwt>
<pdfrwt beam="2">  1       -2 0.86549799E-01 0.56889630E+03</pdfrwt>
<totfact> 0.59844795E+00</totfact>
</mgrwt>
</event>
<event>
 4    1  0.2202466E-008  0.1009656E+04  0.7818608E-02  0.9298017E-01
         -2   -1    0    0    0  501 -0.00000000000E+00  0.00000000000E+00  0.14487432315E+04  0.14487432315E+04  0.25500000000E-02 0.  1.
          2   -1    0    0  501    0  0.00000000000E+00 -0.00000000000E+00 -0.93692402126E+03  0.93692402127E+03  0.25500000000E-02 0. -1.
    8880022    1    1    2    0    0  0.22179134343E+03 -0.97304788887E+03  0.85110937669E+03  0.13205273258E+04  0.15294330000E+03 0.  0.
    8880022    1    1    2    0    0 -0.22179134343E+03  0.97304788887E+03 -0.33929016643E+03  0.10651399270E+04  0.15294330000E+03 0.  0.
<mgrwt>
<rscale>  0 0.10096560E+04</rscale>
<asrwt>0</asrwt>
<pdfrwt beam="1">  1        2 0.14414216E+00 0.10096560E+04</pdfrwt>
<pdfrwt beam="2">  1       -2 0.22288357E+00 0.10096560E+04</pdfrwt>
<totfact> 0.26062437E+00</totfact>
</mgrwt>
</event>
<event>
 4    1  0.2202466E-008  0.1121059E+04  0.7818608E-02  0.9184906E-01
         -2   -1    0    0    0  501 -0.00000000000E+00  0.00000000000E+00  0.68641762793E+03  0.68641762794E+03  0.25500000000E-02 0.  1.
          2   -1    0    0  501    0  0.00000000000E+00 -0.00000000000E+00 -0.34048357090E+04  0.34048357090E+04  0.25500000000E-02 0. -1.
    8880022    1    1    2    0    0 -0.10081041860E+04  0.46594716516E+03  0.31607012014E+02  0.11215041091E+04  0.15294330000E+03 0.  0.
    8880022    1    1    2    0    0  0.10081041860E+04 -0.46594716516E+03 -0.27500250930E+04  0.29697492278E+04  0.15294330000E+03 0.  0.
<mgrwt>
<rscale>  0 0.11210586E+04</rscale>
<asrwt>0</asrwt>
<pdfrwt beam="1">  1        2 0.52382087E+00 0.11210586E+04</pdfrwt>
<pdfrwt beam="2">  1       -2 0.10560271E+00 0.11210586E+04</pdfrwt>
<totfact> 0.69259603E-01</totfact>
</mgrwt>
</event>
<event>
 4    1  0.2202466E-008  0.1169970E+04  0.7818608E-02  0.9139555E-01
         -2   -1    0    0    0  501 -0.00000000000E+00  0.00000000000E+00  0.12833191477E+04  0.12833191477E+04  0.25500000000E-02 0.  1.
          2   -1    0    0  501    0  0.00000000000E+00 -0.00000000000E+00 -0.21943504477E+04  0.21943504477E+04  0.25500000000E-02 0. -1.
    8880022    1    1    2    0    0 -0.47500680861E+02 -0.11589576804E+04 -0.17020533875E+04  0.20653853409E+04  0.15294330000E+03 0.  0.
    8880022    1    1    2    0    0  0.47500680861E+02  0.11589576804E+04  0.79102208743E+03  0.14122842545E+04  0.15294330000E+03 0.  0.
<mgrwt>
<rscale>  0 0.11699705E+04</rscale>
<asrwt>0</asrwt>
<pdfrwt beam="1">  1        2 0.33759238E+00 0.11699705E+04</pdfrwt>
<pdfrwt beam="2">  1       -2 0.19743371E+00 0.11699705E+04</pdfrwt>
<totfact> 0.70253373E-01</totfact>
</mgrwt>
</event>
<event>
 4    1  0.2202466E-008  0.1211192E+04  0.7818608E-02  0.9103116E-01
         -2   -1    0    0    0  501 -0.00000000000E+00  0.00000000000E+00  0.69337278045E+03  0.69337278046E+03  0.25500000000E-02 0.  1.
          2   -1    0    0  501    0  0.00000000000E+00 -0.00000000000E+00 -0.31610392505E+04  0.31610392505E+04  0.25500000000E-02 0. -1.
    8880022    1    1    2    0    0  0.93254807878E+03  0.75759452274E+03 -0.23420797189E+04  0.26367260841E+04  0.15294330000E+03 0.  0.
    8880022    1    1    2    0    0 -0.93254807878E+03 -0.75759452274E+03 -0.12558675122E+03  0.12176859469E+04  0.15294330000E+03 0.  0.
<mgrwt>
<rscale>  0 0.12111924E+04</rscale>
<asrwt>0</asrwt>
<pdfrwt beam="1">  1        2 0.48631372E+00 0.12111924E+04</pdfrwt>
<pdfrwt beam="2">  1       -2 0.10667274E+00 0.12111924E+04</pdfrwt>
<totfact> 0.96403092E-01</totfact>
</mgrwt>
</event>
<event>
 4    1  0.2202466E-008  0.2576921E+03  0.7818608E-02  0.1108538E+00
         -2   -1    0    0    0  501 -0.00000000000E+00  0.00000000000E+00  0.11608456863E+03  0.11608456866E+03  0.25500000000E-02 0.  1.
          2   -1    0    0  501    0  0.00000000000E+00 -0.00000000000E+00 -0.11232767130E+04  0.11232767130E+04  0.25500000000E-02 0. -1.
    8880022    1    1    2    0    0  0.20359349181E+03 -0.39538247390E+02 -0.69492985298E+02  0.26689794105E+03  0.15294330000E+03 0.  0.
    8880022    1    1    2    0    0 -0.20359349181E+03  0.39538247390E+02 -0.93769915903E+03  0.97246334058E+03  0.15294330000E+03 0.  1.
<mgrwt>
<rscale>  0 0.25769213E+03</rscale>
<asrwt>0</asrwt>
<pdfrwt beam="1">  1        2 0.17281179E+00 0.25769213E+03</pdfrwt>
<pdfrwt beam="2">  1       -2 0.17859165E-01 0.25769213E+03</pdfrwt>
<totfact> 0.56810415E+02</totfact>
</mgrwt>
</event>
<event>
 4    1  0.2202466E-008  0.5783127E+03  0.7818608E-02  0.9951451E-01
         -2   -1    0    0    0  501 -0.00000000000E+00  0.00000000000E+00  0.16747039352E+04  0.16747039352E+04  0.25500000000E-02 0.  1.
          2   -1    0    0  501    0  0.00000000000E+00 -0.00000000000E+00 -0.61273857257E+03  0.61273857258E+03  0.25500000000E-02 0. -1.
    8880022    1    1    2    0    0  0.55620137499E+03 -0.41158051409E+02  0.14700043558E+04  0.15796703497E+04  0.15294330000E+03 0.  0.
    8880022    1    1    2    0    0 -0.55620137499E+03  0.41158051409E+02 -0.40803899317E+03  0.70777215804E+03  0.15294330000E+03 0.  0.
<mgrwt>
<rscale>  0 0.57831272E+03</rscale>
<asrwt>0</asrwt>
<pdfrwt beam="1">  1        2 0.94267472E-01 0.57831272E+03</pdfrwt>
<pdfrwt beam="2">  1       -2 0.25764676E+00 0.57831272E+03</pdfrwt>
<totfact> 0.29610819E+00</totfact>
</mgrwt>
</event>
<event>
 4    1  0.2202466E-008  0.3675362E+03  0.7818608E-02  0.1055639E+00
         -2   -1    0    0    0  501 -0.00000000000E+00  0.00000000000E+00  0.18684546107E+03  0.18684546109E+03  0.25500000000E-02 0.  1.
          2   -1    0    0  501    0  0.00000000000E+00 -0.00000000000E+00 -0.26840302988E+04  0.26840302988E+04  0.25500000000E-02 0. -1.
    8880022    1    1    2    0    0  0.28891795774E+03  0.16798096966E+03 -0.24755700746E+04  0.25027045450E+04  0.15294330000E+03 0. -1.
    8880022    1    1    2    0    0 -0.28891795774E+03 -0.16798096966E+03 -0.21614763161E+02  0.36817121489E+03  0.15294330000E+03 0.  0.
<mgrwt>
<rscale>  0 0.36753618E+03</rscale>
<asrwt>0</asrwt>
<pdfrwt beam="1">  1        2 0.41292771E+00 0.36753618E+03</pdfrwt>
<pdfrwt beam="2">  1       -2 0.28745457E-01 0.36753618E+03</pdfrwt>
<totfact> 0.34204646E+01</totfact>
</mgrwt>
</event>
<event>
 4    1  0.2202466E-008  0.8179549E+03  0.7818608E-02  0.9534386E-01
          2   -1    0    0  501    0  0.00000000000E+00  0.00000000000E+00  0.97657322579E+03  0.97657322579E+03  0.25500000000E-02 0. -1.
         -2   -1    0    0    0  501 -0.00000000000E+00 -0.00000000000E+00 -0.13179127528E+04  0.13179127528E+04  0.25500000000E-02 0.  1.
    8880022    1    1    2    0    0  0.79751583567E+03 -0.98117470846E+02 -0.96563792403E+03  0.12655065387E+04  0.15294330000E+03 0.  0.
    8880022    1    1    2    0    0 -0.79751583567E+03  0.98117470846E+02  0.62429839698E+03  0.10289794399E+04  0.15294330000E+03 0.  0.
<mgrwt>
<rscale>  0 0.81795489E+03</rscale>
<asrwt>0</asrwt>
<pdfrwt beam="1">  1        2 0.15024203E+00 0.81795489E+03</pdfrwt>
<pdfrwt beam="2">  1       -2 0.20275581E+00 0.81795489E+03</pdfrwt>
<totfact> 0.33762759E+00</totfact>
</mgrwt>
</event>
<event>
 4    1  0.2202466E-008  0.6609124E+03  0.7818608E-02  0.9786516E-01
         -2   -1    0    0    0  501 -0.00000000000E+00  0.00000000000E+00  0.89450318666E+03  0.89450318666E+03  0.25500000000E-02 0.  1.
          2   -1    0    0  501    0  0.00000000000E+00 -0.00000000000E+00 -0.75473985144E+03  0.75473985145E+03  0.25500000000E-02 0. -1.
    8880022    1    1    2    0    0  0.43899140995E+03 -0.46978732569E+03  0.55981613757E+03  0.86614049108E+03  0.15294330000E+03 0.  0.
    8880022    1    1    2    0    0 -0.43899140995E+03  0.46978732569E+03 -0.42005280236E+03  0.78310254703E+03  0.15294330000E+03 0.  0.
<mgrwt>
<rscale>  0 0.66091243E+03</rscale>
<asrwt>0</asrwt>
<pdfrwt beam="1">  1        2 0.11611382E+00 0.66091243E+03</pdfrwt>
<pdfrwt beam="2">  1       -2 0.13761587E+00 0.66091243E+03</pdfrwt>
<totfact> 0.14316140E+01</totfact>
</mgrwt>
</event>
<event>
 4    1  0.8627504E-008  0.1984400E+04  0.7818608E-02  0.8613949E-01
          2   -1    0    0  501    0  0.00000000000E+00  0.00000000000E+00  0.39732375588E+04  0.39732375588E+04  0.25500000000E-02 0. -1.
         -2   -1    0    0    0  501 -0.00000000000E+00 -0.00000000000E+00 -0.28935121621E+04  0.28935121621E+04  0.25500000000E-02 0.  1.
    8880022    1    1    2    0    0 -0.11780784661E+04  0.15895222277E+04  0.33238154431E+04  0.38711226456E+04  0.15294330000E+03 0.  0.
    8880022    1    1    2    0    0  0.11780784661E+04 -0.15895222277E+04 -0.22440900463E+04  0.29956270752E+04  0.15294330000E+03 0.  0.
<mgrwt>
<rscale>  0 0.19843995E+04</rscale>
<asrwt>0</asrwt>
<pdfrwt beam="1">  1        2 0.61126731E+00 0.19843995E+04</pdfrwt>
<pdfrwt beam="2">  1       -2 0.44515572E+00 0.19843995E+04</pdfrwt>
<totfact> 0.11834765E-03</totfact>
</mgrwt>
</event>
<event>
 4    1  0.2202466E-008  0.3030065E+03  0.7818608E-02  0.1083747E+00
         -2   -1    0    0    0  501 -0.00000000000E+00  0.00000000000E+00  0.17634581442E+04  0.17634581442E+04  0.25500000000E-02 0.  1.
          2   -1    0    0  501    0  0.00000000000E+00 -0.00000000000E+00 -0.17786439360E+04  0.17786439360E+04  0.25500000000E-02 0. -1.
    8880022    1    1    2    0    0 -0.19498808826E+03 -0.17435854858E+03  0.17373446927E+04  0.17635700985E+04  0.15294330000E+03 0.  0.
    8880022    1    1    2    0    0  0.19498808826E+03  0.17435854858E+03 -0.17525304844E+04  0.17785319817E+04  0.15294330000E+03 0. -1.
<mgrwt>
<rscale>  0 0.30300645E+03</rscale>
<asrwt>0</asrwt>
<pdfrwt beam="1">  1        2 0.27363753E+00 0.30300645E+03</pdfrwt>
<pdfrwt beam="2">  1       -2 0.27130125E+00 0.30300645E+03</pdfrwt>
<totfact> 0.52155948E-01</totfact>
</mgrwt>
</event>
<event>
 4    1  0.2202466E-008  0.1095680E+04  0.7818608E-02  0.9209412E-01
          2   -1    0    0  501    0  0.00000000000E+00  0.00000000000E+00  0.28452810626E+04  0.28452810626E+04  0.25500000000E-02 0. -1.
         -2   -1    0    0    0  501 -0.00000000000E+00 -0.00000000000E+00 -0.65328779877E+03  0.65328779878E+03  0.25500000000E-02 0.  1.
    8880022    1    1    2    0    0  0.61019242871E+03 -0.89710037612E+03  0.21369906096E+04  0.24015087765E+04  0.15294330000E+03 0.  0.
    8880022    1    1    2    0    0 -0.61019242871E+03  0.89710037612E+03  0.55002654210E+02  0.10970600849E+04  0.15294330000E+03 0.  1.
<mgrwt>
<rscale>  0 0.10956804E+04</rscale>
<asrwt>0</asrwt>
<pdfrwt beam="1">  1        2 0.43773555E+00 0.10956804E+04</pdfrwt>
<pdfrwt beam="2">  1       -2 0.10050582E+00 0.10956804E+04</pdfrwt>
<totfact> 0.17744534E+00</totfact>
</mgrwt>
</event>
<event>
 4    1  0.2202466E-008  0.7353204E+03  0.7818608E-02  0.9658666E-01
         -2   -1    0    0    0  501 -0.00000000000E+00  0.00000000000E+00  0.21245996034E+04  0.21245996034E+04  0.25500000000E-02 0.  1.
          2   -1    0    0  501    0  0.00000000000E+00 -0.00000000000E+00 -0.11634993136E+04  0.11634993136E+04  0.25500000000E-02 0. -1.
    8880022    1    1    2    0    0  0.71224757632E+03  0.10003927886E+03  0.19337161124E+04  0.20688049990E+04  0.15294330000E+03 0.  0.
    8880022    1    1    2    0    0 -0.71224757632E+03 -0.10003927886E+03 -0.97261582260E+03  0.12192939181E+04  0.15294330000E+03 0.  0.
<mgrwt>
<rscale>  0 0.73532042E+03</rscale>
<asrwt>0</asrwt>
<pdfrwt beam="1">  1        2 0.17899990E+00 0.73532042E+03</pdfrwt>
<pdfrwt beam="2">  1       -2 0.32686147E+00 0.73532042E+03</pdfrwt>
<totfact> 0.45812755E-01</totfact>
</mgrwt>
</event>
<event>
 4    1  0.2202466E-008  0.1472701E+04  0.7818608E-02  0.8902812E-01
         -2   -1    0    0    0  501 -0.00000000000E+00  0.00000000000E+00  0.11247495401E+04  0.11247495401E+04  0.25500000000E-02 0.  1.
          2   -1    0    0  501    0  0.00000000000E+00 -0.00000000000E+00 -0.27185733916E+04  0.27185733916E+04  0.25500000000E-02 0. -1.
    8880022    1    1    2    0    0  0.13177927210E+04  0.63943528301E+03  0.23917674125E+03  0.14919960802E+04  0.15294330000E+03 0.  0.
    8880022    1    1    2    0    0 -0.13177927210E+04 -0.63943528301E+03 -0.18330005927E+04  0.23513268515E+04  0.15294330000E+03 0.  0.
<mgrwt>
<rscale>  0 0.14727005E+04</rscale>
<asrwt>0</asrwt>
<pdfrwt beam="1">  1        2 0.41824206E+00 0.14727005E+04</pdfrwt>
<pdfrwt beam="2">  1       -2 0.17303839E+00 0.14727005E+04</pdfrwt>
<totfact> 0.49664113E-01</totfact>
</mgrwt>
</event>
<event>
 4    1  0.2202466E-008  0.3246901E+03  0.7818608E-02  0.1073511E+00
          2   -1    0    0  501    0  0.00000000000E+00  0.00000000000E+00  0.20688268340E+04  0.20688268340E+04  0.25500000000E-02 0. -1.
         -2   -1    0    0    0  501 -0.00000000000E+00 -0.00000000000E+00 -0.21720134620E+03  0.21720134622E+03  0.25500000000E-02 0.  1.
    8880022    1    1    2    0    0 -0.24277845257E+03  0.15195606103E+03 -0.74169326487E+02  0.33305369466E+03  0.15294330000E+03 0.  0.
    8880022    1    1    2    0    0  0.24277845257E+03 -0.15195606103E+03  0.19257948143E+04  0.19529744856E+04  0.15294330000E+03 0.  0.
<mgrwt>
<rscale>  0 0.32469012E+03</rscale>
<asrwt>0</asrwt>
<pdfrwt beam="1">  1        2 0.31828106E+00 0.32469012E+03</pdfrwt>
<pdfrwt beam="2">  1       -2 0.33415591E-01 0.32469012E+03</pdfrwt>
<totfact> 0.56963933E+01</totfact>
</mgrwt>
</event>
<event>
 4    1  0.2202466E-008  0.4994480E+03  0.7818608E-02  0.1013923E+00
          2   -1    0    0  501    0  0.00000000000E+00  0.00000000000E+00  0.79159764377E+03  0.79159764377E+03  0.25500000000E-02 0. -1.
         -2   -1    0    0    0  501 -0.00000000000E+00 -0.00000000000E+00 -0.93709220449E+03  0.93709220449E+03  0.25500000000E-02 0.  1.
    8880022    1    1    2    0    0 -0.24480622295E+03 -0.40758631581E+03 -0.77692352464E+03  0.92361166503E+03  0.15294330000E+03 0.  0.
    8880022    1    1    2    0    0  0.24480622295E+03  0.40758631581E+03  0.63142896391E+03  0.80507818323E+03  0.15294330000E+03 0. -1.
<mgrwt>
<rscale>  0 0.49944804E+03</rscale>
<asrwt>0</asrwt>
<pdfrwt beam="1">  1        2 0.12178425E+00 0.49944804E+03</pdfrwt>
<pdfrwt beam="2">  1       -2 0.14416803E+00 0.49944804E+03</pdfrwt>
<totfact> 0.12203410E+01</totfact>
</mgrwt>
</event>
<event>
 4    1  0.2202466E-008  0.8260585E+03  0.7818608E-02  0.9523046E-01
          2   -1    0    0  501    0  0.00000000000E+00  0.00000000000E+00  0.47354479435E+03  0.47354479435E+03  0.25500000000E-02 0. -1.
         -2   -1    0    0    0  501 -0.00000000000E+00 -0.00000000000E+00 -0.20422799967E+04  0.20422799967E+04  0.25500000000E-02 0.  1.
    8880022    1    1    2    0    0  0.30168970573E+03  0.75363403855E+03 -0.14669188907E+04  0.16835152591E+04  0.15294330000E+03 0.  0.
    8880022    1    1    2    0    0 -0.30168970573E+03 -0.75363403855E+03 -0.10181631157E+03  0.83230953192E+03  0.15294330000E+03 0.  0.
<mgrwt>
<rscale>  0 0.82605847E+03</rscale>
<asrwt>0</asrwt>
<pdfrwt beam="1">  1        2 0.72853046E-01 0.82605847E+03</pdfrwt>
<pdfrwt beam="2">  1       -2 0.31419692E+00 0.82605847E+03</pdfrwt>
<totfact> 0.17614680E+00</totfact>
</mgrwt>
</event>
<event>
 4    1  0.2202466E-008  0.4383074E+03  0.7818608E-02  0.1031267E+00
         -2   -1    0    0    0  501 -0.00000000000E+00  0.00000000000E+00  0.51044732665E+03  0.51044732665E+03  0.25500000000E-02 0.  1.
          2   -1    0    0  501    0  0.00000000000E+00 -0.00000000000E+00 -0.13300228139E+04  0.13300228139E+04  0.25500000000E-02 0. -1.
    8880022    1    1    2    0    0  0.28259299668E+03  0.29809883178E+03  0.36944291111E+03  0.57323767572E+03  0.15294330000E+03 0.  0.
    8880022    1    1    2    0    0 -0.28259299668E+03 -0.29809883178E+03 -0.11890183983E+04  0.12672324648E+04  0.15294330000E+03 0.  0.
<mgrwt>
<rscale>  0 0.43830739E+03</rscale>
<asrwt>0</asrwt>
<pdfrwt beam="1">  1        2 0.20461889E+00 0.43830739E+03</pdfrwt>
<pdfrwt beam="2">  1       -2 0.78530358E-01 0.43830739E+03</pdfrwt>
<totfact> 0.24462063E+01</totfact>
</mgrwt>
</event>
<event>
 4    1  0.2202466E-008  0.9139016E+03  0.7818608E-02  0.9408369E-01
         -2   -1    0    0    0  501 -0.00000000000E+00  0.00000000000E+00  0.69751098050E+03  0.69751098050E+03  0.25500000000E-02 0.  1.
          2   -1    0    0  501    0  0.00000000000E+00 -0.00000000000E+00 -0.26372363315E+04  0.26372363315E+04  0.25500000000E-02 0. -1.
    8880022    1    1    2    0    0 -0.48653481378E+03 -0.75835894866E+03 -0.22018647044E+04  0.23839933409E+04  0.15294330000E+03 0.  0.
    8880022    1    1    2    0    0  0.48653481378E+03  0.75835894866E+03  0.26213935335E+03  0.95075397113E+03  0.15294330000E+03 0.  0.
<mgrwt>
<rscale>  0 0.91390157E+03</rscale>
<asrwt>0</asrwt>
<pdfrwt beam="1">  1        2 0.40572866E+00 0.91390157E+03</pdfrwt>
<pdfrwt beam="2">  1       -2 0.10730938E+00 0.91390157E+03</pdfrwt>
<totfact> 0.20674005E+00</totfact>
</mgrwt>
</event>
<event>
 4    1  0.2202466E-008  0.1080901E+04  0.7818608E-02  0.9224010E-01
          2   -1    0    0  501    0  0.00000000000E+00  0.00000000000E+00  0.16490404254E+04  0.16490404254E+04  0.25500000000E-02 0. -1.
         -2   -1    0    0    0  501 -0.00000000000E+00 -0.00000000000E+00 -0.11485165392E+04  0.11485165392E+04  0.25500000000E-02 0.  1.
    8880022    1    1    2    0    0  0.10483189955E+04  0.21443380578E+03  0.11160557836E+04  0.15536816722E+04  0.15294330000E+03 0.  0.
    8880022    1    1    2    0    0 -0.10483189955E+04 -0.21443380578E+03 -0.61553189746E+03  0.12438752924E+04  0.15294330000E+03 0.  0.
<mgrwt>
<rscale>  0 0.10809007E+04</rscale>
<asrwt>0</asrwt>
<pdfrwt beam="1">  1        2 0.25369852E+00 0.10809007E+04</pdfrwt>
<pdfrwt beam="2">  1       -2 0.17669485E+00 0.10809007E+04</pdfrwt>
<totfact> 0.19691545E+00</totfact>
</mgrwt>
</event>
<event>
 4    1  0.2202466E-008  0.9515078E+03  0.7818608E-02  0.9363390E-01
         -2   -1    0    0    0  501 -0.00000000000E+00  0.00000000000E+00  0.61394139376E+03  0.61394139376E+03  0.25500000000E-02 0.  1.
          2   -1    0    0  501    0  0.00000000000E+00 -0.00000000000E+00 -0.21496551182E+04  0.21496551182E+04  0.25500000000E-02 0. -1.
    8880022    1    1    2    0    0  0.34808542943E+03 -0.87224534314E+03  0.64340227040E+01  0.95152953421E+03  0.15294330000E+03 0.  0.
    8880022    1    1    2    0    0 -0.34808542943E+03  0.87224534314E+03 -0.15421477471E+04  0.18120669777E+04  0.15294330000E+03 0.  0.
<mgrwt>
<rscale>  0 0.95150778E+03</rscale>
<asrwt>0</asrwt>
<pdfrwt beam="1">  1        2 0.33071617E+00 0.95150778E+03</pdfrwt>
<pdfrwt beam="2">  1       -2 0.94452523E-01 0.95150778E+03</pdfrwt>
<totfact> 0.52549790E+00</totfact>
</mgrwt>
</event>
<event>
 4    1  0.2202466E-008  0.1074947E+04  0.7818608E-02  0.9229960E-01
          2   -1    0    0  501    0  0.00000000000E+00  0.00000000000E+00  0.17957546564E+04  0.17957546564E+04  0.25500000000E-02 0. -1.
         -2   -1    0    0    0  501 -0.00000000000E+00 -0.00000000000E+00 -0.14123298451E+04  0.14123298451E+04  0.25500000000E-02 0.  1.
    8880022    1    1    2    0    0  0.74591004409E+02 -0.10613937061E+04  0.13752216858E+04  0.17454932700E+04  0.15294330000E+03 0.  0.
    8880022    1    1    2    0    0 -0.74591004409E+02  0.10613937061E+04 -0.99179687449E+03  0.14625912316E+04  0.15294330000E+03 0.  0.
<mgrwt>
<rscale>  0 0.10749475E+04</rscale>
<asrwt>0</asrwt>
<pdfrwt beam="1">  1        2 0.27626994E+00 0.10749475E+04</pdfrwt>
<pdfrwt beam="2">  1       -2 0.21728152E+00 0.10749475E+04</pdfrwt>
<totfact> 0.88035352E-01</totfact>
</mgrwt>
</event>
<event>
 4    1  0.2202466E-008  0.7621768E+03  0.7818608E-02  0.9616438E-01
         -2   -1    0    0    0  501 -0.00000000000E+00  0.00000000000E+00  0.11525935771E+04  0.11525935771E+04  0.25500000000E-02 0.  1.
          2   -1    0    0  501    0  0.00000000000E+00 -0.00000000000E+00 -0.11632336201E+04  0.11632336201E+04  0.25500000000E-02 0. -1.
    8880022    1    1    2    0    0  0.35344651450E+03  0.65772130365E+03  0.86636698309E+03  0.11539086421E+04  0.15294330000E+03 0.  0.
    8880022    1    1    2    0    0 -0.35344651450E+03 -0.65772130365E+03 -0.87700702604E+03  0.11619185551E+04  0.15294330000E+03 0.  0.
<mgrwt>
<rscale>  0 0.76217675E+03</rscale>
<asrwt>0</asrwt>
<pdfrwt beam="1">  1        2 0.17895902E+00 0.76217675E+03</pdfrwt>
<pdfrwt beam="2">  1       -2 0.17732209E+00 0.76217675E+03</pdfrwt>
<totfact> 0.38532853E+00</totfact>
</mgrwt>
</event>
<event>
 4    1  0.2202466E-008  0.3158677E+03  0.7818608E-02  0.1077567E+00
          2   -1    0    0  501    0  0.00000000000E+00  0.00000000000E+00  0.23766566945E+04  0.23766566945E+04  0.25500000000E-02 0. -1.
         -2   -1    0    0    0  501 -0.00000000000E+00 -0.00000000000E+00 -0.81443748529E+03  0.81443748530E+03  0.25500000000E-02 0.  1.
    8880022    1    1    2    0    0 -0.26553704265E+03 -0.76621545783E+02 -0.77277225342E+03  0.83483494834E+03  0.15294330000E+03 0.  0.
    8880022    1    1    2    0    0  0.26553704265E+03  0.76621545783E+02  0.23349914627E+04  0.23562592315E+04  0.15294330000E+03 0.  0.
<mgrwt>
<rscale>  0 0.31586775E+03</rscale>
<asrwt>0</asrwt>
<pdfrwt beam="1">  1        2 0.36563948E+00 0.31586775E+03</pdfrwt>
<pdfrwt beam="2">  1       -2 0.12529808E+00 0.31586775E+03</pdfrwt>
<totfact> 0.23290956E+00</totfact>
</mgrwt>
</event>
<event>
 4    1  0.2202466E-008  0.5611091E+03  0.7818608E-02  0.9989548E-01
         -2   -1    0    0    0  501 -0.00000000000E+00  0.00000000000E+00  0.11531986939E+04  0.11531986939E+04  0.25500000000E-02 0.  1.
          2   -1    0    0  501    0  0.00000000000E+00 -0.00000000000E+00 -0.54803281095E+04  0.54803281095E+04  0.25500000000E-02 0. -1.
    8880022    1    1    2    0    0  0.38102587755E+03  0.38245393261E+03  0.10695264928E+04  0.12077790782E+04  0.15294330000E+03 0.  0.
    8880022    1    1    2    0    0 -0.38102587755E+03 -0.38245393261E+03 -0.53966559084E+04  0.54257477252E+04  0.15294330000E+03 0.  0.
<mgrwt>
<rscale>  0 0.56110907E+03</rscale>
<asrwt>0</asrwt>
<pdfrwt beam="1">  1        2 0.84312739E+00 0.56110907E+03</pdfrwt>
<pdfrwt beam="2">  1       -2 0.17741519E+00 0.56110907E+03</pdfrwt>
<totfact> 0.16856682E-03</totfact>
</mgrwt>
</event>
<event>
 4    1  0.2202466E-008  0.5089448E+03  0.7818608E-02  0.1011470E+00
         -2   -1    0    0    0  501 -0.00000000000E+00  0.00000000000E+00  0.64748417956E+03  0.64748417956E+03  0.25500000000E-02 0.  1.
          2   -1    0    0  501    0  0.00000000000E+00 -0.00000000000E+00 -0.89817237502E+03  0.89817237502E+03  0.25500000000E-02 0. -1.
    8880022    1    1    2    0    0 -0.43448367373E+03 -0.21646496919E+03  0.45019127723E+03  0.67948288038E+03  0.15294330000E+03 0.  0.
    8880022    1    1    2    0    0  0.43448367373E+03  0.21646496919E+03 -0.70087947269E+03  0.86617367420E+03  0.15294330000E+03 0. -1.
<mgrwt>
<rscale>  0 0.50894479E+03</rscale>
<asrwt>0</asrwt>
<pdfrwt beam="1">  1        2 0.13818037E+00 0.50894479E+03</pdfrwt>
<pdfrwt beam="2">  1       -2 0.99612951E-01 0.50894479E+03</pdfrwt>
<totfact> 0.25595845E+01</totfact>
</mgrwt>
</event>
<event>
 4    1  0.2202466E-008  0.1502858E+04  0.7818608E-02  0.8882555E-01
         -2   -1    0    0    0  501 -0.00000000000E+00  0.00000000000E+00  0.15411149621E+04  0.15411149621E+04  0.25500000000E-02 0.  1.
          2   -1    0    0  501    0  0.00000000000E+00 -0.00000000000E+00 -0.22604809214E+04  0.22604809214E+04  0.25500000000E-02 0. -1.
    8880022    1    1    2    0    0 -0.78387382006E+03  0.12730797629E+04 -0.14868806212E+04  0.21140945776E+04  0.15294330000E+03 0.  0.
    8880022    1    1    2    0    0  0.78387382006E+03 -0.12730797629E+04  0.76751466187E+03  0.16875013060E+04  0.15294330000E+03 0.  0.
<mgrwt>
<rscale>  0 0.15028579E+04</rscale>
<asrwt>0</asrwt>
<pdfrwt beam="1">  1        2 0.34776630E+00 0.15028579E+04</pdfrwt>
<pdfrwt beam="2">  1       -2 0.23709461E+00 0.15028579E+04</pdfrwt>
<totfact> 0.34545213E-01</totfact>
</mgrwt>
</event>
<event>
 4    1  0.2202466E-008  0.1766216E+04  0.7818608E-02  0.8724474E-01
         -2   -1    0    0    0  501 -0.00000000000E+00  0.00000000000E+00  0.19382415222E+04  0.19382415222E+04  0.25500000000E-02 0.  1.
          2   -1    0    0  501    0  0.00000000000E+00 -0.00000000000E+00 -0.28810846337E+04  0.28810846337E+04  0.25500000000E-02 0. -1.
    8880022    1    1    2    0    0  0.10632801289E+04  0.14019857975E+04  0.11294553315E+04  0.20964707982E+04  0.15294330000E+03 0.  0.
    8880022    1    1    2    0    0 -0.10632801289E+04 -0.14019857975E+04 -0.20722984430E+04  0.27228553577E+04  0.15294330000E+03 0.  0.
<mgrwt>
<rscale>  0 0.17662164E+04</rscale>
<asrwt>0</asrwt>
<pdfrwt beam="1">  1        2 0.44324379E+00 0.17662164E+04</pdfrwt>
<pdfrwt beam="2">  1       -2 0.29819100E+00 0.17662164E+04</pdfrwt>
<totfact> 0.61112100E-02</totfact>
</mgrwt>
</event>
<event>
 4    1  0.2202466E-008  0.9221009E+03  0.7818608E-02  0.9398368E-01
         -2   -1    0    0    0  501 -0.00000000000E+00  0.00000000000E+00  0.15662568599E+04  0.15662568599E+04  0.25500000000E-02 0.  1.
          2   -1    0    0  501    0  0.00000000000E+00 -0.00000000000E+00 -0.68018395310E+03  0.68018395311E+03  0.25500000000E-02 0. -1.
    8880022    1    1    2    0    0 -0.90042915840E+03 -0.12690848695E+03 -0.61639881955E+02  0.92415883993E+03  0.15294330000E+03 0.  0.
    8880022    1    1    2    0    0  0.90042915840E+03  0.12690848695E+03  0.94771278877E+03  0.13222819731E+04  0.15294330000E+03 0.  0.
<mgrwt>
<rscale>  0 0.92210091E+03</rscale>
<asrwt>0</asrwt>
<pdfrwt beam="1">  1        2 0.10464369E+00 0.92210091E+03</pdfrwt>
<pdfrwt beam="2">  1       -2 0.24096259E+00 0.92210091E+03</pdfrwt>
<totfact> 0.31227431E+00</totfact>
</mgrwt>
</event>
<event>
 4    1  0.2202466E-008  0.9423103E+03  0.7818608E-02  0.9374184E-01
         -2   -1    0    0    0  501 -0.00000000000E+00  0.00000000000E+00  0.11634742121E+04  0.11634742121E+04  0.25500000000E-02 0.  1.
          2   -1    0    0  501    0  0.00000000000E+00 -0.00000000000E+00 -0.14429811409E+04  0.14429811409E+04  0.25500000000E-02 0. -1.
    8880022    1    1    2    0    0 -0.61176031987E+03  0.70021884298E+03  0.75474288417E+03  0.12073050945E+04  0.15294330000E+03 0.  0.
    8880022    1    1    2    0    0  0.61176031987E+03 -0.70021884298E+03 -0.10342498130E+04  0.13991502584E+04  0.15294330000E+03 0.  0.
<mgrwt>
<rscale>  0 0.94231034E+03</rscale>
<asrwt>0</asrwt>
<pdfrwt beam="1">  1        2 0.22199710E+00 0.94231034E+03</pdfrwt>
<pdfrwt beam="2">  1       -2 0.17899603E+00 0.94231034E+03</pdfrwt>
<totfact> 0.25189309E+00</totfact>
</mgrwt>
</event>
<event>
 4    1  0.2202466E-008  0.5559339E+03  0.7818608E-02  0.1000130E+00
          2   -1    0    0  501    0  0.00000000000E+00  0.00000000000E+00  0.34787236166E+03  0.34787236167E+03  0.25500000000E-02 0. -1.
         -2   -1    0    0    0  501 -0.00000000000E+00 -0.00000000000E+00 -0.15123351307E+04  0.15123351307E+04  0.25500000000E-02 0.  1.
    8880022    1    1    2    0    0  0.30049478499E+03  0.44201106724E+03 -0.11796301771E+04  0.13040666804E+04  0.15294330000E+03 0.  1.
    8880022    1    1    2    0    0 -0.30049478499E+03 -0.44201106724E+03  0.15167408054E+02  0.55614081190E+03  0.15294330000E+03 0.  0.
<mgrwt>
<rscale>  0 0.55593395E+03</rscale>
<asrwt>0</asrwt>
<pdfrwt beam="1">  1        2 0.53518826E-01 0.55593395E+03</pdfrwt>
<pdfrwt beam="2">  1       -2 0.23266694E+00 0.55593395E+03</pdfrwt>
<totfact> 0.80376450E+00</totfact>
</mgrwt>
</event>
<event>
 4    1  0.2202466E-008  0.3310743E+03  0.7818608E-02  0.1070663E+00
         -2   -1    0    0    0  501 -0.00000000000E+00  0.00000000000E+00  0.74406561289E+03  0.74406561289E+03  0.25500000000E-02 0.  1.
          2   -1    0    0  501    0  0.00000000000E+00 -0.00000000000E+00 -0.73926424346E+03  0.73926424347E+03  0.25500000000E-02 0. -1.
    8880022    1    1    2    0    0  0.19326518440E+03 -0.22105904405E+03 -0.66126755452E+03  0.73951670984E+03  0.15294330000E+03 0.  0.
    8880022    1    1    2    0    0 -0.19326518440E+03  0.22105904405E+03  0.66606892395E+03  0.74381314651E+03  0.15294330000E+03 0.  1.
<mgrwt>
<rscale>  0 0.33107429E+03</rscale>
<asrwt>0</asrwt>
<pdfrwt beam="1">  1        2 0.11373296E+00 0.33107429E+03</pdfrwt>
<pdfrwt beam="2">  1       -2 0.11447163E+00 0.33107429E+03</pdfrwt>
<totfact> 0.24441906E+01</totfact>
</mgrwt>
</event>
<event>
 4    1  0.2202466E-008  0.1377946E+04  0.7818608E-02  0.8969939E-01
         -2   -1    0    0    0  501 -0.00000000000E+00  0.00000000000E+00  0.16240940756E+04  0.16240940756E+04  0.25500000000E-02 0.  1.
          2   -1    0    0  501    0  0.00000000000E+00 -0.00000000000E+00 -0.12844096033E+04  0.12844096033E+04  0.25500000000E-02 0. -1.
    8880022    1    1    2    0    0  0.13678401133E+04  0.66014737258E+02 -0.26588183798E+03  0.14033635758E+04  0.15294330000E+03 0. -1.
    8880022    1    1    2    0    0 -0.13678401133E+04 -0.66014737258E+02  0.60556631027E+03  0.15051401032E+04  0.15294330000E+03 0.  0.
<mgrwt>
<rscale>  0 0.13779464E+04</rscale>
<asrwt>0</asrwt>
<pdfrwt beam="1">  1        2 0.19760148E+00 0.13779464E+04</pdfrwt>
<pdfrwt beam="2">  1       -2 0.24986063E+00 0.13779464E+04</pdfrwt>
<totfact> 0.10369736E+00</totfact>
</mgrwt>
</event>
<event>
 4    1  0.2202466E-008  0.9329695E+03  0.7818608E-02  0.9385281E-01
         -2   -1    0    0    0  501 -0.00000000000E+00  0.00000000000E+00  0.14462982949E+04  0.14462982949E+04  0.25500000000E-02 0.  1.
          2   -1    0    0  501    0  0.00000000000E+00 -0.00000000000E+00 -0.18901480438E+04  0.18901480438E+04  0.25500000000E-02 0. -1.
    8880022    1    1    2    0    0  0.24851321512E+02 -0.92001246166E+03 -0.15991883458E+04  0.18514414752E+04  0.15294330000E+03 0.  0.
    8880022    1    1    2    0    0 -0.24851321512E+02  0.92001246166E+03  0.11553385969E+04  0.14850048634E+04  0.15294330000E+03 0.  0.
<mgrwt>
<rscale>  0 0.93296954E+03</rscale>
<asrwt>0</asrwt>
<pdfrwt beam="1">  1        2 0.29079201E+00 0.93296954E+03</pdfrwt>
<pdfrwt beam="2">  1       -2 0.22250743E+00 0.93296954E+03</pdfrwt>
<totfact> 0.73995305E-01</totfact>
</mgrwt>
</event>
<event>
 4    1  0.2202466E-008  0.6306039E+03  0.7818608E-02  0.9843871E-01
          2   -1    0    0  501    0  0.00000000000E+00  0.00000000000E+00  0.13256718324E+04  0.13256718324E+04  0.25500000000E-02 0. -1.
         -2   -1    0    0    0  501 -0.00000000000E+00 -0.00000000000E+00 -0.43690162466E+03  0.43690162467E+03  0.25500000000E-02 0.  1.
    8880022    1    1    2    0    0 -0.48614460063E+03 -0.37139332802E+03  0.93776101143E+03  0.11300694423E+04  0.15294330000E+03 0.  0.
    8880022    1    1    2    0    0  0.48614460063E+03  0.37139332802E+03 -0.48990803722E+02  0.63250401476E+03  0.15294330000E+03 0.  0.
<mgrwt>
<rscale>  0 0.63060386E+03</rscale>
<asrwt>0</asrwt>
<pdfrwt beam="1">  1        2 0.20394951E+00 0.63060386E+03</pdfrwt>
<pdfrwt beam="2">  1       -2 0.67215636E-01 0.63060386E+03</pdfrwt>
<totfact> 0.33555981E+01</totfact>
</mgrwt>
</event>
<event>
 4    1  0.2202466E-008  0.6463146E+03  0.7818608E-02  0.9813719E-01
          2   -1    0    0  501    0  0.00000000000E+00  0.00000000000E+00  0.40243175619E+04  0.40243175619E+04  0.25500000000E-02 0. -1.
         -2   -1    0    0    0  501 -0.00000000000E+00 -0.00000000000E+00 -0.78038444702E+03  0.78038444702E+03  0.25500000000E-02 0.  1.
    8880022    1    1    2    0    0 -0.61036163502E+03 -0.14761314111E+03 -0.61491653843E+03  0.89210143324E+03  0.15294330000E+03 0.  0.
    8880022    1    1    2    0    0  0.61036163502E+03  0.14761314111E+03  0.38588496533E+04  0.39126005757E+04  0.15294330000E+03 0.  0.
<mgrwt>
<rscale>  0 0.64631464E+03</rscale>
<asrwt>0</asrwt>
<pdfrwt beam="1">  1        2 0.61912580E+00 0.64631464E+03</pdfrwt>
<pdfrwt beam="2">  1       -2 0.12005914E+00 0.64631464E+03</pdfrwt>
<totfact> 0.19979489E-01</totfact>
</mgrwt>
</event>
<event>
 4    1  0.2202466E-008  0.1884136E+03  0.7818608E-02  0.1159900E+00
          2   -1    0    0  501    0  0.00000000000E+00  0.00000000000E+00  0.23731531894E+03  0.23731531895E+03  0.25500000000E-02 0. -1.
         -2   -1    0    0    0  501 -0.00000000000E+00 -0.00000000000E+00 -0.16446708912E+03  0.16446708914E+03  0.25500000000E-02 0.  1.
    8880022    1    1    2    0    0 -0.10786667838E+03  0.21743924058E+02  0.96846868489E+02  0.21184661312E+03  0.15294330000E+03 0.  0.
    8880022    1    1    2    0    0  0.10786667838E+03 -0.21743924058E+02 -0.23998638667E+02  0.18993579497E+03  0.15294330000E+03 0.  0.
<mgrwt>
<rscale>  0 0.18841357E+03</rscale>
<asrwt>0</asrwt>
<pdfrwt beam="1">  1        2 0.36510049E-01 0.18841357E+03</pdfrwt>
<pdfrwt beam="2">  1       -2 0.25302629E-01 0.18841357E+03</pdfrwt>
<totfact> 0.19391299E+03</totfact>
</mgrwt>
</event>
<event>
 4    1  0.2202466E-008  0.1823645E+03  0.7818608E-02  0.1165534E+00
         -2   -1    0    0    0  501 -0.00000000000E+00  0.00000000000E+00  0.16675755863E+03  0.16675755865E+03  0.25500000000E-02 0.  1.
          2   -1    0    0  501    0  0.00000000000E+00 -0.00000000000E+00 -0.10081613389E+04  0.10081613389E+04  0.25500000000E-02 0. -1.
    8880022    1    1    2    0    0  0.40579629996E+02  0.90655611753E+02  0.10545403297E+03  0.21065932782E+03  0.15294330000E+03 0.  1.
    8880022    1    1    2    0    0 -0.40579629996E+02 -0.90655611753E+02 -0.94685781328E+03  0.96425956977E+03  0.15294330000E+03 0.  0.
<mgrwt>
<rscale>  0 0.18236447E+03</rscale>
<asrwt>0</asrwt>
<pdfrwt beam="1">  1        2 0.15510174E+00 0.18236447E+03</pdfrwt>
<pdfrwt beam="2">  1       -2 0.25655010E-01 0.18236447E+03</pdfrwt>
<totfact> 0.35893544E+02</totfact>
</mgrwt>
</event>
<event>
 4    1  0.2202466E-008  0.1294748E+04  0.7818608E-02  0.9033740E-01
         -2   -1    0    0    0  501 -0.00000000000E+00  0.00000000000E+00  0.18319643887E+04  0.18319643887E+04  0.25500000000E-02 0.  1.
          2   -1    0    0  501    0  0.00000000000E+00 -0.00000000000E+00 -0.14161578770E+04  0.14161578770E+04  0.25500000000E-02 0. -1.
    8880022    1    1    2    0    0  0.12120044144E+04  0.42898319459E+03 -0.75815680494E+03  0.15003915074E+04  0.15294330000E+03 0.  0.
    8880022    1    1    2    0    0 -0.12120044144E+04 -0.42898319459E+03  0.11739633166E+04  0.17477307583E+04  0.15294330000E+03 0.  0.
<mgrwt>
<rscale>  0 0.12947482E+04</rscale>
<asrwt>0</asrwt>
<pdfrwt beam="1">  1        2 0.21787044E+00 0.12947482E+04</pdfrwt>
<pdfrwt beam="2">  1       -2 0.28184067E+00 0.12947482E+04</pdfrwt>
<totfact> 0.55971013E-01</totfact>
</mgrwt>
</event>
<event>
 4    1  0.2202466E-008  0.1426250E+04  0.7818608E-02  0.8935033E-01
          2   -1    0    0  501    0  0.00000000000E+00  0.00000000000E+00  0.30737715272E+04  0.30737715272E+04  0.25500000000E-02 0. -1.
         -2   -1    0    0    0  501 -0.00000000000E+00 -0.00000000000E+00 -0.14492529680E+04  0.14492529680E+04  0.25500000000E-02 0.  1.
    8880022    1    1    2    0    0  0.13074732081E+04  0.54891884325E+03 -0.85476548244E+03  0.16627729157E+04  0.15294330000E+03 0.  0.
    8880022    1    1    2    0    0 -0.13074732081E+04 -0.54891884325E+03  0.24792840416E+04  0.28602515795E+04  0.15294330000E+03 0.  0.
<mgrwt>
<rscale>  0 0.14262502E+04</rscale>
<asrwt>0</asrwt>
<pdfrwt beam="1">  1        2 0.47288793E+00 0.14262502E+04</pdfrwt>
<pdfrwt beam="2">  1       -2 0.22296199E+00 0.14262502E+04</pdfrwt>
<totfact> 0.14085743E-01</totfact>
</mgrwt>
</event>
<event>
 4    1  0.2202466E-008  0.1386197E+04  0.7818608E-02  0.8963871E-01
         -2   -1    0    0    0  501 -0.00000000000E+00  0.00000000000E+00  0.10247896294E+04  0.10247896294E+04  0.25500000000E-02 0.  1.
          2   -1    0    0  501    0  0.00000000000E+00 -0.00000000000E+00 -0.24510101586E+04  0.24510101586E+04  0.25500000000E-02 0. -1.
    8880022    1    1    2    0    0 -0.13753020688E+04  0.81814152136E+02  0.12934149143E+03  0.13922177309E+04  0.15294330000E+03 0.  0.
    8880022    1    1    2    0    0  0.13753020688E+04 -0.81814152136E+02 -0.15555620207E+04  0.20835820572E+04  0.15294330000E+03 0.  0.
<mgrwt>
<rscale>  0 0.13861966E+04</rscale>
<asrwt>0</asrwt>
<pdfrwt beam="1">  1        2 0.37707848E+00 0.13861966E+04</pdfrwt>
<pdfrwt beam="2">  1       -2 0.15765994E+00 0.13861966E+04</pdfrwt>
<totfact> 0.93059796E-01</totfact>
</mgrwt>
</event>
<event>
 4    1  0.2202466E-008  0.3656296E+03  0.7818608E-02  0.1056377E+00
         -2   -1    0    0    0  501 -0.00000000000E+00  0.00000000000E+00  0.18881337284E+04  0.18881337284E+04  0.25500000000E-02 0.  1.
          2   -1    0    0  501    0  0.00000000000E+00 -0.00000000000E+00 -0.84371085810E+02  0.84371085848E+02  0.25500000000E-02 0. -1.
    8880022    1    1    2    0    0 -0.29751216707E+03 -0.14758010837E+03  0.12973888894E+04  0.13479254287E+04  0.15294330000E+03 0.  0.
    8880022    1    1    2    0    0  0.29751216707E+03  0.14758010837E+03  0.50637375322E+03  0.62457938559E+03  0.15294330000E+03 0.  0.
<mgrwt>
<rscale>  0 0.36562964E+03</rscale>
<asrwt>0</asrwt>
<pdfrwt beam="1">  1        2 0.12980167E-01 0.36562964E+03</pdfrwt>
<pdfrwt beam="2">  1       -2 0.29048211E+00 0.36562964E+03</pdfrwt>
<totfact> 0.18942618E+01</totfact>
</mgrwt>
</event>
<event>
 4    1  0.2202466E-008  0.9822416E+03  0.7818608E-02  0.9328239E-01
         -2   -1    0    0    0  501 -0.00000000000E+00  0.00000000000E+00  0.15047177145E+04  0.15047177145E+04  0.25500000000E-02 0.  1.
          2   -1    0    0  501    0  0.00000000000E+00 -0.00000000000E+00 -0.14785592242E+04  0.14785592242E+04  0.25500000000E-02 0. -1.
    8880022    1    1    2    0    0 -0.47529405955E+03 -0.84587383239E+03 -0.11094680827E+04  0.14817955537E+04  0.15294330000E+03 0.  0.
    8880022    1    1    2    0    0  0.47529405955E+03  0.84587383239E+03  0.11356265730E+04  0.15014813850E+04  0.15294330000E+03 0.  0.
<mgrwt>
<rscale>  0 0.98224164E+03</rscale>
<asrwt>0</asrwt>
<pdfrwt beam="1">  1        2 0.22747065E+00 0.98224164E+03</pdfrwt>
<pdfrwt beam="2">  1       -2 0.23149503E+00 0.98224164E+03</pdfrwt>
<totfact> 0.10907106E+00</totfact>
</mgrwt>
</event>
<event>
 4    1  0.2202466E-008  0.8991521E+03  0.7818608E-02  0.9426642E-01
         -2   -1    0    0    0  501 -0.00000000000E+00  0.00000000000E+00  0.15343404422E+04  0.15343404422E+04  0.25500000000E-02 0.  1.
          2   -1    0    0  501    0  0.00000000000E+00 -0.00000000000E+00 -0.15680878895E+04  0.15680878895E+04  0.25500000000E-02 0. -1.
    8880022    1    1    2    0    0 -0.63427922021E+03 -0.61868626436E+03 -0.12808734222E+04  0.15649636416E+04  0.15294330000E+03 0.  0.
    8880022    1    1    2    0    0  0.63427922021E+03  0.61868626436E+03  0.12471259749E+04  0.15374646900E+04  0.15294330000E+03 0.  0.
<mgrwt>
<rscale>  0 0.89915209E+03</rscale>
<asrwt>0</asrwt>
<pdfrwt beam="1">  1        2 0.24124429E+00 0.89915209E+03</pdfrwt>
<pdfrwt beam="2">  1       -2 0.23605237E+00 0.89915209E+03</pdfrwt>
<totfact> 0.92252849E-01</totfact>
</mgrwt>
</event>
<event>
 4    1  0.2202466E-008  0.8365464E+03  0.7818608E-02  0.9508574E-01
         -2   -1    0    0    0  501 -0.00000000000E+00  0.00000000000E+00  0.49951969188E+03  0.49951969189E+03  0.25500000000E-02 0.  1.
          2   -1    0    0  501    0  0.00000000000E+00 -0.00000000000E+00 -0.17608402809E+04  0.17608402809E+04  0.25500000000E-02 0. -1.
    8880022    1    1    2    0    0 -0.33271185953E+03 -0.75214427576E+03 -0.11972800759E+03  0.84507079103E+03  0.15294330000E+03 0.  0.
    8880022    1    1    2    0    0  0.33271185953E+03  0.75214427576E+03 -0.11415925814E+04  0.14152891818E+04  0.15294330000E+03 0.  0.
<mgrwt>
<rscale>  0 0.83654638E+03</rscale>
<asrwt>0</asrwt>
<pdfrwt beam="1">  1        2 0.27089850E+00 0.83654638E+03</pdfrwt>
<pdfrwt beam="2">  1       -2 0.76849184E-01 0.83654638E+03</pdfrwt>
<totfact> 0.13969057E+01</totfact>
</mgrwt>
</event>
<event>
 4    1  0.2202466E-008  0.2970458E+03  0.7818608E-02  0.1086727E+00
         -2   -1    0    0    0  501 -0.00000000000E+00  0.00000000000E+00  0.68390119178E+03  0.68390119178E+03  0.25500000000E-02 0.  1.
          2   -1    0    0  501    0  0.00000000000E+00 -0.00000000000E+00 -0.18800541042E+04  0.18800541042E+04  0.25500000000E-02 0. -1.
    8880022    1    1    2    0    0  0.25024122196E+03 -0.47157895566E+02 -0.18352844469E+04  0.18591678758E+04  0.15294330000E+03 0. -1.
    8880022    1    1    2    0    0 -0.25024122196E+03  0.47157895566E+02  0.63913153448E+03  0.70478742020E+03  0.15294330000E+03 0.  0.
<mgrwt>
<rscale>  0 0.29704577E+03</rscale>
<asrwt>0</asrwt>
<pdfrwt beam="1">  1        2 0.28923909E+00 0.29704577E+03</pdfrwt>
<pdfrwt beam="2">  1       -2 0.10521557E+00 0.29704577E+03</pdfrwt>
<totfact> 0.65876749E+00</totfact>
</mgrwt>
</event>
<event>
 4    1  0.2202466E-008  0.7104421E+03  0.7818608E-02  0.9699540E-01
          2   -1    0    0  501    0  0.00000000000E+00  0.00000000000E+00  0.23170189913E+04  0.23170189913E+04  0.25500000000E-02 0. -1.
         -2   -1    0    0    0  501 -0.00000000000E+00 -0.00000000000E+00 -0.26544847140E+03  0.26544847142E+03  0.25500000000E-02 0.  1.
    8880022    1    1    2    0    0 -0.68392416108E+03 -0.11655072236E+03  0.47892120783E+03  0.85679256843E+03  0.15294330000E+03 0.  0.
    8880022    1    1    2    0    0  0.68392416108E+03  0.11655072236E+03  0.15726493120E+04  0.17256748942E+04  0.15294330000E+03 0.  0.
<mgrwt>
<rscale>  0 0.71044210E+03</rscale>
<asrwt>0</asrwt>
<pdfrwt beam="1">  1        2 0.35646446E+00 0.71044210E+03</pdfrwt>
<pdfrwt beam="2">  1       -2 0.40838226E-01 0.71044210E+03</pdfrwt>
<totfact> 0.26333351E+01</totfact>
</mgrwt>
</event>
<event>
 4    1  0.2202466E-008  0.4972078E+03  0.7818608E-02  0.1014510E+00
          2   -1    0    0  501    0  0.00000000000E+00  0.00000000000E+00  0.95886990877E+03  0.95886990878E+03  0.25500000000E-02 0. -1.
         -2   -1    0    0    0  501 -0.00000000000E+00 -0.00000000000E+00 -0.19743451251E+04  0.19743451251E+04  0.25500000000E-02 0.  1.
    8880022    1    1    2    0    0  0.46129153249E+03  0.10504296838E+03 -0.18752380978E+04  0.19400344016E+04  0.15294330000E+03 0.  0.
    8880022    1    1    2    0    0 -0.46129153249E+03 -0.10504296838E+03  0.85976288139E+03  0.99318063231E+03  0.15294330000E+03 0.  0.
<mgrwt>
<rscale>  0 0.49720776E+03</rscale>
<asrwt>0</asrwt>
<pdfrwt beam="1">  1        2 0.14751845E+00 0.49720776E+03</pdfrwt>
<pdfrwt beam="2">  1       -2 0.30374540E+00 0.49720776E+03</pdfrwt>
<totfact> 0.89788791E-01</totfact>
</mgrwt>
</event>
<event>
 4    1  0.2202466E-008  0.1200802E+04  0.7818608E-02  0.9112154E-01
         -2   -1    0    0    0  501 -0.00000000000E+00  0.00000000000E+00  0.11376843336E+04  0.11376843336E+04  0.25500000000E-02 0.  1.
          2   -1    0    0  501    0  0.00000000000E+00 -0.00000000000E+00 -0.13935505331E+04  0.13935505331E+04  0.25500000000E-02 0. -1.
    8880022    1    1    2    0    0  0.85130719589E+03 -0.83295306111E+03  0.25282345791E+03  0.12271292098E+04  0.15294330000E+03 0.  0.
    8880022    1    1    2    0    0 -0.85130719589E+03  0.83295306111E+03 -0.50868965739E+03  0.13041056569E+04  0.15294330000E+03 0.  0.
<mgrwt>
<rscale>  0 0.12008024E+04</rscale>
<asrwt>0</asrwt>
<pdfrwt beam="1">  1        2 0.21439239E+00 0.12008024E+04</pdfrwt>
<pdfrwt beam="2">  1       -2 0.17502836E+00 0.12008024E+04</pdfrwt>
<totfact> 0.27821643E+00</totfact>
</mgrwt>
</event>
<event>
 4    1  0.2202466E-008  0.5827008E+03  0.7818608E-02  0.9941961E-01
         -2   -1    0    0    0  501 -0.00000000000E+00  0.00000000000E+00  0.47391162576E+03  0.47391162576E+03  0.25500000000E-02 0.  1.
          2   -1    0    0  501    0  0.00000000000E+00 -0.00000000000E+00 -0.16214139077E+04  0.16214139077E+04  0.25500000000E-02 0. -1.
    8880022    1    1    2    0    0 -0.34030527368E+03  0.44759451084E+03  0.20893394030E+03  0.61902630788E+03  0.15294330000E+03 0.  0.
    8880022    1    1    2    0    0  0.34030527368E+03 -0.44759451084E+03 -0.13564362222E+04  0.14762992256E+04  0.15294330000E+03 0.  0.
<mgrwt>
<rscale>  0 0.58270076E+03</rscale>
<asrwt>0</asrwt>
<pdfrwt beam="1">  1        2 0.24944829E+00 0.58270076E+03</pdfrwt>
<pdfrwt beam="2">  1       -2 0.72909481E-01 0.58270076E+03</pdfrwt>
<totfact> 0.19390019E+01</totfact>
</mgrwt>
</event>
<event>
 4    1  0.2202466E-008  0.1241460E+04  0.7818608E-02  0.9077321E-01
         -2   -1    0    0    0  501 -0.00000000000E+00  0.00000000000E+00  0.11969604538E+04  0.11969604538E+04  0.25500000000E-02 0.  1.
          2   -1    0    0  501    0  0.00000000000E+00 -0.00000000000E+00 -0.15888908320E+04  0.15888908320E+04  0.25500000000E-02 0. -1.
    8880022    1    1    2    0    0  0.11254978714E+04 -0.50108575411E+03 -0.80251038287E+03  0.14782580827E+04  0.15294330000E+03 0.  0.
    8880022    1    1    2    0    0 -0.11254978714E+04  0.50108575411E+03  0.41058000459E+03  0.13075932031E+04  0.15294330000E+03 0.  0.
<mgrwt>
<rscale>  0 0.12414604E+04</rscale>
<asrwt>0</asrwt>
<pdfrwt beam="1">  1        2 0.24444474E+00 0.12414604E+04</pdfrwt>
<pdfrwt beam="2">  1       -2 0.18414776E+00 0.12414604E+04</pdfrwt>
<totfact> 0.18557037E+00</totfact>
</mgrwt>
</event>
<event>
 4    1  0.2202466E-008  0.1024548E+04  0.7818608E-02  0.9282024E-01
          2   -1    0    0  501    0  0.00000000000E+00  0.00000000000E+00  0.79582780896E+03  0.79582780896E+03  0.25500000000E-02 0. -1.
         -2   -1    0    0    0  501 -0.00000000000E+00 -0.00000000000E+00 -0.17929990031E+04  0.17929990031E+04  0.25500000000E-02 0.  1.
    8880022    1    1    2    0    0  0.98447373085E+03  0.23899382416E+03  0.16694942875E+03  0.10380608554E+04  0.15294330000E+03 0.  0.
    8880022    1    1    2    0    0 -0.98447373085E+03 -0.23899382416E+03 -0.11641206229E+04  0.15507659567E+04  0.15294330000E+03 0.  0.
<mgrwt>
<rscale>  0 0.10245478E+04</rscale>
<asrwt>0</asrwt>
<pdfrwt beam="1">  1        2 0.12243505E+00 0.10245478E+04</pdfrwt>
<pdfrwt beam="2">  1       -2 0.27584600E+00 0.10245478E+04</pdfrwt>
<totfact> 0.15453436E+00</totfact>
</mgrwt>
</event>
<event>
 4    1  0.2202466E-008  0.5409215E+03  0.7818608E-02  0.1003617E+00
         -2   -1    0    0    0  501 -0.00000000000E+00  0.00000000000E+00  0.90523001237E+03  0.90523001237E+03  0.25500000000E-02 0.  1.
          2   -1    0    0  501    0  0.00000000000E+00 -0.00000000000E+00 -0.22620944505E+04  0.22620944505E+04  0.25500000000E-02 0. -1.
    8880022    1    1    2    0    0  0.65139950398E+02  0.51474384535E+03 -0.21445912842E+04  0.22117567382E+04  0.15294330000E+03 0.  0.
    8880022    1    1    2    0    0 -0.65139950398E+02 -0.51474384535E+03  0.78772684608E+03  0.95556772471E+03  0.15294330000E+03 0.  0.
<mgrwt>
<rscale>  0 0.54092152E+03</rscale>
<asrwt>0</asrwt>
<pdfrwt beam="1">  1        2 0.34801453E+00 0.54092152E+03</pdfrwt>
<pdfrwt beam="2">  1       -2 0.13926616E+00 0.54092152E+03</pdfrwt>
<totfact> 0.19008117E+00</totfact>
</mgrwt>
</event>
<event>
 4    1  0.2202466E-008  0.3623639E+03  0.7818608E-02  0.1057652E+00
         -2   -1    0    0    0  501 -0.00000000000E+00  0.00000000000E+00  0.41068362928E+03  0.41068362929E+03  0.25500000000E-02 0.  1.
          2   -1    0    0  501    0  0.00000000000E+00 -0.00000000000E+00 -0.14485406035E+04  0.14485406035E+04  0.25500000000E-02 0. -1.
    8880022    1    1    2    0    0 -0.27606415971E+02  0.32734360373E+03  0.30170098049E+03  0.47151997174E+03  0.15294330000E+03 0.  0.
    8880022    1    1    2    0    0  0.27606415971E+02 -0.32734360373E+03 -0.13395579547E+04  0.13877042610E+04  0.15294330000E+03 0. -1.
<mgrwt>
<rscale>  0 0.36236391E+03</rscale>
<asrwt>0</asrwt>
<pdfrwt beam="1">  1        2 0.22285240E+00 0.36236391E+03</pdfrwt>
<pdfrwt beam="2">  1       -2 0.63182097E-01 0.36236391E+03</pdfrwt>
<totfact> 0.34235117E+01</totfact>
</mgrwt>
</event>
<event>
 4    1  0.2202466E-008  0.9573256E+03  0.7818608E-02  0.9356629E-01
          2   -1    0    0  501    0  0.00000000000E+00  0.00000000000E+00  0.28154673511E+04  0.28154673511E+04  0.25500000000E-02 0. -1.
         -2   -1    0    0    0  501 -0.00000000000E+00 -0.00000000000E+00 -0.85620479365E+03  0.85620479365E+03  0.25500000000E-02 0.  1.
    8880022    1    1    2    0    0 -0.72540087513E+03  0.60570147238E+03 -0.46569564542E+03  0.10645866759E+04  0.15294330000E+03 0.  0.
    8880022    1    1    2    0    0  0.72540087513E+03 -0.60570147238E+03  0.24249582029E+04  0.26070854689E+04  0.15294330000E+03 0.  0.
<mgrwt>
<rscale>  0 0.95732563E+03</rscale>
<asrwt>0</asrwt>
<pdfrwt beam="1">  1        2 0.43314882E+00 0.95732563E+03</pdfrwt>
<pdfrwt beam="2">  1       -2 0.13172382E+00 0.95732563E+03</pdfrwt>
<totfact> 0.96977440E-01</totfact>
</mgrwt>
</event>
<event>
 4    1  0.2202466E-008  0.6849305E+03  0.7818608E-02  0.9743356E-01
          2   -1    0    0  501    0  0.00000000000E+00  0.00000000000E+00  0.21049231116E+04  0.21049231116E+04  0.25500000000E-02 0. -1.
         -2   -1    0    0    0  501 -0.00000000000E+00 -0.00000000000E+00 -0.32098577171E+03  0.32098577172E+03  0.25500000000E-02 0.  1.
    8880022    1    1    2    0    0 -0.54764960310E+03 -0.38186126854E+03  0.22136616842E+03  0.71981438561E+03  0.15294330000E+03 0.  0.
    8880022    1    1    2    0    0  0.54764960310E+03  0.38186126854E+03  0.15625711714E+04  0.17060944977E+04  0.15294330000E+03 0.  0.
<mgrwt>
<rscale>  0 0.68493048E+03</rscale>
<asrwt>0</asrwt>
<pdfrwt beam="1">  1        2 0.32383433E+00 0.68493048E+03</pdfrwt>
<pdfrwt beam="2">  1       -2 0.49382425E-01 0.68493048E+03</pdfrwt>
<totfact> 0.23695979E+01</totfact>
</mgrwt>
</event>
<event>
 4    1  0.2202466E-008  0.3277144E+03  0.7818608E-02  0.1072153E+00
         -2   -1    0    0    0  501 -0.00000000000E+00  0.00000000000E+00  0.15055510864E+03  0.15055510867E+03  0.25500000000E-02 0.  1.
          2   -1    0    0  501    0  0.00000000000E+00 -0.00000000000E+00 -0.12837843720E+04  0.12837843720E+04  0.25500000000E-02 0. -1.
    8880022    1    1    2    0    0  0.21434630017E+03 -0.19509158178E+03 -0.88553716567E+02  0.33946792987E+03  0.15294330000E+03 0.  0.
    8880022    1    1    2    0    0 -0.21434630017E+03  0.19509158178E+03 -0.10446755468E+04  0.10948715508E+04  0.15294330000E+03 0. -1.
<mgrwt>
<rscale>  0 0.32771438E+03</rscale>
<asrwt>0</asrwt>
<pdfrwt beam="1">  1        2 0.19750528E+00 0.32771438E+03</pdfrwt>
<pdfrwt beam="2">  1       -2 0.23162325E-01 0.32771438E+03</pdfrwt>
<totfact> 0.29141040E+02</totfact>
</mgrwt>
</event>
<event>
 4    1  0.2202466E-008  0.7078223E+03  0.7818608E-02  0.9703948E-01
          2   -1    0    0  501    0  0.00000000000E+00  0.00000000000E+00  0.11198565656E+04  0.11198565656E+04  0.25500000000E-02 0. -1.
         -2   -1    0    0    0  501 -0.00000000000E+00 -0.00000000000E+00 -0.80554330499E+03  0.80554330500E+03  0.25500000000E-02 0.  1.
    8880022    1    1    2    0    0  0.58601412974E+03  0.36634436668E+03  0.79907691165E+03  0.10674906646E+04  0.15294330000E+03 0.  0.
    8880022    1    1    2    0    0 -0.58601412974E+03 -0.36634436668E+03 -0.48476365108E+03  0.85790920596E+03  0.15294330000E+03 0.  0.
<mgrwt>
<rscale>  0 0.70782230E+03</rscale>
<asrwt>0</asrwt>
<pdfrwt beam="1">  1        2 0.17228563E+00 0.70782230E+03</pdfrwt>
<pdfrwt beam="2">  1       -2 0.12392974E+00 0.70782230E+03</pdfrwt>
<totfact> 0.10628020E+01</totfact>
</mgrwt>
</event>
<event>
 4    1  0.2202466E-008  0.1035928E+04  0.7818608E-02  0.9269994E-01
          2   -1    0    0  501    0  0.00000000000E+00  0.00000000000E+00  0.43389843726E+04  0.43389843726E+04  0.25500000000E-02 0. -1.
         -2   -1    0    0    0  501 -0.00000000000E+00 -0.00000000000E+00 -0.48106475861E+03  0.48106475862E+03  0.25500000000E-02 0.  1.
    8880022    1    1    2    0    0 -0.54358183842E+03 -0.86848973098E+03  0.24905649282E+03  0.10654465813E+04  0.15294330000E+03 0.  0.
    8880022    1    1    2    0    0  0.54358183842E+03  0.86848973098E+03  0.36088631212E+04  0.37546025500E+04  0.15294330000E+03 0.  0.
<mgrwt>
<rscale>  0 0.10359282E+04</rscale>
<asrwt>0</asrwt>
<pdfrwt beam="1">  1        2 0.66753610E+00 0.10359282E+04</pdfrwt>
<pdfrwt beam="2">  1       -2 0.74009958E-01 0.10359282E+04</pdfrwt>
<totfact> 0.30463343E-01</totfact>
</mgrwt>
</event>
<event>
 4    1  0.2202466E-008  0.1859392E+04  0.7818608E-02  0.8675338E-01
         -2   -1    0    0    0  501 -0.00000000000E+00  0.00000000000E+00  0.13092258798E+04  0.13092258798E+04  0.25500000000E-02 0.  1.
          2   -1    0    0  501    0  0.00000000000E+00 -0.00000000000E+00 -0.35039550600E+04  0.35039550600E+04  0.25500000000E-02 0. -1.
    8880022    1    1    2    0    0  0.14760413617E+04 -0.11203792952E+04 -0.22918467620E+04  0.29512541571E+04  0.15294330000E+03 0.  0.
    8880022    1    1    2    0    0 -0.14760413617E+04  0.11203792952E+04  0.97117581794E+02  0.18619267827E+04  0.15294330000E+03 0.  0.
<mgrwt>
<rscale>  0 0.18593922E+04</rscale>
<asrwt>0</asrwt>
<pdfrwt beam="1">  1        2 0.53907001E+00 0.18593922E+04</pdfrwt>
<pdfrwt beam="2">  1       -2 0.20141937E+00 0.18593922E+04</pdfrwt>
<totfact> 0.95385705E-02</totfact>
</mgrwt>
</event>
<event>
 4    1  0.2202466E-008  0.2092541E+03  0.7818608E-02  0.1142158E+00
          2   -1    0    0  501    0  0.00000000000E+00  0.00000000000E+00  0.44891626729E+03  0.44891626730E+03  0.25500000000E-02 0. -1.
         -2   -1    0    0    0  501 -0.00000000000E+00 -0.00000000000E+00 -0.10712210198E+03  0.10712210201E+03  0.25500000000E-02 0.  1.
    8880022    1    1    2    0    0  0.12415293654E+03  0.70580901839E+02  0.25404796194E+03  0.32913163831E+03  0.15294330000E+03 0.  0.
    8880022    1    1    2    0    0 -0.12415293654E+03 -0.70580901839E+02  0.87746203373E+02  0.22690673101E+03  0.15294330000E+03 0.  1.
<mgrwt>
<rscale>  0 0.20925408E+03</rscale>
<asrwt>0</asrwt>
<pdfrwt beam="1">  1        2 0.69064042E-01 0.20925408E+03</pdfrwt>
<pdfrwt beam="2">  1       -2 0.16480323E-01 0.20925408E+03</pdfrwt>
<totfact> 0.20381365E+03</totfact>
</mgrwt>
</event>
<event>
 4    1  0.2202466E-008  0.3457841E+03  0.7818608E-02  0.1064359E+00
          2   -1    0    0  501    0  0.00000000000E+00  0.00000000000E+00  0.60315689035E+03  0.60315689036E+03  0.25500000000E-02 0. -1.
         -2   -1    0    0    0  501 -0.00000000000E+00 -0.00000000000E+00 -0.52403988976E+03  0.52403988977E+03  0.25500000000E-02 0.  1.
    8880022    1    1    2    0    0 -0.28216031073E+03  0.12868779994E+03 -0.40483382391E+03  0.53240686397E+03  0.15294330000E+03 0.  1.
    8880022    1    1    2    0    0  0.28216031073E+03 -0.12868779994E+03  0.48395082451E+03  0.59478991615E+03  0.15294330000E+03 0.  0.
<mgrwt>
<rscale>  0 0.34578410E+03</rscale>
<asrwt>0</asrwt>
<pdfrwt beam="1">  1        2 0.92793368E-01 0.34578410E+03</pdfrwt>
<pdfrwt beam="2">  1       -2 0.80621522E-01 0.34578410E+03</pdfrwt>
<totfact> 0.70311356E+01</totfact>
</mgrwt>
</event>
<event>
 4    1  0.2202466E-008  0.1116886E+04  0.7818608E-02  0.9188888E-01
         -2   -1    0    0    0  501 -0.00000000000E+00  0.00000000000E+00  0.10827227998E+04  0.10827227998E+04  0.25500000000E-02 0.  1.
          2   -1    0    0  501    0  0.00000000000E+00 -0.00000000000E+00 -0.33239856927E+04  0.33239856927E+04  0.25500000000E-02 0. -1.
    8880022    1    1    2    0    0  0.89541536057E+02  0.11027356991E+04  0.66039523931E+03  0.12975196468E+04  0.15294330000E+03 0.  0.
    8880022    1    1    2    0    0 -0.89541536057E+02 -0.11027356991E+04 -0.29016581322E+04  0.31091888457E+04  0.15294330000E+03 0.  0.
<mgrwt>
<rscale>  0 0.11168865E+04</rscale>
<asrwt>0</asrwt>
<pdfrwt beam="1">  1        2 0.51138241E+00 0.11168865E+04</pdfrwt>
<pdfrwt beam="2">  1       -2 0.16657274E+00 0.11168865E+04</pdfrwt>
<totfact> 0.24296533E-01</totfact>
</mgrwt>
</event>
<event>
 4    1  0.2202466E-008  0.1308402E+04  0.7818608E-02  0.9022929E-01
          2   -1    0    0  501    0  0.00000000000E+00  0.00000000000E+00  0.44090954254E+04  0.44090954254E+04  0.25500000000E-02 0. -1.
         -2   -1    0    0    0  501 -0.00000000000E+00 -0.00000000000E+00 -0.48086606260E+03  0.48086606261E+03  0.25500000000E-02 0.  1.
    8880022    1    1    2    0    0 -0.11270306223E+04 -0.64678111141E+03  0.30370209081E+04  0.33068733691E+04  0.15294330000E+03 0.  0.
    8880022    1    1    2    0    0  0.11270306223E+04  0.64678111141E+03  0.89120845463E+03  0.15830881189E+04  0.15294330000E+03 0.  0.
<mgrwt>
<rscale>  0 0.13084019E+04</rscale>
<asrwt>0</asrwt>
<pdfrwt beam="1">  1        2 0.67832239E+00 0.13084019E+04</pdfrwt>
<pdfrwt beam="2">  1       -2 0.73979392E-01 0.13084019E+04</pdfrwt>
<totfact> 0.25074050E-01</totfact>
</mgrwt>
</event>
<event>
 4    1  0.2202466E-008  0.4417968E+03  0.7818608E-02  0.1030197E+00
          2   -1    0    0  501    0  0.00000000000E+00  0.00000000000E+00  0.78306214404E+03  0.78306214405E+03  0.25500000000E-02 0. -1.
         -2   -1    0    0    0  501 -0.00000000000E+00 -0.00000000000E+00 -0.14404282957E+04  0.14404282957E+04  0.25500000000E-02 0.  1.
    8880022    1    1    2    0    0 -0.18820413662E+03 -0.36928575966E+03  0.68230584245E+03  0.81285034599E+03  0.15294330000E+03 0. -1.
    8880022    1    1    2    0    0  0.18820413662E+03  0.36928575966E+03 -0.13396719941E+04  0.14106400938E+04  0.15294330000E+03 0.  0.
<mgrwt>
<rscale>  0 0.44179681E+03</rscale>
<asrwt>0</asrwt>
<pdfrwt beam="1">  1        2 0.12047110E+00 0.44179681E+03</pdfrwt>
<pdfrwt beam="2">  1       -2 0.22160435E+00 0.44179681E+03</pdfrwt>
<totfact> 0.37159694E+00</totfact>
</mgrwt>
</event>
<event>
 4    1  0.2202466E-008  0.6506140E+03  0.7818608E-02  0.9805628E-01
         -2   -1    0    0    0  501 -0.00000000000E+00  0.00000000000E+00  0.19500149850E+04  0.19500149850E+04  0.25500000000E-02 0.  1.
          2   -1    0    0  501    0  0.00000000000E+00 -0.00000000000E+00 -0.21469470252E+04  0.21469470252E+04  0.25500000000E-02 0. -1.
    8880022    1    1    2    0    0  0.17441296676E+03 -0.60785444595E+03  0.18436965792E+04  0.19551254792E+04  0.15294330000E+03 0.  0.
    8880022    1    1    2    0    0 -0.17441296676E+03  0.60785444595E+03 -0.20406286193E+04  0.21418365310E+04  0.15294330000E+03 0.  0.
<mgrwt>
<rscale>  0 0.65061399E+03</rscale>
<asrwt>0</asrwt>
<pdfrwt beam="1">  1        2 0.33029954E+00 0.65061399E+03</pdfrwt>
<pdfrwt beam="2">  1       -2 0.30000231E+00 0.65061399E+03</pdfrwt>
<totfact> 0.19352666E-01</totfact>
</mgrwt>
</event>
<event>
 4    1  0.2202466E-008  0.1172197E+04  0.7818608E-02  0.9137547E-01
         -2   -1    0    0    0  501 -0.00000000000E+00  0.00000000000E+00  0.79132955956E+03  0.79132955957E+03  0.25500000000E-02 0.  1.
          2   -1    0    0  501    0  0.00000000000E+00 -0.00000000000E+00 -0.29166480816E+04  0.29166480816E+04  0.25500000000E-02 0. -1.
    8880022    1    1    2    0    0  0.62368066623E+03 -0.98065118615E+03 -0.22420455875E+04  0.25299830813E+04  0.15294330000E+03 0.  0.
    8880022    1    1    2    0    0 -0.62368066623E+03  0.98065118615E+03  0.11672706541E+03  0.11779945599E+04  0.15294330000E+03 0.  0.
<mgrwt>
<rscale>  0 0.11721971E+04</rscale>
<asrwt>0</asrwt>
<pdfrwt beam="1">  1        2 0.44871508E+00 0.11721971E+04</pdfrwt>
<pdfrwt beam="2">  1       -2 0.12174301E+00 0.11721971E+04</pdfrwt>
<totfact> 0.99513987E-01</totfact>
</mgrwt>
</event>
<event>
 4    1  0.2202466E-008  0.2872954E+03  0.7818608E-02  0.1091770E+00
         -2   -1    0    0    0  501 -0.00000000000E+00  0.00000000000E+00  0.38599691348E+03  0.38599691349E+03  0.25500000000E-02 0.  1.
          2   -1    0    0  501    0  0.00000000000E+00 -0.00000000000E+00 -0.39308860007E+03  0.39308860008E+03  0.25500000000E-02 0. -1.
    8880022    1    1    2    0    0 -0.21152352373E+03  0.12001992228E+03  0.25950944376E+03  0.38714827554E+03  0.15294330000E+03 0.  0.
    8880022    1    1    2    0    0  0.21152352373E+03 -0.12001992228E+03 -0.26660113035E+03  0.39193723803E+03  0.15294330000E+03 0.  0.
<mgrwt>
<rscale>  0 0.28729538E+03</rscale>
<asrwt>0</asrwt>
<pdfrwt beam="1">  1        2 0.60475169E-01 0.28729538E+03</pdfrwt>
<pdfrwt beam="2">  1       -2 0.59384141E-01 0.28729538E+03</pdfrwt>
<totfact> 0.22139954E+02</totfact>
</mgrwt>
</event>
<event>
 4    1  0.2202466E-008  0.7564149E+03  0.7818608E-02  0.9625340E-01
          2   -1    0    0  501    0  0.00000000000E+00  0.00000000000E+00  0.36373065508E+04  0.36373065508E+04  0.25500000000E-02 0. -1.
         -2   -1    0    0    0  501 -0.00000000000E+00 -0.00000000000E+00 -0.20922995041E+03  0.20922995043E+03  0.25500000000E-02 0.  1.
    8880022    1    1    2    0    0 -0.59216677015E+03  0.44509593251E+03  0.26721572041E+04  0.27771545959E+04  0.15294330000E+03 0.  0.
    8880022    1    1    2    0    0  0.59216677015E+03 -0.44509593251E+03  0.75591939621E+03  0.10693819053E+04  0.15294330000E+03 0.  0.
<mgrwt>
<rscale>  0 0.75641492E+03</rscale>
<asrwt>0</asrwt>
<pdfrwt beam="1">  1        2 0.55958562E+00 0.75641492E+03</pdfrwt>
<pdfrwt beam="2">  1       -2 0.32189224E-01 0.75641492E+03</pdfrwt>
<totfact> 0.63303002E+00</totfact>
</mgrwt>
</event>
<event>
 4    1  0.2202466E-008  0.1200287E+04  0.7818608E-02  0.9112605E-01
          2   -1    0    0  501    0  0.00000000000E+00  0.00000000000E+00  0.11570083438E+04  0.11570083438E+04  0.25500000000E-02 0. -1.
         -2   -1    0    0    0  501 -0.00000000000E+00 -0.00000000000E+00 -0.18980462888E+04  0.18980462888E+04  0.25500000000E-02 0.  1.
    8880022    1    1    2    0    0  0.68283008363E+03  0.97521287942E+03 -0.12663915545E+04  0.17448313115E+04  0.15294330000E+03 0.  0.
    8880022    1    1    2    0    0 -0.68283008363E+03 -0.97521287942E+03  0.52535360950E+03  0.13102233212E+04  0.15294330000E+03 0.  0.
<mgrwt>
<rscale>  0 0.12002869E+04</rscale>
<asrwt>0</asrwt>
<pdfrwt beam="1">  1        2 0.17800128E+00 0.12002869E+04</pdfrwt>
<pdfrwt beam="2">  1       -2 0.29200712E+00 0.12002869E+04</pdfrwt>
<totfact> 0.69807464E-01</totfact>
</mgrwt>
</event>
<event>
 4    1  0.2202466E-008  0.2224549E+04  0.7818608E-02  0.8508279E-01
         -2   -1    0    0    0  501 -0.00000000000E+00  0.00000000000E+00  0.22342348487E+04  0.22342348487E+04  0.25500000000E-02 0.  1.
          2   -1    0    0  501    0  0.00000000000E+00 -0.00000000000E+00 -0.28577537781E+04  0.28577537781E+04  0.25500000000E-02 0. -1.
    8880022    1    1    2    0    0 -0.58226839347E+03  0.21415392582E+04 -0.15192934078E+04  0.26938580119E+04  0.15294330000E+03 0.  0.
    8880022    1    1    2    0    0  0.58226839347E+03 -0.21415392582E+04  0.89577447840E+03  0.23981306148E+04  0.15294330000E+03 0.  0.
<mgrwt>
<rscale>  0 0.22245491E+04</rscale>
<asrwt>0</asrwt>
<pdfrwt beam="1">  1        2 0.43965443E+00 0.22245491E+04</pdfrwt>
<pdfrwt beam="2">  1       -2 0.34372844E+00 0.22245491E+04</pdfrwt>
<totfact> 0.31333807E-02</totfact>
</mgrwt>
</event>
<event>
 4    1  0.2202466E-008  0.6775325E+03  0.7818608E-02  0.9756445E-01
          2   -1    0    0  501    0  0.00000000000E+00  0.00000000000E+00  0.79718549608E+03  0.79718549609E+03  0.25500000000E-02 0. -1.
         -2   -1    0    0    0  501 -0.00000000000E+00 -0.00000000000E+00 -0.15833194909E+04  0.15833194909E+04  0.25500000000E-02 0.  1.
    8880022    1    1    2    0    0 -0.49604118932E+03  0.43543286684E+03 -0.13425194011E+04  0.15037980710E+04  0.15294330000E+03 0.  0.
    8880022    1    1    2    0    0  0.49604118932E+03 -0.43543286684E+03  0.55638540634E+03  0.87670691592E+03  0.15294330000E+03 0.  0.
<mgrwt>
<rscale>  0 0.67753251E+03</rscale>
<asrwt>0</asrwt>
<pdfrwt beam="1">  1        2 0.12264392E+00 0.67753251E+03</pdfrwt>
<pdfrwt beam="2">  1       -2 0.24358761E+00 0.67753251E+03</pdfrwt>
<totfact> 0.25393710E+00</totfact>
</mgrwt>
</event>
<event>
 4    1  0.2202466E-008  0.5816313E+03  0.7818608E-02  0.9944265E-01
          2   -1    0    0  501    0  0.00000000000E+00  0.00000000000E+00  0.24085995039E+04  0.24085995039E+04  0.25500000000E-02 0. -1.
         -2   -1    0    0    0  501 -0.00000000000E+00 -0.00000000000E+00 -0.16078395722E+03  0.16078395724E+03  0.25500000000E-02 0.  1.
    8880022    1    1    2    0    0 -0.54597762654E+03 -0.12966026930E+03  0.15807398279E+04  0.16843495512E+04  0.15294330000E+03 0.  0.
    8880022    1    1    2    0    0  0.54597762654E+03  0.12966026930E+03  0.66707571874E+03  0.88503390990E+03  0.15294330000E+03 0.  0.
<mgrwt>
<rscale>  0 0.58163133E+03</rscale>
<asrwt>0</asrwt>
<pdfrwt beam="1">  1        2 0.37055376E+00 0.58163133E+03</pdfrwt>
<pdfrwt beam="2">  1       -2 0.24735994E-01 0.58163133E+03</pdfrwt>
<totfact> 0.61063106E+01</totfact>
</mgrwt>
</event>
<event>
 4    1  0.2202466E-008  0.3955838E+03  0.7818608E-02  0.1045320E+00
          2   -1    0    0  501    0  0.00000000000E+00  0.00000000000E+00  0.40754260294E+03  0.40754260295E+03  0.25500000000E-02 0. -1.
         -2   -1    0    0    0  501 -0.00000000000E+00 -0.00000000000E+00 -0.84504134475E+03  0.84504134476E+03  0.25500000000E-02 0.  1.
    8880022    1    1    2    0    0  0.35844496620E+03 -0.67912244659E+02 -0.68136380084E+03  0.78787254609E+03  0.15294330000E+03 0.  0.
    8880022    1    1    2    0    0 -0.35844496620E+03  0.67912244659E+02  0.24386505903E+03  0.46471140162E+03  0.15294330000E+03 0.  0.
<mgrwt>
<rscale>  0 0.39558377E+03</rscale>
<asrwt>0</asrwt>
<pdfrwt beam="1">  1        2 0.62698862E-01 0.39558377E+03</pdfrwt>
<pdfrwt beam="2">  1       -2 0.13000636E+00 0.39558377E+03</pdfrwt>
<totfact> 0.35379062E+01</totfact>
</mgrwt>
</event>
<event>
 4    1  0.2815270E-008  0.1382283E+04  0.7818608E-02  0.8966744E-01
          2   -1    0    0  501    0  0.00000000000E+00  0.00000000000E+00  0.21155727203E+04  0.21155727203E+04  0.25500000000E-02 0. -1.
         -2   -1    0    0    0  501 -0.00000000000E+00 -0.00000000000E+00 -0.18039614658E+04  0.18039614658E+04  0.25500000000E-02 0.  1.
    8880022    1    1    2    0    0  0.19635330336E+03  0.13596908740E+04 -0.12290510139E+04  0.18496680622E+04  0.15294330000E+03 0.  0.
    8880022    1    1    2    0    0 -0.19635330336E+03 -0.13596908740E+04  0.15406622684E+04  0.20698661238E+04  0.15294330000E+03 0.  0.
<mgrwt>
<rscale>  0 0.13822827E+04</rscale>
<asrwt>0</asrwt>
<pdfrwt beam="1">  1        2 0.32547273E+00 0.13822827E+04</pdfrwt>
<pdfrwt beam="2">  1       -2 0.27753253E+00 0.13822827E+04</pdfrwt>
<totfact> 0.23884663E-01</totfact>
</mgrwt>
</event>
<event>
 4    1  0.2202466E-008  0.8503372E+03  0.7818608E-02  0.9489884E-01
          2   -1    0    0  501    0  0.00000000000E+00  0.00000000000E+00  0.41366225693E+04  0.41366225693E+04  0.25500000000E-02 0. -1.
         -2   -1    0    0    0  501 -0.00000000000E+00 -0.00000000000E+00 -0.42155369561E+03  0.42155369562E+03  0.25500000000E-02 0.  1.
    8880022    1    1    2    0    0  0.22835158972E+03 -0.80469704537E+03  0.11384858326E+03  0.85792478474E+03  0.15294330000E+03 0.  0.
    8880022    1    1    2    0    0 -0.22835158972E+03  0.80469704537E+03  0.36012202904E+04  0.37002514802E+04  0.15294330000E+03 0.  0.
<mgrwt>
<rscale>  0 0.85033725E+03</rscale>
<asrwt>0</asrwt>
<pdfrwt beam="1">  1        2 0.63640345E+00 0.85033725E+03</pdfrwt>
<pdfrwt beam="2">  1       -2 0.64854417E-01 0.85033725E+03</pdfrwt>
<totfact> 0.63221190E-01</totfact>
</mgrwt>
</event>
<event>
 4    1  0.2202466E-008  0.1075137E+04  0.7818608E-02  0.9229770E-01
         -2   -1    0    0    0  501 -0.00000000000E+00  0.00000000000E+00  0.67994158257E+03  0.67994158258E+03  0.25500000000E-02 0.  1.
          2   -1    0    0  501    0  0.00000000000E+00 -0.00000000000E+00 -0.27402025860E+04  0.27402025860E+04  0.25500000000E-02 0. -1.
    8880022    1    1    2    0    0  0.21141346449E+03 -0.10429917868E+04 -0.20837319803E+04  0.23447511892E+04  0.15294330000E+03 0.  0.
    8880022    1    1    2    0    0 -0.21141346449E+03  0.10429917868E+04  0.23470976922E+02  0.10753929794E+04  0.15294330000E+03 0.  0.
<mgrwt>
<rscale>  0 0.10751368E+04</rscale>
<asrwt>0</asrwt>
<pdfrwt beam="1">  1        2 0.42156962E+00 0.10751368E+04</pdfrwt>
<pdfrwt beam="2">  1       -2 0.10460640E+00 0.10751368E+04</pdfrwt>
<totfact> 0.18676458E+00</totfact>
</mgrwt>
</event>
<event>
 4    1  0.2202466E-008  0.6832684E+03  0.7818608E-02  0.9746281E-01
         -2   -1    0    0    0  501 -0.00000000000E+00  0.00000000000E+00  0.35155375084E+03  0.35155375085E+03  0.25500000000E-02 0.  1.
          2   -1    0    0  501    0  0.00000000000E+00 -0.00000000000E+00 -0.24881252109E+04  0.24881252109E+04  0.25500000000E-02 0. -1.
    8880022    1    1    2    0    0 -0.32952453721E+03  0.57868616468E+03 -0.98759357091E+02  0.69036885898E+03  0.15294330000E+03 0.  0.
    8880022    1    1    2    0    0  0.32952453721E+03 -0.57868616468E+03 -0.20378121029E+04  0.21493101027E+04  0.15294330000E+03 0.  0.
<mgrwt>
<rscale>  0 0.68326843E+03</rscale>
<asrwt>0</asrwt>
<pdfrwt beam="1">  1        2 0.38278848E+00 0.68326843E+03</pdfrwt>
<pdfrwt beam="2">  1       -2 0.54085194E-01 0.68326843E+03</pdfrwt>
<totfact> 0.12065211E+01</totfact>
</mgrwt>
</event>
<event>
 4    1  0.2202466E-008  0.6417889E+03  0.7818608E-02  0.9822310E-01
         -2   -1    0    0    0  501 -0.00000000000E+00  0.00000000000E+00  0.36018187057E+03  0.36018187058E+03  0.25500000000E-02 0.  1.
          2   -1    0    0  501    0  0.00000000000E+00 -0.00000000000E+00 -0.39281398525E+04  0.39281398525E+04  0.25500000000E-02 0. -1.
    8880022    1    1    2    0    0  0.61470262788E+03  0.10316022413E+03 -0.35892524208E+04  0.36461796370E+04  0.15294330000E+03 0.  0.
    8880022    1    1    2    0    0 -0.61470262788E+03 -0.10316022413E+03  0.21294438818E+02  0.64214208607E+03  0.15294330000E+03 0.  0.
<mgrwt>
<rscale>  0 0.64178891E+03</rscale>
<asrwt>0</asrwt>
<pdfrwt beam="1">  1        2 0.60432918E+00 0.64178891E+03</pdfrwt>
<pdfrwt beam="2">  1       -2 0.55412598E-01 0.64178891E+03</pdfrwt>
<totfact> 0.13633912E+00</totfact>
</mgrwt>
</event>
<event>
 4    1  0.2202466E-008  0.5423941E+03  0.7818608E-02  0.1003270E+00
          2   -1    0    0  501    0  0.00000000000E+00  0.00000000000E+00  0.39297303943E+04  0.39297303943E+04  0.25500000000E-02 0. -1.
         -2   -1    0    0    0  501 -0.00000000000E+00 -0.00000000000E+00 -0.84260510029E+02  0.84260510067E+02  0.25500000000E-02 0.  1.
    8880022    1    1    2    0    0 -0.48980095336E+03 -0.17576906305E+03  0.25929911427E+04  0.26491120129E+04  0.15294330000E+03 0.  0.
    8880022    1    1    2    0    0  0.48980095336E+03  0.17576906305E+03  0.12524787416E+04  0.13648788915E+04  0.15294330000E+03 0.  0.
<mgrwt>
<rscale>  0 0.54239413E+03</rscale>
<asrwt>0</asrwt>
<pdfrwt beam="1">  1        2 0.60457391E+00 0.54239413E+03</pdfrwt>
<pdfrwt beam="2">  1       -2 0.12963155E-01 0.54239413E+03</pdfrwt>
<totfact> 0.20022835E+01</totfact>
</mgrwt>
</event>
<event>
 4    1  0.2202466E-008  0.2787029E+03  0.7818608E-02  0.1096399E+00
          2   -1    0    0  501    0  0.00000000000E+00  0.00000000000E+00  0.13040394387E+04  0.13040394387E+04  0.25500000000E-02 0. -1.
         -2   -1    0    0    0  501 -0.00000000000E+00 -0.00000000000E+00 -0.11128244590E+03  0.11128244593E+03  0.25500000000E-02 0.  1.
    8880022    1    1    2    0    0  0.12883442048E+03  0.19412719008E+03  0.10788034111E+04  0.11142226558E+04  0.15294330000E+03 0. -1.
    8880022    1    1    2    0    0 -0.12883442048E+03 -0.19412719008E+03  0.11395358171E+03  0.30109922887E+03  0.15294330000E+03 0.  0.
<mgrwt>
<rscale>  0 0.27870294E+03</rscale>
<asrwt>0</asrwt>
<pdfrwt beam="1">  1        2 0.20062143E+00 0.27870294E+03</pdfrwt>
<pdfrwt beam="2">  1       -2 0.17120378E-01 0.27870294E+03</pdfrwt>
<totfact> 0.48054910E+02</totfact>
</mgrwt>
</event>
<event>
 4    1  0.2202466E-008  0.1505002E+04  0.7818608E-02  0.8881133E-01
          2   -1    0    0  501    0  0.00000000000E+00  0.00000000000E+00  0.16310571584E+04  0.16310571584E+04  0.25500000000E-02 0. -1.
         -2   -1    0    0    0  501 -0.00000000000E+00 -0.00000000000E+00 -0.16755664584E+04  0.16755664584E+04  0.25500000000E-02 0.  1.
    8880022    1    1    2    0    0 -0.12732224157E+04  0.78774634123E+03 -0.70635858319E+03  0.16625202914E+04  0.15294330000E+03 0.  0.
    8880022    1    1    2    0    0  0.12732224157E+04 -0.78774634123E+03  0.66184928314E+03  0.16441033254E+04  0.15294330000E+03 0.  0.
<mgrwt>
<rscale>  0 0.15050021E+04</rscale>
<asrwt>0</asrwt>
<pdfrwt beam="1">  1        2 0.25093187E+00 0.15050021E+04</pdfrwt>
<pdfrwt beam="2">  1       -2 0.25777945E+00 0.15050021E+04</pdfrwt>
<totfact> 0.57908001E-01</totfact>
</mgrwt>
</event>
<event>
 4    1  0.2202466E-008  0.7841574E+03  0.7818608E-02  0.9583236E-01
         -2   -1    0    0    0  501 -0.00000000000E+00  0.00000000000E+00  0.13596855327E+04  0.13596855327E+04  0.25500000000E-02 0.  1.
          2   -1    0    0  501    0  0.00000000000E+00 -0.00000000000E+00 -0.50881761216E+03  0.50881761217E+03  0.25500000000E-02 0. -1.
    8880022    1    1    2    0    0  0.67714676654E+03  0.36466888091E+03  0.11389740191E+03  0.79238589545E+03  0.15294330000E+03 0.  0.
    8880022    1    1    2    0    0 -0.67714676654E+03 -0.36466888091E+03  0.73697051860E+03  0.10761172494E+04  0.15294330000E+03 0.  0.
<mgrwt>
<rscale>  0 0.78415738E+03</rscale>
<asrwt>0</asrwt>
<pdfrwt beam="1">  1        2 0.78279633E-01 0.78415738E+03</pdfrwt>
<pdfrwt beam="2">  1       -2 0.20918239E+00 0.78415738E+03</pdfrwt>
<totfact> 0.71124907E+00</totfact>
</mgrwt>
</event>
<event>
 4    1  0.2202466E-008  0.6028125E+03  0.7818608E-02  0.9899588E-01
          2   -1    0    0  501    0  0.00000000000E+00  0.00000000000E+00  0.19134113524E+04  0.19134113524E+04  0.25500000000E-02 0. -1.
         -2   -1    0    0    0  501 -0.00000000000E+00 -0.00000000000E+00 -0.51422003946E+03  0.51422003947E+03  0.25500000000E-02 0.  1.
    8880022    1    1    2    0    0 -0.12316088083E+03  0.56993216324E+03 -0.26435766846E+03  0.65823088893E+03  0.15294330000E+03 0.  0.
    8880022    1    1    2    0    0  0.12316088083E+03 -0.56993216324E+03  0.16635489814E+04  0.17694005029E+04  0.15294330000E+03 0.  0.
<mgrwt>
<rscale>  0 0.60281251E+03</rscale>
<asrwt>0</asrwt>
<pdfrwt beam="1">  1        2 0.29437098E+00 0.60281251E+03</pdfrwt>
<pdfrwt beam="2">  1       -2 0.79110775E-01 0.60281251E+03</pdfrwt>
<totfact> 0.11200286E+01</totfact>
</mgrwt>
</event>
<event>
 4    1  0.2202466E-008  0.7381425E+03  0.7818608E-02  0.9654139E-01
          2   -1    0    0  501    0  0.00000000000E+00  0.00000000000E+00  0.18646882006E+04  0.18646882006E+04  0.25500000000E-02 0. -1.
         -2   -1    0    0    0  501 -0.00000000000E+00 -0.00000000000E+00 -0.47379309187E+03  0.47379309188E+03  0.25500000000E-02 0.  1.
    8880022    1    1    2    0    0  0.37501154922E+03 -0.61711352592E+03  0.14193232515E+04  0.15997915211E+04  0.15294330000E+03 0.  0.
    8880022    1    1    2    0    0 -0.37501154922E+03  0.61711352592E+03 -0.28428142773E+02  0.73868977131E+03  0.15294330000E+03 0.  0.
<mgrwt>
<rscale>  0 0.73814255E+03</rscale>
<asrwt>0</asrwt>
<pdfrwt beam="1">  1        2 0.28687511E+00 0.73814255E+03</pdfrwt>
<pdfrwt beam="2">  1       -2 0.72891244E-01 0.73814255E+03</pdfrwt>
<totfact> 0.13964520E+01</totfact>
</mgrwt>
</event>
<event>
 4    1  0.2202466E-008  0.7249412E+03  0.7818608E-02  0.9675505E-01
          2   -1    0    0  501    0  0.00000000000E+00  0.00000000000E+00  0.80532837411E+03  0.80532837411E+03  0.25500000000E-02 0. -1.
         -2   -1    0    0    0  501 -0.00000000000E+00 -0.00000000000E+00 -0.19786168202E+04  0.19786168202E+04  0.25500000000E-02 0.  1.
    8880022    1    1    2    0    0 -0.41704931053E+03 -0.57290312689E+03  0.55289142877E+03  0.91171744813E+03  0.15294330000E+03 0.  0.
    8880022    1    1    2    0    0  0.41704931053E+03  0.57290312689E+03 -0.17261798749E+04  0.18722277462E+04  0.15294330000E+03 0.  0.
<mgrwt>
<rscale>  0 0.72494122E+03</rscale>
<asrwt>0</asrwt>
<pdfrwt beam="1">  1        2 0.12389667E+00 0.72494122E+03</pdfrwt>
<pdfrwt beam="2">  1       -2 0.30440259E+00 0.72494122E+03</pdfrwt>
<totfact> 0.10708935E+00</totfact>
</mgrwt>
</event>
<event>
 4    1  0.2202466E-008  0.7327395E+03  0.7818608E-02  0.9662825E-01
          2   -1    0    0  501    0  0.00000000000E+00  0.00000000000E+00  0.19123106299E+04  0.19123106299E+04  0.25500000000E-02 0. -1.
         -2   -1    0    0    0  501 -0.00000000000E+00 -0.00000000000E+00 -0.61377556151E+03  0.61377556151E+03  0.25500000000E-02 0.  1.
    8880022    1    1    2    0    0  0.69848014320E+03 -0.16012799677E+03  0.15796110097E+04  0.17412863293E+04  0.15294330000E+03 0. -1.
    8880022    1    1    2    0    0 -0.69848014320E+03  0.16012799677E+03 -0.28107594127E+03  0.78479986211E+03  0.15294330000E+03 0.  0.
<mgrwt>
<rscale>  0 0.73273948E+03</rscale>
<asrwt>0</asrwt>
<pdfrwt beam="1">  1        2 0.29420163E+00 0.73273948E+03</pdfrwt>
<pdfrwt beam="2">  1       -2 0.94427010E-01 0.73273948E+03</pdfrwt>
<totfact> 0.73230989E+00</totfact>
</mgrwt>
</event>
<event>
 4    1  0.2202466E-008  0.9222763E+03  0.7818608E-02  0.9398156E-01
         -2   -1    0    0    0  501 -0.00000000000E+00  0.00000000000E+00  0.11237498589E+04  0.11237498589E+04  0.25500000000E-02 0.  1.
          2   -1    0    0  501    0  0.00000000000E+00 -0.00000000000E+00 -0.91918643001E+03  0.91918643001E+03  0.25500000000E-02 0. -1.
    8880022    1    1    2    0    0  0.19144001997E+03 -0.88913023900E+03 -0.32689058392E+03  0.97849423607E+03  0.15294330000E+03 0.  0.
    8880022    1    1    2    0    0 -0.19144001997E+03  0.88913023900E+03  0.53145401284E+03  0.10644420529E+04  0.15294330000E+03 0.  0.
<mgrwt>
<rscale>  0 0.92227627E+03</rscale>
<asrwt>0</asrwt>
<pdfrwt beam="1">  1        2 0.14141330E+00 0.92227627E+03</pdfrwt>
<pdfrwt beam="2">  1       -2 0.17288459E+00 0.92227627E+03</pdfrwt>
<totfact> 0.57825904E+00</totfact>
</mgrwt>
</event>
<event>
 4    1  0.2202466E-008  0.1149610E+04  0.7818608E-02  0.9158144E-01
          2   -1    0    0  501    0  0.00000000000E+00  0.00000000000E+00  0.12138168039E+04  0.12138168039E+04  0.25500000000E-02 0. -1.
         -2   -1    0    0    0  501 -0.00000000000E+00 -0.00000000000E+00 -0.12383017672E+04  0.12383017672E+04  0.25500000000E-02 0.  1.
    8880022    1    1    2    0    0  0.79069142930E+03 -0.82037646948E+03  0.41377095413E+03  0.12218054442E+04  0.15294330000E+03 0.  0.
    8880022    1    1    2    0    0 -0.79069142930E+03  0.82037646948E+03 -0.43825591740E+03  0.12303131269E+04  0.15294330000E+03 0.  0.
<mgrwt>
<rscale>  0 0.11496096E+04</rscale>
<asrwt>0</asrwt>
<pdfrwt beam="1">  1        2 0.18674105E+00 0.11496096E+04</pdfrwt>
<pdfrwt beam="2">  1       -2 0.19050797E+00 0.11496096E+04</pdfrwt>
<totfact> 0.27892094E+00</totfact>
</mgrwt>
</event>
<event>
 4    1  0.2202466E-008  0.7684248E+03  0.7818608E-02  0.9606880E-01
          2   -1    0    0  501    0  0.00000000000E+00  0.00000000000E+00  0.16705749244E+04  0.16705749244E+04  0.25500000000E-02 0. -1.
         -2   -1    0    0    0  501 -0.00000000000E+00 -0.00000000000E+00 -0.71219494499E+03  0.71219494500E+03  0.25500000000E-02 0.  1.
    8880022    1    1    2    0    0  0.57030678060E+03 -0.49176746192E+03  0.13247437113E+04  0.15314772653E+04  0.15294330000E+03 0.  0.
    8880022    1    1    2    0    0 -0.57030678060E+03  0.49176746192E+03 -0.36636373192E+03  0.85129260404E+03  0.15294330000E+03 0.  0.
<mgrwt>
<rscale>  0 0.76842483E+03</rscale>
<asrwt>0</asrwt>
<pdfrwt beam="1">  1        2 0.25701152E+00 0.76842483E+03</pdfrwt>
<pdfrwt beam="2">  1       -2 0.10956846E+00 0.76842483E+03</pdfrwt>
<totfact> 0.69281340E+00</totfact>
</mgrwt>
</event>
<event>
 4    1  0.2202466E-008  0.1035957E+04  0.7818608E-02  0.9269964E-01
         -2   -1    0    0    0  501 -0.00000000000E+00  0.00000000000E+00  0.44591275045E+03  0.44591275045E+03  0.25500000000E-02 0.  1.
          2   -1    0    0  501    0  0.00000000000E+00 -0.00000000000E+00 -0.26031911527E+04  0.26031911527E+04  0.25500000000E-02 0. -1.
    8880022    1    1    2    0    0 -0.97480582031E+03  0.31554500057E+03 -0.65985515772E+03  0.12282571054E+04  0.15294330000E+03 0.  0.
    8880022    1    1    2    0    0  0.97480582031E+03 -0.31554500057E+03 -0.14974232445E+04  0.18208467977E+04  0.15294330000E+03 0.  0.
<mgrwt>
<rscale>  0 0.10359569E+04</rscale>
<asrwt>0</asrwt>
<pdfrwt beam="1">  1        2 0.40049094E+00 0.10359569E+04</pdfrwt>
<pdfrwt beam="2">  1       -2 0.68601963E-01 0.10359569E+04</pdfrwt>
<totfact> 0.59361329E+00</totfact>
</mgrwt>
</event>
<event>
 4    1  0.2202466E-008  0.4781846E+03  0.7818608E-02  0.1019635E+00
          2   -1    0    0  501    0  0.00000000000E+00  0.00000000000E+00  0.84175888155E+03  0.84175888155E+03  0.25500000000E-02 0. -1.
         -2   -1    0    0    0  501 -0.00000000000E+00 -0.00000000000E+00 -0.10662599018E+04  0.10662599018E+04  0.25500000000E-02 0.  1.
    8880022    1    1    2    0    0 -0.45306462714E+03  0.11550777502E+01  0.71131690464E+03  0.85710692590E+03  0.15294330000E+03 0.  0.
    8880022    1    1    2    0    0  0.45306462714E+03 -0.11550777502E+01 -0.93581792491E+03  0.10509118575E+04  0.15294330000E+03 0.  0.
<mgrwt>
<rscale>  0 0.47818463E+03</rscale>
<asrwt>0</asrwt>
<pdfrwt beam="1">  1        2 0.12950137E+00 0.47818463E+03</pdfrwt>
<pdfrwt beam="2">  1       -2 0.16403998E+00 0.47818463E+03</pdfrwt>
<totfact> 0.80249537E+00</totfact>
</mgrwt>
</event>
<event>
 4    1  0.2202466E-008  0.8436175E+03  0.7818608E-02  0.9498944E-01
         -2   -1    0    0    0  501 -0.00000000000E+00  0.00000000000E+00  0.89556291904E+03  0.89556291904E+03  0.25500000000E-02 0.  1.
          2   -1    0    0  501    0  0.00000000000E+00 -0.00000000000E+00 -0.10806185892E+04  0.10806185892E+04  0.25500000000E-02 0. -1.
    8880022    1    1    2    0    0 -0.70632878944E+03 -0.43519934628E+03  0.41574061405E+03  0.94049494469E+03  0.15294330000E+03 0.  0.
    8880022    1    1    2    0    0  0.70632878944E+03  0.43519934628E+03 -0.60079628421E+03  0.10356865636E+04  0.15294330000E+03 0.  0.
<mgrwt>
<rscale>  0 0.84361750E+03</rscale>
<asrwt>0</asrwt>
<pdfrwt beam="1">  1        2 0.16624901E+00 0.84361750E+03</pdfrwt>
<pdfrwt beam="2">  1       -2 0.13777891E+00 0.84361750E+03</pdfrwt>
<totfact> 0.84483671E+00</totfact>
</mgrwt>
</event>
<event>
 4    1  0.2202466E-008  0.1337879E+04  0.7818608E-02  0.9000054E-01
          2   -1    0    0  501    0  0.00000000000E+00  0.00000000000E+00  0.32360325016E+04  0.32360325016E+04  0.25500000000E-02 0. -1.
         -2   -1    0    0    0  501 -0.00000000000E+00 -0.00000000000E+00 -0.69345927935E+03  0.69345927936E+03  0.25500000000E-02 0.  1.
    8880022    1    1    2    0    0 -0.10046640285E+04 -0.87016087398E+03  0.38742936386E+03  0.13928470561E+04  0.15294330000E+03 0.  0.
    8880022    1    1    2    0    0  0.10046640285E+04  0.87016087398E+03  0.21551438584E+04  0.25366447249E+04  0.15294330000E+03 0.  0.
<mgrwt>
<rscale>  0 0.13378794E+04</rscale>
<asrwt>0</asrwt>
<pdfrwt beam="1">  1        2 0.49785116E+00 0.13378794E+04</pdfrwt>
<pdfrwt beam="2">  1       -2 0.10668604E+00 0.13378794E+04</pdfrwt>
<totfact> 0.84792030E-01</totfact>
</mgrwt>
</event>
<event>
 4    1  0.2202466E-008  0.2687091E+03  0.7818608E-02  0.1102021E+00
         -2   -1    0    0    0  501 -0.00000000000E+00  0.00000000000E+00  0.28598826008E+03  0.28598826009E+03  0.25500000000E-02 0.  1.
          2   -1    0    0  501    0  0.00000000000E+00 -0.00000000000E+00 -0.60572643579E+03  0.60572643579E+03  0.25500000000E-02 0. -1.
    8880022    1    1    2    0    0 -0.15412259740E+03 -0.15830083081E+03  0.18061771822E+03  0.32377050702E+03  0.15294330000E+03 0.  0.
    8880022    1    1    2    0    0  0.15412259740E+03  0.15830083081E+03 -0.50035589393E+03  0.56794418887E+03  0.15294330000E+03 0.  0.
<mgrwt>
<rscale>  0 0.26870910E+03</rscale>
<asrwt>0</asrwt>
<pdfrwt beam="1">  1        2 0.93188682E-01 0.26870910E+03</pdfrwt>
<pdfrwt beam="2">  1       -2 0.43998194E-01 0.26870910E+03</pdfrwt>
<totfact> 0.24927146E+02</totfact>
</mgrwt>
</event>
<event>
 4    1  0.2202466E-008  0.1063009E+04  0.7818608E-02  0.9242015E-01
         -2   -1    0    0    0  501 -0.00000000000E+00  0.00000000000E+00  0.15403882519E+04  0.15403882519E+04  0.25500000000E-02 0.  1.
          2   -1    0    0  501    0  0.00000000000E+00 -0.00000000000E+00 -0.12929078694E+04  0.12929078694E+04  0.25500000000E-02 0. -1.
    8880022    1    1    2    0    0 -0.89219739046E+03  0.55729786085E+03  0.10555209722E+04  0.14980364699E+04  0.15294330000E+03 0.  0.
    8880022    1    1    2    0    0  0.89219739046E+03 -0.55729786085E+03 -0.80804058972E+03  0.13352596515E+04  0.15294330000E+03 0.  0.
<mgrwt>
<rscale>  0 0.10630093E+04</rscale>
<asrwt>0</asrwt>
<pdfrwt beam="1">  1        2 0.19890890E+00 0.10630093E+04</pdfrwt>
<pdfrwt beam="2">  1       -2 0.23698281E+00 0.10630093E+04</pdfrwt>
<totfact> 0.12745752E+00</totfact>
</mgrwt>
</event>
<event>
 4    1  0.2202466E-008  0.2669115E+03  0.7818608E-02  0.1103060E+00
         -2   -1    0    0    0  501 -0.00000000000E+00  0.00000000000E+00  0.87619467687E+02  0.87619467724E+02  0.25500000000E-02 0.  1.
          2   -1    0    0  501    0  0.00000000000E+00 -0.00000000000E+00 -0.12801757373E+04  0.12801757373E+04  0.25500000000E-02 0. -1.
    8880022    1    1    2    0    0 -0.16243649302E+03  0.14650766816E+03 -0.10093813373E+04  0.10440749247E+04  0.15294330000E+03 0.  0.
    8880022    1    1    2    0    0  0.16243649302E+03 -0.14650766816E+03 -0.18317493225E+03  0.32372028036E+03  0.15294330000E+03 0.  1.
<mgrwt>
<rscale>  0 0.26691153E+03</rscale>
<asrwt>0</asrwt>
<pdfrwt beam="1">  1        2 0.19695010E+00 0.26691153E+03</pdfrwt>
<pdfrwt beam="2">  1       -2 0.13479919E-01 0.26691153E+03</pdfrwt>
<totfact> 0.73806795E+02</totfact>
</mgrwt>
</event>
<event>
 4    1  0.2202466E-008  0.3334017E+03  0.7818608E-02  0.1069642E+00
          2   -1    0    0  501    0  0.00000000000E+00  0.00000000000E+00  0.97947610880E+03  0.97947610880E+03  0.25500000000E-02 0. -1.
         -2   -1    0    0    0  501 -0.00000000000E+00 -0.00000000000E+00 -0.61394521254E+03  0.61394521255E+03  0.25500000000E-02 0.  1.
    8880022    1    1    2    0    0 -0.26342413438E+03  0.13554614805E+03  0.90208228514E+03  0.96172196347E+03  0.15294330000E+03 0. -1.
    8880022    1    1    2    0    0  0.26342413438E+03 -0.13554614805E+03 -0.53655138888E+03  0.63169935789E+03  0.15294330000E+03 0.  0.
<mgrwt>
<rscale>  0 0.33340169E+03</rscale>
<asrwt>0</asrwt>
<pdfrwt beam="1">  1        2 0.15068863E+00 0.33340169E+03</pdfrwt>
<pdfrwt beam="2">  1       -2 0.94453110E-01 0.33340169E+03</pdfrwt>
<totfact> 0.26487888E+01</totfact>
</mgrwt>
</event>
<event>
 4    1  0.2202466E-008  0.7875064E+03  0.7818608E-02  0.9578279E-01
          2   -1    0    0  501    0  0.00000000000E+00  0.00000000000E+00  0.13035293760E+04  0.13035293760E+04  0.25500000000E-02 0. -1.
         -2   -1    0    0    0  501 -0.00000000000E+00 -0.00000000000E+00 -0.10732619199E+04  0.10732619199E+04  0.25500000000E-02 0.  1.
    8880022    1    1    2    0    0  0.61499671562E+03 -0.46749732751E+03 -0.77156903153E+03  0.11024904239E+04  0.15294330000E+03 0.  0.
    8880022    1    1    2    0    0 -0.61499671562E+03  0.46749732751E+03  0.10018364876E+04  0.12743008720E+04  0.15294330000E+03 0.  0.
<mgrwt>
<rscale>  0 0.78750642E+03</rscale>
<asrwt>0</asrwt>
<pdfrwt beam="1">  1        2 0.20054298E+00 0.78750642E+03</pdfrwt>
<pdfrwt beam="2">  1       -2 0.16511722E+00 0.78750642E+03</pdfrwt>
<totfact> 0.38726424E+00</totfact>
</mgrwt>
</event>
<event>
 4    1  0.2202466E-008  0.5379209E+03  0.7818608E-02  0.1004329E+00
          2   -1    0    0  501    0  0.00000000000E+00  0.00000000000E+00  0.12655733428E+04  0.12655733428E+04  0.25500000000E-02 0. -1.
         -2   -1    0    0    0  501 -0.00000000000E+00 -0.00000000000E+00 -0.35348773686E+03  0.35348773687E+03  0.25500000000E-02 0.  1.
    8880022    1    1    2    0    0 -0.45850809940E+03 -0.23608811696E+03 -0.25061030181E+02  0.53850439592E+03  0.15294330000E+03 0.  0.
    8880022    1    1    2    0    0  0.45850809940E+03  0.23608811696E+03  0.93714663613E+03  0.10805566838E+04  0.15294330000E+03 0. -1.
<mgrwt>
<rscale>  0 0.53792093E+03</rscale>
<asrwt>0</asrwt>
<pdfrwt beam="1">  1        2 0.19470359E+00 0.53792093E+03</pdfrwt>
<pdfrwt beam="2">  1       -2 0.54382728E-01 0.53792093E+03</pdfrwt>
<totfact> 0.57456809E+01</totfact>
</mgrwt>
</event>
<event>
 4    1  0.2202466E-008  0.1858405E+04  0.7818608E-02  0.8675843E-01
          2   -1    0    0  501    0  0.00000000000E+00  0.00000000000E+00  0.24650690008E+04  0.24650690008E+04  0.25500000000E-02 0. -1.
         -2   -1    0    0    0  501 -0.00000000000E+00 -0.00000000000E+00 -0.19842652493E+04  0.19842652493E+04  0.25500000000E-02 0.  1.
    8880022    1    1    2    0    0 -0.18520568614E+04  0.12734261099E+02  0.14464984950E+04  0.23550002820E+04  0.15294330000E+03 0.  0.
    8880022    1    1    2    0    0  0.18520568614E+04 -0.12734261099E+02 -0.96569474338E+03  0.20943339681E+04  0.15294330000E+03 0.  0.
<mgrwt>
<rscale>  0 0.18584048E+04</rscale>
<asrwt>0</asrwt>
<pdfrwt beam="1">  1        2 0.37924138E+00 0.18584048E+04</pdfrwt>
<pdfrwt beam="2">  1       -2 0.30527158E+00 0.18584048E+04</pdfrwt>
<totfact> 0.96763568E-02</totfact>
</mgrwt>
</event>
<event>
 4    1  0.2202466E-008  0.2015097E+03  0.7818608E-02  0.1148472E+00
         -2   -1    0    0    0  501 -0.00000000000E+00  0.00000000000E+00  0.38828773720E+03  0.38828773720E+03  0.25500000000E-02 0.  1.
          2   -1    0    0  501    0  0.00000000000E+00 -0.00000000000E+00 -0.75207646184E+03  0.75207646184E+03  0.25500000000E-02 0. -1.
    8880022    1    1    2    0    0  0.11267873582E+03 -0.67215985359E+02 -0.71095096335E+03  0.73895697540E+03  0.15294330000E+03 0.  0.
    8880022    1    1    2    0    0 -0.11267873582E+03  0.67215985359E+02  0.34716223871E+03  0.40140722364E+03  0.15294330000E+03 0.  1.
<mgrwt>
<rscale>  0 0.20150965E+03</rscale>
<asrwt>0</asrwt>
<pdfrwt beam="1">  1        2 0.11570407E+00 0.20150965E+03</pdfrwt>
<pdfrwt beam="2">  1       -2 0.59736575E-01 0.20150965E+03</pdfrwt>
<totfact> 0.10505413E+02</totfact>
</mgrwt>
</event>
<event>
 4    1  0.2202466E-008  0.8870730E+03  0.7818608E-02  0.9441887E-01
         -2   -1    0    0    0  501 -0.00000000000E+00  0.00000000000E+00  0.54944606597E+03  0.54944606598E+03  0.25500000000E-02 0.  1.
          2   -1    0    0  501    0  0.00000000000E+00 -0.00000000000E+00 -0.21148796704E+04  0.21148796704E+04  0.25500000000E-02 0. -1.
    8880022    1    1    2    0    0 -0.81690533150E+03  0.31011688894E+03 -0.25825503802E+02  0.88744882393E+03  0.15294330000E+03 0.  0.
    8880022    1    1    2    0    0  0.81690533150E+03 -0.31011688894E+03 -0.15396081006E+04  0.17768769124E+04  0.15294330000E+03 0.  0.
<mgrwt>
<rscale>  0 0.88707297E+03</rscale>
<asrwt>0</asrwt>
<pdfrwt beam="1">  1        2 0.32536610E+00 0.88707297E+03</pdfrwt>
<pdfrwt beam="2">  1       -2 0.84530165E-01 0.88707297E+03</pdfrwt>
<totfact> 0.71590855E+00</totfact>
</mgrwt>
</event>
<event>
 4    1  0.2202466E-008  0.6582188E+03  0.7818608E-02  0.9791478E-01
         -2   -1    0    0    0  501 -0.00000000000E+00  0.00000000000E+00  0.31757865624E+03  0.31757865625E+03  0.25500000000E-02 0.  1.
          2   -1    0    0  501    0  0.00000000000E+00 -0.00000000000E+00 -0.15132072805E+04  0.15132072805E+04  0.25500000000E-02 0. -1.
    8880022    1    1    2    0    0  0.57675856392E+03 -0.27786673328E+03 -0.88503164618E+03  0.11029655617E+04  0.15294330000E+03 0.  0.
    8880022    1    1    2    0    0 -0.57675856392E+03  0.27786673328E+03 -0.31059697802E+03  0.72782037502E+03  0.15294330000E+03 0.  0.
<mgrwt>
<rscale>  0 0.65821882E+03</rscale>
<asrwt>0</asrwt>
<pdfrwt beam="1">  1        2 0.23280112E+00 0.65821882E+03</pdfrwt>
<pdfrwt beam="2">  1       -2 0.48858256E-01 0.65821882E+03</pdfrwt>
<totfact> 0.51099507E+01</totfact>
</mgrwt>
</event>
<event>
 4    1  0.2202466E-008  0.7919825E+03  0.7818608E-02  0.9571695E-01
          2   -1    0    0  501    0  0.00000000000E+00  0.00000000000E+00  0.24769939964E+04  0.24769939964E+04  0.25500000000E-02 0. -1.
         -2   -1    0    0    0  501 -0.00000000000E+00 -0.00000000000E+00 -0.45467664892E+03  0.45467664892E+03  0.25500000000E-02 0.  1.
    8880022    1    1    2    0    0 -0.78391399740E+02  0.77311021219E+03  0.35451482646E+02  0.79277554981E+03  0.15294330000E+03 0.  0.
    8880022    1    1    2    0    0  0.78391399740E+02 -0.77311021219E+03  0.19868658649E+04  0.21388950955E+04  0.15294330000E+03 0.  0.
<mgrwt>
<rscale>  0 0.79198249E+03</rscale>
<asrwt>0</asrwt>
<pdfrwt beam="1">  1        2 0.38107601E+00 0.79198249E+03</pdfrwt>
<pdfrwt beam="2">  1       -2 0.69950251E-01 0.79198249E+03</pdfrwt>
<totfact> 0.69595266E+00</totfact>
</mgrwt>
</event>
<event>
 4    1  0.2202466E-008  0.1768594E+03  0.7818608E-02  0.1170878E+00
         -2   -1    0    0    0  501 -0.00000000000E+00  0.00000000000E+00  0.49425717723E+02  0.49425717789E+02  0.25500000000E-02 0.  1.
          2   -1    0    0  501    0  0.00000000000E+00 -0.00000000000E+00 -0.15111954309E+04  0.15111954309E+04  0.25500000000E-02 0. -1.
    8880022    1    1    2    0    0 -0.25219535910E+02 -0.85156099483E+02 -0.13257780231E+04  0.13375225628E+04  0.15294330000E+03 0.  0.
    8880022    1    1    2    0    0  0.25219535910E+02  0.85156099483E+02 -0.13599169007E+03  0.22309858595E+03  0.15294330000E+03 0.  0.
<mgrwt>
<rscale>  0 0.17685938E+03</rscale>
<asrwt>0</asrwt>
<pdfrwt beam="1">  1        2 0.23249157E+00 0.17685938E+03</pdfrwt>
<pdfrwt beam="2">  1       -2 0.76039577E-02 0.17685938E+03</pdfrwt>
<totfact> 0.13867882E+03</totfact>
</mgrwt>
</event>
<event>
 4    1  0.2202466E-008  0.1016699E+04  0.7818608E-02  0.9290417E-01
         -2   -1    0    0    0  501 -0.00000000000E+00  0.00000000000E+00  0.91440987204E+03  0.91440987204E+03  0.25500000000E-02 0.  1.
          2   -1    0    0  501    0  0.00000000000E+00 -0.00000000000E+00 -0.19905020331E+04  0.19905020331E+04  0.25500000000E-02 0. -1.
    8880022    1    1    2    0    0 -0.65812993743E+03  0.75970368162E+03  0.41670260928E+03  0.10987799671E+04  0.15294330000E+03 0.  0.
    8880022    1    1    2    0    0  0.65812993743E+03 -0.75970368162E+03 -0.14927947703E+04  0.18061319381E+04  0.15294330000E+03 0.  0.
<mgrwt>
<rscale>  0 0.10166988E+04</rscale>
<asrwt>0</asrwt>
<pdfrwt beam="1">  1        2 0.30623108E+00 0.10166988E+04</pdfrwt>
<pdfrwt beam="2">  1       -2 0.14067844E+00 0.10166988E+04</pdfrwt>
<totfact> 0.23882308E+00</totfact>
</mgrwt>
</event>
<event>
 4    1  0.2202466E-008  0.3628280E+03  0.7818608E-02  0.1057470E+00
          2   -1    0    0  501    0  0.00000000000E+00  0.00000000000E+00  0.24684845885E+04  0.24684845885E+04  0.25500000000E-02 0. -1.
         -2   -1    0    0    0  501 -0.00000000000E+00 -0.00000000000E+00 -0.82008611627E+02  0.82008611667E+02  0.25500000000E-02 0.  1.
    8880022    1    1    2    0    0 -0.39138027938E+02 -0.32668133346E+03  0.43911189176E+03  0.56961687594E+03  0.15294330000E+03 0.  0.
    8880022    1    1    2    0    0  0.39138027938E+02  0.32668133346E+03  0.19473640851E+04  0.19808763242E+04  0.15294330000E+03 0.  0.
<mgrwt>
<rscale>  0 0.36282796E+03</rscale>
<asrwt>0</asrwt>
<pdfrwt beam="1">  1        2 0.37976686E+00 0.36282796E+03</pdfrwt>
<pdfrwt beam="2">  1       -2 0.12616709E-01 0.36282796E+03</pdfrwt>
<totfact> 0.18651370E+02</totfact>
</mgrwt>
</event>
<event>
 4    1  0.2202466E-008  0.1256799E+04  0.7818608E-02  0.9064543E-01
         -2   -1    0    0    0  501 -0.00000000000E+00  0.00000000000E+00  0.11821518810E+04  0.11821518810E+04  0.25500000000E-02 0.  1.
          2   -1    0    0  501    0  0.00000000000E+00 -0.00000000000E+00 -0.22519064924E+04  0.22519064924E+04  0.25500000000E-02 0. -1.
    8880022    1    1    2    0    0 -0.48491285323E+03  0.11493525701E+04 -0.16298171329E+04  0.20581174275E+04  0.15294330000E+03 0.  0.
    8880022    1    1    2    0    0  0.48491285323E+03 -0.11493525701E+04  0.56006252154E+03  0.13759409459E+04  0.15294330000E+03 0.  0.
<mgrwt>
<rscale>  0 0.12567989E+04</rscale>
<asrwt>0</asrwt>
<pdfrwt beam="1">  1        2 0.34644715E+00 0.12567989E+04</pdfrwt>
<pdfrwt beam="2">  1       -2 0.18186952E+00 0.12567989E+04</pdfrwt>
<totfact> 0.82124284E-01</totfact>
</mgrwt>
</event>
<event>
 4    1  0.2202466E-008  0.8599314E+03  0.7818608E-02  0.9477104E-01
          2   -1    0    0  501    0  0.00000000000E+00  0.00000000000E+00  0.19290448355E+04  0.19290448355E+04  0.25500000000E-02 0. -1.
         -2   -1    0    0    0  501 -0.00000000000E+00 -0.00000000000E+00 -0.88805439111E+03  0.88805439111E+03  0.25500000000E-02 0.  1.
    8880022    1    1    2    0    0  0.29491865582E+03 -0.79316660392E+03  0.15823736307E+04  0.18009409306E+04  0.15294330000E+03 0.  0.
    8880022    1    1    2    0    0 -0.29491865582E+03  0.79316660392E+03 -0.54138318636E+03  0.10161582960E+04  0.15294330000E+03 0.  0.
<mgrwt>
<rscale>  0 0.85993135E+03</rscale>
<asrwt>0</asrwt>
<pdfrwt beam="1">  1        2 0.29677612E+00 0.85993135E+03</pdfrwt>
<pdfrwt beam="2">  1       -2 0.13662375E+00 0.85993135E+03</pdfrwt>
<totfact> 0.28468197E+00</totfact>
</mgrwt>
</event>
<event>
 4    1  0.2202466E-008  0.4918810E+03  0.7818608E-02  0.1015920E+00
         -2   -1    0    0    0  501 -0.00000000000E+00  0.00000000000E+00  0.31861395715E+03  0.31861395716E+03  0.25500000000E-02 0.  1.
          2   -1    0    0  501    0  0.00000000000E+00 -0.00000000000E+00 -0.16363120874E+04  0.16363120874E+04  0.25500000000E-02 0. -1.
    8880022    1    1    2    0    0 -0.11370468408E+03 -0.45346064238E+03  0.56720538114E+02  0.49514056775E+03  0.15294330000E+03 0.  0.
    8880022    1    1    2    0    0  0.11370468408E+03  0.45346064238E+03 -0.13744186683E+04  0.14597854768E+04  0.15294330000E+03 0.  0.
<mgrwt>
<rscale>  0 0.49188104E+03</rscale>
<asrwt>0</asrwt>
<pdfrwt beam="1">  1        2 0.25174032E+00 0.49188104E+03</pdfrwt>
<pdfrwt beam="2">  1       -2 0.49017533E-01 0.49188104E+03</pdfrwt>
<totfact> 0.44516602E+01</totfact>
</mgrwt>
</event>
<event>
 4    1  0.2202466E-008  0.7408037E+03  0.7818608E-02  0.9649889E-01
          2   -1    0    0  501    0  0.00000000000E+00  0.00000000000E+00  0.19918719720E+04  0.19918719720E+04  0.25500000000E-02 0. -1.
         -2   -1    0    0    0  501 -0.00000000000E+00 -0.00000000000E+00 -0.12289555058E+04  0.12289555058E+04  0.25500000000E-02 0.  1.
    8880022    1    1    2    0    0  0.69114431897E+03  0.21844454466E+03  0.17999154444E+04  0.19464032852E+04  0.15294330000E+03 0.  0.
    8880022    1    1    2    0    0 -0.69114431897E+03 -0.21844454466E+03 -0.10369989782E+04  0.12744241925E+04  0.15294330000E+03 0.  0.
<mgrwt>
<rscale>  0 0.74080371E+03</rscale>
<asrwt>0</asrwt>
<pdfrwt beam="1">  1        2 0.30644184E+00 0.74080371E+03</pdfrwt>
<pdfrwt beam="2">  1       -2 0.18907008E+00 0.74080371E+03</pdfrwt>
<totfact> 0.11082101E+00</totfact>
</mgrwt>
</event>
<event>
 4    1  0.2202466E-008  0.1661074E+04  0.7818608E-02  0.8783882E-01
          2   -1    0    0  501    0  0.00000000000E+00  0.00000000000E+00  0.18680854485E+04  0.18680854485E+04  0.25500000000E-02 0. -1.
         -2   -1    0    0    0  501 -0.00000000000E+00 -0.00000000000E+00 -0.15695342797E+04  0.15695342797E+04  0.25500000000E-02 0.  1.
    8880022    1    1    2    0    0  0.94105773109E+03 -0.13602158116E+04  0.56661175786E+03  0.17550547697E+04  0.15294330000E+03 0.  0.
    8880022    1    1    2    0    0 -0.94105773109E+03  0.13602158116E+04 -0.26806058902E+03  0.16825649586E+04  0.15294330000E+03 0.  0.
<mgrwt>
<rscale>  0 0.16610745E+04</rscale>
<asrwt>0</asrwt>
<pdfrwt beam="1">  1        2 0.28739776E+00 0.16610745E+04</pdfrwt>
<pdfrwt beam="2">  1       -2 0.24146681E+00 0.16610745E+04</pdfrwt>
<totfact> 0.52977829E-01</totfact>
</mgrwt>
</event>
<event>
 4    1  0.2202466E-008  0.3495715E+03  0.7818608E-02  0.1062791E+00
         -2   -1    0    0    0  501 -0.00000000000E+00  0.00000000000E+00  0.10651747467E+04  0.10651747467E+04  0.25500000000E-02 0.  1.
          2   -1    0    0  501    0  0.00000000000E+00 -0.00000000000E+00 -0.16020031220E+04  0.16020031220E+04  0.25500000000E-02 0. -1.
    8880022    1    1    2    0    0 -0.47159905315E+01 -0.31430290042E+03  0.10165371132E+04  0.10749641433E+04  0.15294330000E+03 0.  0.
    8880022    1    1    2    0    0  0.47159905315E+01  0.31430290042E+03 -0.15533654884E+04  0.15922137254E+04  0.15294330000E+03 0.  0.
<mgrwt>
<rscale>  0 0.34957146E+03</rscale>
<asrwt>0</asrwt>
<pdfrwt beam="1">  1        2 0.24646202E+00 0.34957146E+03</pdfrwt>
<pdfrwt beam="2">  1       -2 0.16387304E+00 0.34957146E+03</pdfrwt>
<totfact> 0.29819307E+00</totfact>
</mgrwt>
</event>
<event>
 4    1  0.2202466E-008  0.9164862E+03  0.7818608E-02  0.9405204E-01
          2   -1    0    0  501    0  0.00000000000E+00  0.00000000000E+00  0.10483144814E+04  0.10483144814E+04  0.25500000000E-02 0. -1.
         -2   -1    0    0    0  501 -0.00000000000E+00 -0.00000000000E+00 -0.11328487909E+04  0.11328487909E+04  0.25500000000E-02 0.  1.
    8880022    1    1    2    0    0 -0.25047105056E+03  0.86822779458E+03  0.54778186531E+03  0.10677133864E+04  0.15294330000E+03 0.  0.
    8880022    1    1    2    0    0  0.25047105056E+03 -0.86822779458E+03 -0.63231617488E+03  0.11134498859E+04  0.15294330000E+03 0.  0.
<mgrwt>
<rscale>  0 0.91648617E+03</rscale>
<asrwt>0</asrwt>
<pdfrwt beam="1">  1        2 0.16127915E+00 0.91648617E+03</pdfrwt>
<pdfrwt beam="2">  1       -2 0.17428443E+00 0.91648617E+03</pdfrwt>
<totfact> 0.46651713E+00</totfact>
</mgrwt>
</event>
<event>
 4    1  0.2202466E-008  0.1709265E+03  0.7818608E-02  0.1176885E+00
         -2   -1    0    0    0  501 -0.00000000000E+00  0.00000000000E+00  0.63210908910E+02  0.63210908961E+02  0.25500000000E-02 0.  1.
          2   -1    0    0  501    0  0.00000000000E+00 -0.00000000000E+00 -0.15720703080E+04  0.15720703080E+04  0.25500000000E-02 0. -1.
    8880022    1    1    2    0    0 -0.72669402466E+02 -0.23310189451E+02 -0.67419358609E+02  0.18374229213E+03  0.15294330000E+03 0.  0.
    8880022    1    1    2    0    0  0.72669402466E+02  0.23310189451E+02 -0.14414400405E+04  0.14515389248E+04  0.15294330000E+03 0. -1.
<mgrwt>
<rscale>  0 0.17092648E+03</rscale>
<asrwt>0</asrwt>
<pdfrwt beam="1">  1        2 0.24185694E+00 0.17092648E+03</pdfrwt>
<pdfrwt beam="2">  1       -2 0.97247564E-02 0.17092648E+03</pdfrwt>
<totfact> 0.87794563E+02</totfact>
</mgrwt>
</event>
<event>
 4    1  0.2202466E-008  0.2825402E+03  0.7818608E-02  0.1094310E+00
          2   -1    0    0  501    0  0.00000000000E+00  0.00000000000E+00  0.65566003114E+03  0.65566003115E+03  0.25500000000E-02 0. -1.
         -2   -1    0    0    0  501 -0.00000000000E+00 -0.00000000000E+00 -0.60670707077E+03  0.60670707077E+03  0.25500000000E-02 0.  1.
    8880022    1    1    2    0    0 -0.12743920656E+03  0.20049084282E+03  0.58878443327E+03  0.65306668212E+03  0.15294330000E+03 0.  0.
    8880022    1    1    2    0    0  0.12743920656E+03 -0.20049084282E+03 -0.53983147289E+03  0.60930041980E+03  0.15294330000E+03 0.  0.
<mgrwt>
<rscale>  0 0.28254023E+03</rscale>
<asrwt>0</asrwt>
<pdfrwt beam="1">  1        2 0.10087077E+00 0.28254023E+03</pdfrwt>
<pdfrwt beam="2">  1       -2 0.93339549E-01 0.28254023E+03</pdfrwt>
<totfact> 0.46212929E+01</totfact>
</mgrwt>
</event>
<event>
 4    1  0.2202466E-008  0.1533875E+04  0.7818608E-02  0.8862234E-01
         -2   -1    0    0    0  501 -0.00000000000E+00  0.00000000000E+00  0.12720116765E+04  0.12720116765E+04  0.25500000000E-02 0.  1.
          2   -1    0    0  501    0  0.00000000000E+00 -0.00000000000E+00 -0.22138417796E+04  0.22138417796E+04  0.25500000000E-02 0. -1.
    8880022    1    1    2    0    0 -0.13749712715E+03  0.15200244140E+04  0.23600985664E+03  0.15519252509E+04  0.15294330000E+03 0.  0.
    8880022    1    1    2    0    0  0.13749712715E+03 -0.15200244140E+04 -0.11778399597E+04  0.19339282052E+04  0.15294330000E+03 0.  0.
<mgrwt>
<rscale>  0 0.15338746E+04</rscale>
<asrwt>0</asrwt>
<pdfrwt beam="1">  1        2 0.34059104E+00 0.15338746E+04</pdfrwt>
<pdfrwt beam="2">  1       -2 0.19569410E+00 0.15338746E+04</pdfrwt>
<totfact> 0.67426477E-01</totfact>
</mgrwt>
</event>
<event>
 4    1  0.2202466E-008  0.7520707E+03  0.7818608E-02  0.9632107E-01
          2   -1    0    0  501    0  0.00000000000E+00  0.00000000000E+00  0.13308143238E+04  0.13308143238E+04  0.25500000000E-02 0. -1.
         -2   -1    0    0    0  501 -0.00000000000E+00 -0.00000000000E+00 -0.49798143597E+03  0.49798143597E+03  0.25500000000E-02 0.  1.
    8880022    1    1    2    0    0  0.28584668961E+03 -0.67860910011E+03  0.76644467415E+03  0.10738006017E+04  0.15294330000E+03 0.  0.
    8880022    1    1    2    0    0 -0.28584668961E+03  0.67860910011E+03  0.66388213650E+02  0.75499515802E+03  0.15294330000E+03 0.  0.
<mgrwt>
<rscale>  0 0.75207067E+03</rscale>
<asrwt>0</asrwt>
<pdfrwt beam="1">  1        2 0.20474067E+00 0.75207067E+03</pdfrwt>
<pdfrwt beam="2">  1       -2 0.76612528E-01 0.75207067E+03</pdfrwt>
<totfact> 0.24656908E+01</totfact>
</mgrwt>
</event>
<event>
 4    1  0.2202466E-008  0.8590733E+03  0.7818608E-02  0.9478239E-01
          2   -1    0    0  501    0  0.00000000000E+00  0.00000000000E+00  0.22597311681E+04  0.22597311681E+04  0.25500000000E-02 0. -1.
         -2   -1    0    0    0  501 -0.00000000000E+00 -0.00000000000E+00 -0.97372899583E+03  0.97372899584E+03  0.25500000000E-02 0.  1.
    8880022    1    1    2    0    0  0.60710126457E+03  0.58825441900E+03  0.19610061122E+04  0.21409231261E+04  0.15294330000E+03 0.  0.
    8880022    1    1    2    0    0 -0.60710126457E+03 -0.58825441900E+03 -0.67500393996E+03  0.10925370378E+04  0.15294330000E+03 0.  0.
<mgrwt>
<rscale>  0 0.85907326E+03</rscale>
<asrwt>0</asrwt>
<pdfrwt beam="1">  1        2 0.34765095E+00 0.85907326E+03</pdfrwt>
<pdfrwt beam="2">  1       -2 0.14980446E+00 0.85907326E+03</pdfrwt>
<totfact> 0.14713159E+00</totfact>
</mgrwt>
</event>
<event>
 4    1  0.2202466E-008  0.1339068E+04  0.7818608E-02  0.8999145E-01
         -2   -1    0    0    0  501 -0.00000000000E+00  0.00000000000E+00  0.17002280340E+04  0.17002280340E+04  0.25500000000E-02 0.  1.
          2   -1    0    0  501    0  0.00000000000E+00 -0.00000000000E+00 -0.17250504614E+04  0.17250504614E+04  0.25500000000E-02 0. -1.
    8880022    1    1    2    0    0  0.13260846433E+04 -0.10587972116E+03 -0.10800892413E+04  0.17203765340E+04  0.15294330000E+03 0. -1.
    8880022    1    1    2    0    0 -0.13260846433E+04  0.10587972116E+03  0.10552668139E+04  0.17049019614E+04  0.15294330000E+03 0.  0.
<mgrwt>
<rscale>  0 0.13390678E+04</rscale>
<asrwt>0</asrwt>
<pdfrwt beam="1">  1        2 0.26539238E+00 0.13390678E+04</pdfrwt>
<pdfrwt beam="2">  1       -2 0.26157354E+00 0.13390678E+04</pdfrwt>
<totfact> 0.49531896E-01</totfact>
</mgrwt>
</event>
<event>
 4    1  0.2202466E-008  0.1242666E+04  0.7818608E-02  0.9076309E-01
         -2   -1    0    0    0  501 -0.00000000000E+00  0.00000000000E+00  0.71599342728E+03  0.71599342729E+03  0.25500000000E-02 0.  1.
          2   -1    0    0  501    0  0.00000000000E+00 -0.00000000000E+00 -0.38178637728E+04  0.38178637728E+04  0.25500000000E-02 0. -1.
    8880022    1    1    2    0    0  0.94399277952E+03 -0.79353976305E+03 -0.55639018342E+02  0.12439112013E+04  0.15294330000E+03 0.  0.
    8880022    1    1    2    0    0 -0.94399277952E+03  0.79353976305E+03 -0.30462313272E+04  0.32899459988E+04  0.15294330000E+03 0.  0.
<mgrwt>
<rscale>  0 0.12426662E+04</rscale>
<asrwt>0</asrwt>
<pdfrwt beam="1">  1        2 0.58736365E+00 0.12426662E+04</pdfrwt>
<pdfrwt beam="2">  1       -2 0.11015284E+00 0.12426662E+04</pdfrwt>
<totfact> 0.31170461E-01</totfact>
</mgrwt>
</event>
<event>
 4    1  0.2202466E-008  0.1407207E+04  0.7818608E-02  0.8948618E-01
         -2   -1    0    0    0  501 -0.00000000000E+00  0.00000000000E+00  0.12408485978E+04  0.12408485978E+04  0.25500000000E-02 0.  1.
          2   -1    0    0  501    0  0.00000000000E+00 -0.00000000000E+00 -0.26708479666E+04  0.26708479666E+04  0.25500000000E-02 0. -1.
    8880022    1    1    2    0    0 -0.84624616154E+03 -0.11138699663E+04  0.52582599483E+03  0.15022394941E+04  0.15294330000E+03 0.  0.
    8880022    1    1    2    0    0  0.84624616154E+03  0.11138699663E+04 -0.19558253637E+04  0.24094570703E+04  0.15294330000E+03 0.  0.
<mgrwt>
<rscale>  0 0.14072066E+04</rscale>
<asrwt>0</asrwt>
<pdfrwt beam="1">  1        2 0.41089969E+00 0.14072066E+04</pdfrwt>
<pdfrwt beam="2">  1       -2 0.19089978E+00 0.14072066E+04</pdfrwt>
<totfact> 0.40196728E-01</totfact>
</mgrwt>
</event>
<event>
 4    1  0.2202466E-008  0.6841343E+03  0.7818608E-02  0.9744756E-01
         -2   -1    0    0    0  501 -0.00000000000E+00  0.00000000000E+00  0.32867773746E+03  0.32867773747E+03  0.25500000000E-02 0.  1.
          2   -1    0    0  501    0  0.00000000000E+00 -0.00000000000E+00 -0.14668097354E+04  0.14668097354E+04  0.25500000000E-02 0. -1.
    8880022    1    1    2    0    0 -0.35078773600E+03 -0.56709438972E+03 -0.41571166398E+03  0.80053477323E+03  0.15294330000E+03 0.  0.
    8880022    1    1    2    0    0  0.35078773600E+03  0.56709438972E+03 -0.72242033400E+03  0.99495269966E+03  0.15294330000E+03 0.  0.
<mgrwt>
<rscale>  0 0.68413430E+03</rscale>
<asrwt>0</asrwt>
<pdfrwt beam="1">  1        2 0.22566303E+00 0.68413430E+03</pdfrwt>
<pdfrwt beam="2">  1       -2 0.50565806E-01 0.68413430E+03</pdfrwt>
<totfact> 0.50419450E+01</totfact>
</mgrwt>
</event>
<event>
 4    1  0.2202466E-008  0.4726706E+03  0.7818608E-02  0.1021169E+00
         -2   -1    0    0    0  501 -0.00000000000E+00  0.00000000000E+00  0.23212391817E+03  0.23212391818E+03  0.25500000000E-02 0.  1.
          2   -1    0    0  501    0  0.00000000000E+00 -0.00000000000E+00 -0.14566720839E+04  0.14566720839E+04  0.25500000000E-02 0. -1.
    8880022    1    1    2    0    0  0.13670960204E+03 -0.42583600766E+03 -0.12045111673E+03  0.48777653208E+03  0.15294330000E+03 0.  1.
    8880022    1    1    2    0    0 -0.13670960204E+03  0.42583600766E+03 -0.11040970490E+04  0.12010194700E+04  0.15294330000E+03 0.  0.
<mgrwt>
<rscale>  0 0.47267058E+03</rscale>
<asrwt>0</asrwt>
<pdfrwt beam="1">  1        2 0.22410339E+00 0.47267058E+03</pdfrwt>
<pdfrwt beam="2">  1       -2 0.35711373E-01 0.47267058E+03</pdfrwt>
<totfact> 0.10389664E+02</totfact>
</mgrwt>
</event>
<event>
 4    1  0.2202466E-008  0.6088342E+03  0.7818608E-02  0.9887246E-01
          2   -1    0    0  501    0  0.00000000000E+00  0.00000000000E+00  0.36093617636E+04  0.36093617636E+04  0.25500000000E-02 0. -1.
         -2   -1    0    0    0  501 -0.00000000000E+00 -0.00000000000E+00 -0.18859459537E+03  0.18859459538E+03  0.25500000000E-02 0.  1.
    8880022    1    1    2    0    0  0.46340334154E+03 -0.36406700156E+03  0.29919464831E+04  0.30532642941E+04  0.15294330000E+03 0.  0.
    8880022    1    1    2    0    0 -0.46340334154E+03  0.36406700156E+03  0.42882068516E+03  0.74469206496E+03  0.15294330000E+03 0.  0.
<mgrwt>
<rscale>  0 0.60883421E+03</rscale>
<asrwt>0</asrwt>
<pdfrwt beam="1">  1        2 0.55528636E+00 0.60883421E+03</pdfrwt>
<pdfrwt beam="2">  1       -2 0.29014557E-01 0.60883421E+03</pdfrwt>
<totfact> 0.83024110E+00</totfact>
</mgrwt>
</event>
<event>
 4    1  0.2202466E-008  0.7640395E+03  0.7818608E-02  0.9613579E-01
         -2   -1    0    0    0  501 -0.00000000000E+00  0.00000000000E+00  0.31925790309E+03  0.31925790310E+03  0.25500000000E-02 0.  1.
          2   -1    0    0  501    0  0.00000000000E+00 -0.00000000000E+00 -0.27305999838E+04  0.27305999838E+04  0.25500000000E-02 0. -1.
    8880022    1    1    2    0    0  0.42562423532E+03 -0.61579920859E+03 -0.20821732313E+04  0.22179273373E+04  0.15294330000E+03 0.  0.
    8880022    1    1    2    0    0 -0.42562423532E+03  0.61579920859E+03 -0.32916884933E+03  0.83193054961E+03  0.15294330000E+03 0.  0.
<mgrwt>
<rscale>  0 0.76403947E+03</rscale>
<asrwt>0</asrwt>
<pdfrwt beam="1">  1        2 0.42009229E+00 0.76403947E+03</pdfrwt>
<pdfrwt beam="2">  1       -2 0.49116602E-01 0.76403947E+03</pdfrwt>
<totfact> 0.10515573E+01</totfact>
</mgrwt>
</event>
<event>
 4    1  0.2202466E-008  0.1491766E+04  0.7818608E-02  0.8889947E-01
          2   -1    0    0  501    0  0.00000000000E+00  0.00000000000E+00  0.15908783976E+04  0.15908783976E+04  0.25500000000E-02 0. -1.
         -2   -1    0    0    0  501 -0.00000000000E+00 -0.00000000000E+00 -0.19510515543E+04  0.19510515543E+04  0.25500000000E-02 0.  1.
    8880022    1    1    2    0    0 -0.24079647286E+03  0.14642373155E+04  0.76209150596E+03  0.16751564028E+04  0.15294330000E+03 0.  0.
    8880022    1    1    2    0    0  0.24079647286E+03 -0.14642373155E+04 -0.11222646626E+04  0.18667735490E+04  0.15294330000E+03 0.  0.
<mgrwt>
<rscale>  0 0.14917659E+04</rscale>
<asrwt>0</asrwt>
<pdfrwt beam="1">  1        2 0.24475052E+00 0.14917659E+04</pdfrwt>
<pdfrwt beam="2">  1       -2 0.30016178E+00 0.14917659E+04</pdfrwt>
<totfact> 0.33670356E-01</totfact>
</mgrwt>
</event>
<event>
 4    1  0.2202466E-008  0.4407894E+03  0.7818608E-02  0.1030505E+00
         -2   -1    0    0    0  501 -0.00000000000E+00  0.00000000000E+00  0.26701768659E+03  0.26701768661E+03  0.25500000000E-02 0.  1.
          2   -1    0    0  501    0  0.00000000000E+00 -0.00000000000E+00 -0.20661005948E+04  0.20661005948E+04  0.25500000000E-02 0. -1.
    8880022    1    1    2    0    0 -0.14144276103E+03 -0.38845541103E+03  0.39386493730E+02  0.44254560207E+03  0.15294330000E+03 0.  0.
    8880022    1    1    2    0    0  0.14144276103E+03  0.38845541103E+03 -0.18384694020E+04  0.18905726794E+04  0.15294330000E+03 0.  0.
<mgrwt>
<rscale>  0 0.44078942E+03</rscale>
<asrwt>0</asrwt>
<pdfrwt beam="1">  1        2 0.31786162E+00 0.44078942E+03</pdfrwt>
<pdfrwt beam="2">  1       -2 0.41079645E-01 0.44078942E+03</pdfrwt>
<totfact> 0.37480178E+01</totfact>
</mgrwt>
</event>
<event>
 4    1  0.2202466E-008  0.8985740E+03  0.7818608E-02  0.9427366E-01
         -2   -1    0    0    0  501 -0.00000000000E+00  0.00000000000E+00  0.92920426391E+03  0.92920426391E+03  0.25500000000E-02 0.  1.
          2   -1    0    0  501    0  0.00000000000E+00 -0.00000000000E+00 -0.23353063394E+04  0.23353063394E+04  0.25500000000E-02 0. -1.
    8880022    1    1    2    0    0 -0.23947080758E+02  0.88513844436E+03 -0.19964586704E+04  0.21893566187E+04  0.15294330000E+03 0.  0.
    8880022    1    1    2    0    0  0.23947080758E+02 -0.88513844436E+03  0.59035659492E+03  0.10751539846E+04  0.15294330000E+03 0.  0.
<mgrwt>
<rscale>  0 0.89857397E+03</rscale>
<asrwt>0</asrwt>
<pdfrwt beam="1">  1        2 0.35927790E+00 0.89857397E+03</pdfrwt>
<pdfrwt beam="2">  1       -2 0.14295450E+00 0.89857397E+03</pdfrwt>
<totfact> 0.15002297E+00</totfact>
</mgrwt>
</event>
<event>
 4    1  0.2202466E-008  0.1787184E+04  0.7818608E-02  0.8713145E-01
         -2   -1    0    0    0  501 -0.00000000000E+00  0.00000000000E+00  0.19243974342E+04  0.19243974342E+04  0.25500000000E-02 0.  1.
          2   -1    0    0  501    0  0.00000000000E+00 -0.00000000000E+00 -0.31372610529E+04  0.31372610529E+04  0.25500000000E-02 0. -1.
    8880022    1    1    2    0    0  0.55351209774E+03  0.16924122912E+04 -0.23432416533E+04  0.29469998481E+04  0.15294330000E+03 0.  0.
    8880022    1    1    2    0    0 -0.55351209774E+03 -0.16924122912E+04  0.11303780345E+04  0.21146586391E+04  0.15294330000E+03 0.  0.
<mgrwt>
<rscale>  0 0.17871840E+04</rscale>
<asrwt>0</asrwt>
<pdfrwt beam="1">  1        2 0.48265555E+00 0.17871840E+04</pdfrwt>
<pdfrwt beam="2">  1       -2 0.29606114E+00 0.17871840E+04</pdfrwt>
<totfact> 0.43379905E-02</totfact>
</mgrwt>
</event>
<event>
 4    1  0.2202466E-008  0.5076986E+03  0.7818608E-02  0.1011789E+00
          2   -1    0    0  501    0  0.00000000000E+00  0.00000000000E+00  0.84988799949E+03  0.84988799949E+03  0.25500000000E-02 0. -1.
         -2   -1    0    0    0  501 -0.00000000000E+00 -0.00000000000E+00 -0.80888178624E+03  0.80888178624E+03  0.25500000000E-02 0.  1.
    8880022    1    1    2    0    0 -0.17257052463E+03  0.45231147852E+03  0.67621933364E+03  0.84559476097E+03  0.15294330000E+03 0.  0.
    8880022    1    1    2    0    0  0.17257052463E+03 -0.45231147852E+03 -0.63521312039E+03  0.81317502477E+03  0.15294330000E+03 0.  0.
<mgrwt>
<rscale>  0 0.50769864E+03</rscale>
<asrwt>0</asrwt>
<pdfrwt beam="1">  1        2 0.13075200E+00 0.50769864E+03</pdfrwt>
<pdfrwt beam="2">  1       -2 0.12444335E+00 0.50769864E+03</pdfrwt>
<totfact> 0.16114768E+01</totfact>
</mgrwt>
</event>
<event>
 4    1  0.2202466E-008  0.6474381E+03  0.7818608E-02  0.9811598E-01
         -2   -1    0    0    0  501 -0.00000000000E+00  0.00000000000E+00  0.36746148500E+03  0.36746148501E+03  0.25500000000E-02 0.  1.
          2   -1    0    0  501    0  0.00000000000E+00 -0.00000000000E+00 -0.20082854312E+04  0.20082854312E+04  0.25500000000E-02 0. -1.
    8880022    1    1    2    0    0  0.19929862251E+03  0.59671143823E+03 -0.16011491387E+04  0.17270942936E+04  0.15294330000E+03 0.  0.
    8880022    1    1    2    0    0 -0.19929862251E+03 -0.59671143823E+03 -0.39674807449E+02  0.64865262261E+03  0.15294330000E+03 0.  0.
<mgrwt>
<rscale>  0 0.64743813E+03</rscale>
<asrwt>0</asrwt>
<pdfrwt beam="1">  1        2 0.30896698E+00 0.64743813E+03</pdfrwt>
<pdfrwt beam="2">  1       -2 0.56532537E-01 0.64743813E+03</pdfrwt>
<totfact> 0.20380321E+01</totfact>
</mgrwt>
</event>
<event>
 4    1  0.2202466E-008  0.1148792E+04  0.7818608E-02  0.9158899E-01
         -2   -1    0    0    0  501 -0.00000000000E+00  0.00000000000E+00  0.43525084440E+03  0.43525084441E+03  0.25500000000E-02 0.  1.
          2   -1    0    0  501    0  0.00000000000E+00 -0.00000000000E+00 -0.31205954999E+04  0.31205954999E+04  0.25500000000E-02 0. -1.
    8880022    1    1    2    0    0 -0.11111169450E+04 -0.24849537250E+03 -0.16420807127E+04  0.20040338160E+04  0.15294330000E+03 0.  0.
    8880022    1    1    2    0    0  0.11111169450E+04  0.24849537250E+03 -0.10432639428E+04  0.15518125283E+04  0.15294330000E+03 0.  0.
<mgrwt>
<rscale>  0 0.11487917E+04</rscale>
<asrwt>0</asrwt>
<pdfrwt beam="1">  1        2 0.48009160E+00 0.11487917E+04</pdfrwt>
<pdfrwt beam="2">  1       -2 0.66961670E-01 0.11487917E+04</pdfrwt>
<totfact> 0.30013511E+00</totfact>
</mgrwt>
</event>
<event>
 4    1  0.2202466E-008  0.9536543E+03  0.7818608E-02  0.9360889E-01
          2   -1    0    0  501    0  0.00000000000E+00  0.00000000000E+00  0.14039464674E+04  0.14039464674E+04  0.25500000000E-02 0. -1.
         -2   -1    0    0    0  501 -0.00000000000E+00 -0.00000000000E+00 -0.74390753342E+03  0.74390753342E+03  0.25500000000E-02 0.  1.
    8880022    1    1    2    0    0  0.60397008991E+03  0.72200067492E+03 -0.56015124584E+02  0.95529795943E+03  0.15294330000E+03 0.  0.
    8880022    1    1    2    0    0 -0.60397008991E+03 -0.72200067492E+03  0.71605405859E+03  0.11925560414E+04  0.15294330000E+03 0.  0.
<mgrwt>
<rscale>  0 0.95365429E+03</rscale>
<asrwt>0</asrwt>
<pdfrwt beam="1">  1        2 0.21599176E+00 0.95365429E+03</pdfrwt>
<pdfrwt beam="2">  1       -2 0.11444731E+00 0.95365429E+03</pdfrwt>
<totfact> 0.85766435E+00</totfact>
</mgrwt>
</event>
<event>
 4    1  0.2202466E-008  0.8860014E+03  0.7818608E-02  0.9443251E-01
          2   -1    0    0  501    0  0.00000000000E+00  0.00000000000E+00  0.19351029921E+04  0.19351029921E+04  0.25500000000E-02 0. -1.
         -2   -1    0    0    0  501 -0.00000000000E+00 -0.00000000000E+00 -0.76719930571E+03  0.76719930571E+03  0.25500000000E-02 0.  1.
    8880022    1    1    2    0    0  0.80562180916E+03 -0.33552997436E+03 -0.34357429069E+03  0.95028512001E+03  0.15294330000E+03 0.  0.
    8880022    1    1    2    0    0 -0.80562180916E+03  0.33552997436E+03  0.15114779771E+04  0.17520171778E+04  0.15294330000E+03 0.  0.
<mgrwt>
<rscale>  0 0.88600142E+03</rscale>
<asrwt>0</asrwt>
<pdfrwt beam="1">  1        2 0.29770815E+00 0.88600142E+03</pdfrwt>
<pdfrwt beam="2">  1       -2 0.11803066E+00 0.88600142E+03</pdfrwt>
<totfact> 0.40703834E+00</totfact>
</mgrwt>
</event>
<event>
 4    1  0.2202466E-008  0.5937004E+03  0.7818608E-02  0.9918563E-01
         -2   -1    0    0    0  501 -0.00000000000E+00  0.00000000000E+00  0.29859175480E+03  0.29859175482E+03  0.25500000000E-02 0.  1.
          2   -1    0    0  501    0  0.00000000000E+00 -0.00000000000E+00 -0.15505667685E+04  0.15505667685E+04  0.25500000000E-02 0. -1.
    8880022    1    1    2    0    0 -0.52674532137E+03  0.22721762243E+03 -0.17428389791E+03  0.61875278716E+03  0.15294330000E+03 0.  0.
    8880022    1    1    2    0    0  0.52674532137E+03 -0.22721762243E+03 -0.10776911158E+04  0.12304057362E+04  0.15294330000E+03 0.  0.
<mgrwt>
<rscale>  0 0.59370037E+03</rscale>
<asrwt>0</asrwt>
<pdfrwt beam="1">  1        2 0.23854873E+00 0.59370037E+03</pdfrwt>
<pdfrwt beam="2">  1       -2 0.45937194E-01 0.59370037E+03</pdfrwt>
<totfact> 0.55603595E+01</totfact>
</mgrwt>
</event>
<event>
 4    1  0.2202466E-008  0.1683735E+04  0.7818608E-02  0.8770696E-01
          2   -1    0    0  501    0  0.00000000000E+00  0.00000000000E+00  0.15428917086E+04  0.15428917086E+04  0.25500000000E-02 0. -1.
         -2   -1    0    0    0  501 -0.00000000000E+00 -0.00000000000E+00 -0.30408635253E+04  0.30408635253E+04  0.25500000000E-02 0.  1.
    8880022    1    1    2    0    0  0.22058430791E+03  0.16622014075E+04  0.69280798421E+03  0.18206991821E+04  0.15294330000E+03 0.  0.
    8880022    1    1    2    0    0 -0.22058430791E+03 -0.16622014075E+04 -0.21907798009E+04  0.27630560517E+04  0.15294330000E+03 0.  0.
<mgrwt>
<rscale>  0 0.16837347E+04</rscale>
<asrwt>0</asrwt>
<pdfrwt beam="1">  1        2 0.23736795E+00 0.16837347E+04</pdfrwt>
<pdfrwt beam="2">  1       -2 0.46782516E+00 0.16837347E+04</pdfrwt>
<totfact> 0.29186203E-02</totfact>
</mgrwt>
</event>
<event>
 4    1  0.2202466E-008  0.8234040E+03  0.7818608E-02  0.9526745E-01
          2   -1    0    0  501    0  0.00000000000E+00  0.00000000000E+00  0.77293084161E+03  0.77293084162E+03  0.25500000000E-02 0. -1.
         -2   -1    0    0    0  501 -0.00000000000E+00 -0.00000000000E+00 -0.11753306832E+04  0.11753306832E+04  0.25500000000E-02 0.  1.
    8880022    1    1    2    0    0 -0.16931873361E+03 -0.79115967503E+03 -0.69183678283E+03  0.10754683873E+04  0.15294330000E+03 0.  0.
    8880022    1    1    2    0    0  0.16931873361E+03  0.79115967503E+03  0.28943694125E+03  0.87279313753E+03  0.15294330000E+03 0.  0.
<mgrwt>
<rscale>  0 0.82340398E+03</rscale>
<asrwt>0</asrwt>
<pdfrwt beam="1">  1        2 0.11891244E+00 0.82340398E+03</pdfrwt>
<pdfrwt beam="2">  1       -2 0.18082011E+00 0.82340398E+03</pdfrwt>
<totfact> 0.65181388E+00</totfact>
</mgrwt>
</event>
<event>
 4    1  0.2202466E-008  0.3835311E+03  0.7818608E-02  0.1049636E+00
          2   -1    0    0  501    0  0.00000000000E+00  0.00000000000E+00  0.21085966172E+04  0.21085966172E+04  0.25500000000E-02 0. -1.
         -2   -1    0    0    0  501 -0.00000000000E+00 -0.00000000000E+00 -0.14186265144E+03  0.14186265147E+03  0.25500000000E-02 0.  1.
    8880022    1    1    2    0    0  0.10314997631E+03  0.33625066426E+03  0.17855661379E+04  0.18262920119E+04  0.15294330000E+03 0.  0.
    8880022    1    1    2    0    0 -0.10314997631E+03 -0.33625066426E+03  0.18116782778E+03  0.42416725671E+03  0.15294330000E+03 0.  1.
<mgrwt>
<rscale>  0 0.38353107E+03</rscale>
<asrwt>0</asrwt>
<pdfrwt beam="1">  1        2 0.32439947E+00 0.38353107E+03</pdfrwt>
<pdfrwt beam="2">  1       -2 0.21825024E-01 0.38353107E+03</pdfrwt>
<totfact> 0.11527241E+02</totfact>
</mgrwt>
</event>
<event>
 4    1  0.2202466E-008  0.1171733E+04  0.7818608E-02  0.9137965E-01
         -2   -1    0    0    0  501 -0.00000000000E+00  0.00000000000E+00  0.63982120224E+03  0.63982120224E+03  0.25500000000E-02 0.  1.
          2   -1    0    0  501    0  0.00000000000E+00 -0.00000000000E+00 -0.30448631666E+04  0.30448631666E+04  0.25500000000E-02 0. -1.
    8880022    1    1    2    0    0  0.11416036483E+04 -0.21518963604E+03 -0.22036052627E+04  0.24957630649E+04  0.15294330000E+03 0.  0.
    8880022    1    1    2    0    0 -0.11416036483E+04  0.21518963604E+03 -0.20143670164E+03  0.11889213039E+04  0.15294330000E+03 0.  0.
<mgrwt>
<rscale>  0 0.11717325E+04</rscale>
<asrwt>0</asrwt>
<pdfrwt beam="1">  1        2 0.46844048E+00 0.11717325E+04</pdfrwt>
<pdfrwt beam="2">  1       -2 0.98434033E-01 0.11717325E+04</pdfrwt>
<totfact> 0.13922930E+00</totfact>
</mgrwt>
</event>
<event>
 4    1  0.2202466E-008  0.7418096E+03  0.7818608E-02  0.9648288E-01
          2   -1    0    0  501    0  0.00000000000E+00  0.00000000000E+00  0.92351260487E+03  0.92351260488E+03  0.25500000000E-02 0. -1.
         -2   -1    0    0    0  501 -0.00000000000E+00 -0.00000000000E+00 -0.16966001825E+04  0.16966001825E+04  0.25500000000E-02 0.  1.
    8880022    1    1    2    0    0  0.29546991974E+02  0.72527013029E+03  0.66867676221E+03  0.99870418642E+03  0.15294330000E+03 0.  0.
    8880022    1    1    2    0    0 -0.29546991974E+02 -0.72527013029E+03 -0.14417643398E+04  0.16214086009E+04  0.15294330000E+03 0.  0.
<mgrwt>
<rscale>  0 0.74180957E+03</rscale>
<asrwt>0</asrwt>
<pdfrwt beam="1">  1        2 0.14207886E+00 0.74180957E+03</pdfrwt>
<pdfrwt beam="2">  1       -2 0.26101541E+00 0.74180957E+03</pdfrwt>
<totfact> 0.16126783E+00</totfact>
</mgrwt>
</event>
<event>
 4    1  0.2202466E-008  0.1460575E+04  0.7818608E-02  0.8911102E-01
          2   -1    0    0  501    0  0.00000000000E+00  0.00000000000E+00  0.14392654149E+04  0.14392654149E+04  0.25500000000E-02 0. -1.
         -2   -1    0    0    0  501 -0.00000000000E+00 -0.00000000000E+00 -0.20116903973E+04  0.20116903973E+04  0.25500000000E-02 0.  1.
    8880022    1    1    2    0    0 -0.13394654047E+04  0.56189018370E+03  0.59902072902E+03  0.15786404390E+04  0.15294330000E+03 0.  0.
    8880022    1    1    2    0    0  0.13394654047E+04 -0.56189018370E+03 -0.11714457114E+04  0.18723153732E+04  0.15294330000E+03 0.  0.
<mgrwt>
<rscale>  0 0.14605752E+04</rscale>
<asrwt>0</asrwt>
<pdfrwt beam="1">  1        2 0.22142545E+00 0.14605752E+04</pdfrwt>
<pdfrwt beam="2">  1       -2 0.30949083E+00 0.14605752E+04</pdfrwt>
<totfact> 0.36127305E-01</totfact>
</mgrwt>
</event>
<event>
 4    1  0.2202466E-008  0.5909257E+03  0.7818608E-02  0.9924413E-01
         -2   -1    0    0    0  501 -0.00000000000E+00  0.00000000000E+00  0.64864759497E+03  0.64864759498E+03  0.25500000000E-02 0.  1.
          2   -1    0    0  501    0  0.00000000000E+00 -0.00000000000E+00 -0.11997181122E+04  0.11997181122E+04  0.25500000000E-02 0. -1.
    8880022    1    1    2    0    0  0.55798442356E+03  0.12022868626E+03 -0.96172319119E+03  0.11287624655E+04  0.15294330000E+03 0.  0.
    8880022    1    1    2    0    0 -0.55798442356E+03 -0.12022868626E+03  0.41065267392E+03  0.71960324176E+03  0.15294330000E+03 0.  0.
<mgrwt>
<rscale>  0 0.59092572E+03</rscale>
<asrwt>0</asrwt>
<pdfrwt beam="1">  1        2 0.18457202E+00 0.59092572E+03</pdfrwt>
<pdfrwt beam="2">  1       -2 0.99791938E-01 0.59092572E+03</pdfrwt>
<totfact> 0.16369995E+01</totfact>
</mgrwt>
</event>
<event>
 4    1  0.2202466E-008  0.5757526E+03  0.7818608E-02  0.9957029E-01
         -2   -1    0    0    0  501 -0.00000000000E+00  0.00000000000E+00  0.71947552327E+03  0.71947552328E+03  0.25500000000E-02 0.  1.
          2   -1    0    0  501    0  0.00000000000E+00 -0.00000000000E+00 -0.20410639380E+04  0.20410639380E+04  0.25500000000E-02 0. -1.
    8880022    1    1    2    0    0 -0.46616606550E+03  0.30131142786E+03  0.55373717741E+03  0.79882156446E+03  0.15294330000E+03 0.  0.
    8880022    1    1    2    0    0  0.46616606550E+03 -0.30131142786E+03 -0.18753255921E+04  0.19617178968E+04  0.15294330000E+03 0.  0.
<mgrwt>
<rscale>  0 0.57575258E+03</rscale>
<asrwt>0</asrwt>
<pdfrwt beam="1">  1        2 0.31400984E+00 0.57575258E+03</pdfrwt>
<pdfrwt beam="2">  1       -2 0.11068854E+00 0.57575258E+03</pdfrwt>
<totfact> 0.44015941E+00</totfact>
</mgrwt>
</event>
<event>
 4    1  0.2202466E-008  0.1344920E+04  0.7818608E-02  0.8994683E-01
          2   -1    0    0  501    0  0.00000000000E+00  0.00000000000E+00  0.30942845655E+04  0.30942845655E+04  0.25500000000E-02 0. -1.
         -2   -1    0    0    0  501 -0.00000000000E+00 -0.00000000000E+00 -0.77680866468E+03  0.77680866468E+03  0.25500000000E-02 0.  1.
    8880022    1    1    2    0    0 -0.12907143890E+04  0.34564976066E+03  0.21216201071E+04  0.25119874448E+04  0.15294330000E+03 0.  0.
    8880022    1    1    2    0    0  0.12907143890E+04 -0.34564976066E+03  0.19585579374E+03  0.13591057854E+04  0.15294330000E+03 0.  0.
<mgrwt>
<rscale>  0 0.13449197E+04</rscale>
<asrwt>0</asrwt>
<pdfrwt beam="1">  1        2 0.47604378E+00 0.13449197E+04</pdfrwt>
<pdfrwt beam="2">  1       -2 0.11950902E+00 0.13449197E+04</pdfrwt>
<totfact> 0.79047825E-01</totfact>
</mgrwt>
</event>
<event>
 4    1  0.2202466E-008  0.1382451E+04  0.7818608E-02  0.8966620E-01
         -2   -1    0    0    0  501 -0.00000000000E+00  0.00000000000E+00  0.14045139201E+04  0.14045139201E+04  0.25500000000E-02 0.  1.
          2   -1    0    0  501    0  0.00000000000E+00 -0.00000000000E+00 -0.14350113865E+04  0.14350113865E+04  0.25500000000E-02 0. -1.
    8880022    1    1    2    0    0 -0.13254486491E+04 -0.36188999538E+03  0.30776111250E+03  0.14162934179E+04  0.15294330000E+03 0.  0.
    8880022    1    1    2    0    0  0.13254486491E+04  0.36188999538E+03 -0.33825857890E+03  0.14232318888E+04  0.15294330000E+03 0.  0.
<mgrwt>
<rscale>  0 0.13824508E+04</rscale>
<asrwt>0</asrwt>
<pdfrwt beam="1">  1        2 0.22077098E+00 0.13824508E+04</pdfrwt>
<pdfrwt beam="2">  1       -2 0.21607906E+00 0.13824508E+04</pdfrwt>
<totfact> 0.13775133E+00</totfact>
</mgrwt>
</event>
<event>
 4    1  0.2202466E-008  0.1215439E+04  0.7818608E-02  0.9099449E-01
         -2   -1    0    0    0  501 -0.00000000000E+00  0.00000000000E+00  0.11238250598E+04  0.11238250598E+04  0.25500000000E-02 0.  1.
          2   -1    0    0  501    0  0.00000000000E+00 -0.00000000000E+00 -0.22886696904E+04  0.22886696904E+04  0.25500000000E-02 0. -1.
    8880022    1    1    2    0    0  0.11861477906E+04  0.21668912785E+03  0.53075131478E+03  0.13262689661E+04  0.15294330000E+03 0.  0.
    8880022    1    1    2    0    0 -0.11861477906E+04 -0.21668912785E+03 -0.16955959454E+04  0.20862257841E+04  0.15294330000E+03 0.  0.
<mgrwt>
<rscale>  0 0.12154392E+04</rscale>
<asrwt>0</asrwt>
<pdfrwt beam="1">  1        2 0.35210303E+00 0.12154392E+04</pdfrwt>
<pdfrwt beam="2">  1       -2 0.17289616E+00 0.12154392E+04</pdfrwt>
<totfact> 0.90945655E-01</totfact>
</mgrwt>
</event>
<event>
 4    1  0.2202466E-008  0.3385450E+03  0.7818608E-02  0.1067417E+00
          2   -1    0    0  501    0  0.00000000000E+00  0.00000000000E+00  0.13037998306E+04  0.13037998306E+04  0.25500000000E-02 0. -1.
         -2   -1    0    0    0  501 -0.00000000000E+00 -0.00000000000E+00 -0.18798309068E+03  0.18798309069E+03  0.25500000000E-02 0.  1.
    8880022    1    1    2    0    0  0.30144464919E+03 -0.18766881545E+02  0.11021378768E+04  0.11529616754E+04  0.15294330000E+03 0.  0.
    8880022    1    1    2    0    0 -0.30144464919E+03  0.18766881545E+02  0.13678863097E+02  0.33882124591E+03  0.15294330000E+03 0.  0.
<mgrwt>
<rscale>  0 0.33854501E+03</rscale>
<asrwt>0</asrwt>
<pdfrwt beam="1">  1        2 0.20058460E+00 0.33854501E+03</pdfrwt>
<pdfrwt beam="2">  1       -2 0.28920474E-01 0.33854501E+03</pdfrwt>
<totfact> 0.19062248E+02</totfact>
</mgrwt>
</event>
<event>
 4    1  0.2202466E-008  0.6703714E+03  0.7818608E-02  0.9769287E-01
          2   -1    0    0  501    0  0.00000000000E+00  0.00000000000E+00  0.10392394643E+04  0.10392394643E+04  0.25500000000E-02 0. -1.
         -2   -1    0    0    0  501 -0.00000000000E+00 -0.00000000000E+00 -0.19593607546E+04  0.19593607546E+04  0.25500000000E-02 0.  1.
    8880022    1    1    2    0    0  0.30177478170E+03 -0.57873841626E+03 -0.17836129517E+04  0.19054324936E+04  0.15294330000E+03 0.  0.
    8880022    1    1    2    0    0 -0.30177478170E+03  0.57873841626E+03  0.86349166143E+03  0.10931677253E+04  0.15294330000E+03 0.  0.
<mgrwt>
<rscale>  0 0.67037141E+03</rscale>
<asrwt>0</asrwt>
<pdfrwt beam="1">  1        2 0.15988299E+00 0.67037141E+03</pdfrwt>
<pdfrwt beam="2">  1       -2 0.30144012E+00 0.67037141E+03</pdfrwt>
<totfact> 0.78863994E-01</totfact>
</mgrwt>
</event>
<event>
 4    1  0.2202466E-008  0.7758865E+03  0.7818608E-02  0.9595592E-01
         -2   -1    0    0    0  501 -0.00000000000E+00  0.00000000000E+00  0.29564614443E+04  0.29564614443E+04  0.25500000000E-02 0.  1.
          2   -1    0    0  501    0  0.00000000000E+00 -0.00000000000E+00 -0.12937780301E+04  0.12937780301E+04  0.25500000000E-02 0. -1.
    8880022    1    1    2    0    0  0.31172787988E+03  0.69385435522E+03  0.27820750336E+04  0.28882419017E+04  0.15294330000E+03 0.  0.
    8880022    1    1    2    0    0 -0.31172787988E+03 -0.69385435522E+03 -0.11193916195E+04  0.13619975727E+04  0.15294330000E+03 0.  0.
<mgrwt>
<rscale>  0 0.77588645E+03</rscale>
<asrwt>0</asrwt>
<pdfrwt beam="1">  1        2 0.19904278E+00 0.77588645E+03</pdfrwt>
<pdfrwt beam="2">  1       -2 0.45484022E+00 0.77588645E+03</pdfrwt>
<totfact> 0.57462654E-02</totfact>
</mgrwt>
</event>
<event>
 4    1  0.2907860E-008  0.1098364E+04  0.7818608E-02  0.9206788E-01
         -2   -1    0    0    0  501 -0.00000000000E+00  0.00000000000E+00  0.95595848514E+03  0.95595848515E+03  0.25500000000E-02 0.  1.
          2   -1    0    0  501    0  0.00000000000E+00 -0.00000000000E+00 -0.33072616387E+04  0.33072616387E+04  0.25500000000E-02 0. -1.
    8880022    1    1    2    0    0  0.28832614183E+03 -0.10487510843E+04  0.50064101778E+03  0.12070807274E+04  0.15294330000E+03 0.  0.
    8880022    1    1    2    0    0 -0.28832614183E+03  0.10487510843E+04 -0.28519441714E+04  0.30561393965E+04  0.15294330000E+03 0.  0.
<mgrwt>
<rscale>  0 0.10983635E+04</rscale>
<asrwt>0</asrwt>
<pdfrwt beam="1">  1        2 0.50880948E+00 0.10983635E+04</pdfrwt>
<pdfrwt beam="2">  1       -2 0.14707054E+00 0.10983635E+04</pdfrwt>
<totfact> 0.35021336E-01</totfact>
</mgrwt>
</event>
<event>
 4    1  0.2202466E-008  0.4029094E+03  0.7818608E-02  0.1042777E+00
          2   -1    0    0  501    0  0.00000000000E+00  0.00000000000E+00  0.52755448055E+03  0.52755448055E+03  0.25500000000E-02 0. -1.
         -2   -1    0    0    0  501 -0.00000000000E+00 -0.00000000000E+00 -0.19042190085E+04  0.19042190085E+04  0.25500000000E-02 0.  1.
    8880022    1    1    2    0    0  0.26183336493E+03 -0.26530665586E+03  0.42498718566E+03  0.58561941022E+03  0.15294330000E+03 0. -1.
    8880022    1    1    2    0    0 -0.26183336493E+03  0.26530665586E+03 -0.18016517137E+04  0.18461540789E+04  0.15294330000E+03 0.  0.
<mgrwt>
<rscale>  0 0.40290940E+03</rscale>
<asrwt>0</asrwt>
<pdfrwt beam="1">  1        2 0.81162229E-01 0.40290940E+03</pdfrwt>
<pdfrwt beam="2">  1       -2 0.29295677E+00 0.40290940E+03</pdfrwt>
<totfact> 0.22722712E+00</totfact>
</mgrwt>
</event>
<event>
 4    1  0.2202466E-008  0.7661615E+03  0.7818608E-02  0.9610331E-01
          2   -1    0    0  501    0  0.00000000000E+00  0.00000000000E+00  0.48638006062E+03  0.48638006063E+03  0.25500000000E-02 0. -1.
         -2   -1    0    0    0  501 -0.00000000000E+00 -0.00000000000E+00 -0.18920858195E+04  0.18920858195E+04  0.25500000000E-02 0.  1.
    8880022    1    1    2    0    0 -0.48085226303E+03 -0.57653525884E+03  0.12806432346E+02  0.76626853079E+03  0.15294330000E+03 0.  0.
    8880022    1    1    2    0    0  0.48085226303E+03  0.57653525884E+03 -0.14185121912E+04  0.16121973493E+04  0.15294330000E+03 0.  0.
<mgrwt>
<rscale>  0 0.76616151E+03</rscale>
<asrwt>0</asrwt>
<pdfrwt beam="1">  1        2 0.74827703E-01 0.76616151E+03</pdfrwt>
<pdfrwt beam="2">  1       -2 0.29109012E+00 0.76616151E+03</pdfrwt>
<totfact> 0.23751741E+00</totfact>
</mgrwt>
</event>
<event>
 4    1  0.2202466E-008  0.1198148E+04  0.7818608E-02  0.9114479E-01
         -2   -1    0    0    0  501 -0.00000000000E+00  0.00000000000E+00  0.79582053589E+03  0.79582053590E+03  0.25500000000E-02 0.  1.
          2   -1    0    0  501    0  0.00000000000E+00 -0.00000000000E+00 -0.36706870900E+04  0.36706870900E+04  0.25500000000E-02 0. -1.
    8880022    1    1    2    0    0 -0.11744877972E+04 -0.18095451853E+03  0.15519763838E+03  0.12081573091E+04  0.15294330000E+03 0.  0.
    8880022    1    1    2    0    0  0.11744877972E+04  0.18095451853E+03 -0.30300641925E+04  0.32583503168E+04  0.15294330000E+03 0.  0.
<mgrwt>
<rscale>  0 0.11981476E+04</rscale>
<asrwt>0</asrwt>
<pdfrwt beam="1">  1        2 0.56472108E+00 0.11981476E+04</pdfrwt>
<pdfrwt beam="2">  1       -2 0.12243393E+00 0.11981476E+04</pdfrwt>
<totfact> 0.31041725E-01</totfact>
</mgrwt>
</event>
<event>
 4    1  0.2202466E-008  0.8167043E+03  0.7818608E-02  0.9536148E-01
         -2   -1    0    0    0  501 -0.00000000000E+00  0.00000000000E+00  0.60097814718E+03  0.60097814718E+03  0.25500000000E-02 0.  1.
          2   -1    0    0  501    0  0.00000000000E+00 -0.00000000000E+00 -0.19225161852E+04  0.19225161852E+04  0.25500000000E-02 0. -1.
    8880022    1    1    2    0    0  0.34454553221E+03 -0.72450161976E+03 -0.14810995225E+04  0.16913490679E+04  0.15294330000E+03 0.  0.
    8880022    1    1    2    0    0 -0.34454553221E+03  0.72450161976E+03  0.15956148454E+03  0.83214526446E+03  0.15294330000E+03 0.  0.
<mgrwt>
<rscale>  0 0.81670428E+03</rscale>
<asrwt>0</asrwt>
<pdfrwt beam="1">  1        2 0.29577172E+00 0.81670428E+03</pdfrwt>
<pdfrwt beam="2">  1       -2 0.92458177E-01 0.81670428E+03</pdfrwt>
<totfact> 0.74987508E+00</totfact>
</mgrwt>
</event>
<event>
 4    1  0.2202466E-008  0.1342697E+04  0.7818608E-02  0.8996375E-01
          2   -1    0    0  501    0  0.00000000000E+00  0.00000000000E+00  0.22278843619E+04  0.22278843619E+04  0.25500000000E-02 0. -1.
         -2   -1    0    0    0  501 -0.00000000000E+00 -0.00000000000E+00 -0.10719916988E+04  0.10719916988E+04  0.25500000000E-02 0.  1.
    8880022    1    1    2    0    0 -0.82030603145E+03 -0.10519229501E+04 -0.23894832907E+03  0.13637931790E+04  0.15294330000E+03 0.  0.
    8880022    1    1    2    0    0  0.82030603145E+03  0.10519229501E+04  0.13948409922E+04  0.19360828817E+04  0.15294330000E+03 0.  0.
<mgrwt>
<rscale>  0 0.13426971E+04</rscale>
<asrwt>0</asrwt>
<pdfrwt beam="1">  1        2 0.34275144E+00 0.13426971E+04</pdfrwt>
<pdfrwt beam="2">  1       -2 0.16492180E+00 0.13426971E+04</pdfrwt>
<totfact> 0.11059915E+00</totfact>
</mgrwt>
</event>
<event>
 4    1  0.2202466E-008  0.1104264E+04  0.7818608E-02  0.9201045E-01
         -2   -1    0    0    0  501 -0.00000000000E+00  0.00000000000E+00  0.72005481819E+03  0.72005481819E+03  0.25500000000E-02 0.  1.
          2   -1    0    0  501    0  0.00000000000E+00 -0.00000000000E+00 -0.23256452375E+04  0.23256452375E+04  0.25500000000E-02 0. -1.
    8880022    1    1    2    0    0  0.87868423881E+03 -0.65109326528E+03 -0.15967575805E+04  0.19414002306E+04  0.15294330000E+03 0.  0.
    8880022    1    1    2    0    0 -0.87868423881E+03  0.65109326528E+03 -0.88328388508E+01  0.11042998251E+04  0.15294330000E+03 0.  0.
<mgrwt>
<rscale>  0 0.11042645E+04</rscale>
<asrwt>0</asrwt>
<pdfrwt beam="1">  1        2 0.35779157E+00 0.11042645E+04</pdfrwt>
<pdfrwt beam="2">  1       -2 0.11077767E+00 0.11042645E+04</pdfrwt>
<totfact> 0.28064847E+00</totfact>
</mgrwt>
</event>
<event>
 4    1  0.2202466E-008  0.6939282E+03  0.7818608E-02  0.9727673E-01
          2   -1    0    0  501    0  0.00000000000E+00  0.00000000000E+00  0.13637851896E+04  0.13637851896E+04  0.25500000000E-02 0. -1.
         -2   -1    0    0    0  501 -0.00000000000E+00 -0.00000000000E+00 -0.59380890450E+03  0.59380890450E+03  0.25500000000E-02 0.  1.
    8880022    1    1    2    0    0 -0.55224109533E+03  0.39137503922E+03  0.10081862470E+04  0.12239182204E+04  0.15294330000E+03 0.  0.
    8880022    1    1    2    0    0  0.55224109533E+03 -0.39137503922E+03 -0.23820996186E+03  0.73367587369E+03  0.15294330000E+03 0.  0.
<mgrwt>
<rscale>  0 0.69392817E+03</rscale>
<asrwt>0</asrwt>
<pdfrwt beam="1">  1        2 0.20981310E+00 0.69392817E+03</pdfrwt>
<pdfrwt beam="2">  1       -2 0.91355217E-01 0.69392817E+03</pdfrwt>
<totfact> 0.15950367E+01</totfact>
</mgrwt>
</event>
<event>
 4    1  0.2202466E-008  0.3360390E+03  0.7818608E-02  0.1068496E+00
         -2   -1    0    0    0  501 -0.00000000000E+00  0.00000000000E+00  0.13832928062E+03  0.13832928064E+03  0.25500000000E-02 0.  1.
          2   -1    0    0  501    0  0.00000000000E+00 -0.00000000000E+00 -0.25082518037E+04  0.25082518037E+04  0.25500000000E-02 0. -1.
    8880022    1    1    2    0    0  0.29910361420E+03 -0.82217682015E+01 -0.22717869527E+04  0.22965056458E+04  0.15294330000E+03 0.  0.
    8880022    1    1    2    0    0 -0.29910361420E+03  0.82217682015E+01 -0.98135570351E+02  0.35007543856E+03  0.15294330000E+03 0.  1.
<mgrwt>
<rscale>  0 0.33603902E+03</rscale>
<asrwt>0</asrwt>
<pdfrwt beam="1">  1        2 0.38588486E+00 0.33603902E+03</pdfrwt>
<pdfrwt beam="2">  1       -2 0.21281430E-01 0.33603902E+03</pdfrwt>
<totfact> 0.73931541E+01</totfact>
</mgrwt>
</event>
<event>
 4    1  0.2202466E-008  0.1283608E+04  0.7818608E-02  0.9042666E-01
         -2   -1    0    0    0  501 -0.00000000000E+00  0.00000000000E+00  0.11764714342E+04  0.11764714342E+04  0.25500000000E-02 0.  1.
          2   -1    0    0  501    0  0.00000000000E+00 -0.00000000000E+00 -0.20868293727E+04  0.20868293727E+04  0.25500000000E-02 0. -1.
    8880022    1    1    2    0    0  0.12740974873E+04 -0.30569791159E+02  0.48054834913E+03  0.13706120123E+04  0.15294330000E+03 0.  0.
    8880022    1    1    2    0    0 -0.12740974873E+04  0.30569791159E+02 -0.13909062877E+04  0.18926887947E+04  0.15294330000E+03 0.  0.
<mgrwt>
<rscale>  0 0.12836084E+04</rscale>
<asrwt>0</asrwt>
<pdfrwt beam="1">  1        2 0.32105067E+00 0.12836084E+04</pdfrwt>
<pdfrwt beam="2">  1       -2 0.18099561E+00 0.12836084E+04</pdfrwt>
<totfact> 0.10267174E+00</totfact>
</mgrwt>
</event>
<event>
 4    1  0.2202466E-008  0.2020246E+03  0.7818608E-02  0.1148042E+00
         -2   -1    0    0    0  501 -0.00000000000E+00  0.00000000000E+00  0.59120342061E+03  0.59120342061E+03  0.25500000000E-02 0.  1.
          2   -1    0    0  501    0  0.00000000000E+00 -0.00000000000E+00 -0.18580436955E+03  0.18580436957E+03  0.25500000000E-02 0. -1.
    8880022    1    1    2    0    0  0.48387124670E+02  0.12280461886E+03 -0.10528664309E+03  0.22781399973E+03  0.15294330000E+03 0.  0.
    8880022    1    1    2    0    0 -0.48387124670E+02 -0.12280461886E+03  0.51068569415E+03  0.54919379045E+03  0.15294330000E+03 0.  1.
<mgrwt>
<rscale>  0 0.20202461E+03</rscale>
<asrwt>0</asrwt>
<pdfrwt beam="1">  1        2 0.28585287E-01 0.20202461E+03</pdfrwt>
<pdfrwt beam="2">  1       -2 0.90954374E-01 0.20202461E+03</pdfrwt>
<totfact> 0.19914822E+02</totfact>
</mgrwt>
</event>
<event>
 4    1  0.2202466E-008  0.6927579E+03  0.7818608E-02  0.9729698E-01
         -2   -1    0    0    0  501 -0.00000000000E+00  0.00000000000E+00  0.60557744088E+03  0.60557744089E+03  0.25500000000E-02 0.  1.
          2   -1    0    0  501    0  0.00000000000E+00 -0.00000000000E+00 -0.35496378735E+04  0.35496378735E+04  0.25500000000E-02 0. -1.
    8880022    1    1    2    0    0 -0.67558872709E+03 -0.10086621975E+02  0.35902572560E+03  0.78026469405E+03  0.15294330000E+03 0.  1.
    8880022    1    1    2    0    0  0.67558872709E+03  0.10086621975E+02 -0.33030861582E+04  0.33749506203E+04  0.15294330000E+03 0.  0.
<mgrwt>
<rscale>  0 0.69275791E+03</rscale>
<asrwt>0</asrwt>
<pdfrwt beam="1">  1        2 0.54609812E+00 0.69275791E+03</pdfrwt>
<pdfrwt beam="2">  1       -2 0.93165762E-01 0.69275791E+03</pdfrwt>
<totfact> 0.80977741E-01</totfact>
</mgrwt>
</event>
<event>
 4    1  0.2202466E-008  0.7223377E+03  0.7818608E-02  0.9679776E-01
          2   -1    0    0  501    0  0.00000000000E+00  0.00000000000E+00  0.44171746822E+04  0.44171746822E+04  0.25500000000E-02 0. -1.
         -2   -1    0    0    0  501 -0.00000000000E+00 -0.00000000000E+00 -0.13732877625E+04  0.13732877625E+04  0.25500000000E-02 0.  1.
    8880022    1    1    2    0    0 -0.43337091552E+03 -0.55728785026E+03  0.42898586319E+04  0.43502481346E+04  0.15294330000E+03 0.  0.
    8880022    1    1    2    0    0  0.43337091552E+03  0.55728785026E+03 -0.12459717122E+04  0.14402143101E+04  0.15294330000E+03 0.  0.
<mgrwt>
<rscale>  0 0.72233770E+03</rscale>
<asrwt>0</asrwt>
<pdfrwt beam="1">  1        2 0.67956532E+00 0.72233770E+03</pdfrwt>
<pdfrwt beam="2">  1       -2 0.21127504E+00 0.72233770E+03</pdfrwt>
<totfact> 0.19299713E-02</totfact>
</mgrwt>
</event>
<event>
 4    1  0.2202466E-008  0.2711512E+03  0.7818608E-02  0.1100623E+00
          2   -1    0    0  501    0  0.00000000000E+00  0.00000000000E+00  0.12859466968E+03  0.12859466970E+03  0.25500000000E-02 0. -1.
         -2   -1    0    0    0  501 -0.00000000000E+00 -0.00000000000E+00 -0.20011801889E+04  0.20011801889E+04  0.25500000000E-02 0.  1.
    8880022    1    1    2    0    0 -0.15419643685E+03 -0.16234156656E+03 -0.36291147049E+02  0.27356905114E+03  0.15294330000E+03 0.  0.
    8880022    1    1    2    0    0  0.15419643685E+03  0.16234156656E+03 -0.18362943722E+04  0.18562058075E+04  0.15294330000E+03 0.  0.
<mgrwt>
<rscale>  0 0.27115121E+03</rscale>
<asrwt>0</asrwt>
<pdfrwt beam="1">  1        2 0.19783797E-01 0.27115121E+03</pdfrwt>
<pdfrwt beam="2">  1       -2 0.30787385E+00 0.27115121E+03</pdfrwt>
<totfact> 0.92764674E+00</totfact>
</mgrwt>
</event>
<event>
 4    1  0.2202466E-008  0.1363715E+04  0.7818608E-02  0.8980510E-01
         -2   -1    0    0    0  501 -0.00000000000E+00  0.00000000000E+00  0.12477836900E+04  0.12477836900E+04  0.25500000000E-02 0.  1.
          2   -1    0    0  501    0  0.00000000000E+00 -0.00000000000E+00 -0.21637844335E+04  0.21637844335E+04  0.25500000000E-02 0. -1.
    8880022    1    1    2    0    0 -0.13193802126E+04 -0.30913343883E+03  0.49357410626E+03  0.14502877921E+04  0.15294330000E+03 0.  0.
    8880022    1    1    2    0    0  0.13193802126E+04  0.30913343883E+03 -0.14095748498E+04  0.19612803315E+04  0.15294330000E+03 0.  0.
<mgrwt>
<rscale>  0 0.13637152E+04</rscale>
<asrwt>0</asrwt>
<pdfrwt beam="1">  1        2 0.33288991E+00 0.13637152E+04</pdfrwt>
<pdfrwt beam="2">  1       -2 0.19196672E+00 0.13637152E+04</pdfrwt>
<totfact> 0.77599131E-01</totfact>
</mgrwt>
</event>
<event>
 4    1  0.2202466E-008  0.4126985E+03  0.7818608E-02  0.1039469E+00
         -2   -1    0    0    0  501 -0.00000000000E+00  0.00000000000E+00  0.90121079986E+03  0.90121079986E+03  0.25500000000E-02 0.  1.
          2   -1    0    0  501    0  0.00000000000E+00 -0.00000000000E+00 -0.15017474651E+04  0.15017474651E+04  0.25500000000E-02 0. -1.
    8880022    1    1    2    0    0  0.23226160973E+03  0.30493110133E+03  0.82306845047E+03  0.92073978903E+03  0.15294330000E+03 0.  0.
    8880022    1    1    2    0    0 -0.23226160973E+03 -0.30493110133E+03 -0.14236051157E+04  0.14822184759E+04  0.15294330000E+03 0.  0.
<mgrwt>
<rscale>  0 0.41269854E+03</rscale>
<asrwt>0</asrwt>
<pdfrwt beam="1">  1        2 0.23103807E+00 0.41269854E+03</pdfrwt>
<pdfrwt beam="2">  1       -2 0.13864782E+00 0.41269854E+03</pdfrwt>
<totfact> 0.51268564E+00</totfact>
</mgrwt>
</event>
<event>
 4    1  0.2202466E-008  0.7614298E+03  0.7818608E-02  0.9617587E-01
          2   -1    0    0  501    0  0.00000000000E+00  0.00000000000E+00  0.27116066436E+04  0.27116066436E+04  0.25500000000E-02 0. -1.
         -2   -1    0    0    0  501 -0.00000000000E+00 -0.00000000000E+00 -0.61677417243E+03  0.61677417244E+03  0.25500000000E-02 0.  1.
    8880022    1    1    2    0    0  0.65861801670E+03 -0.35015145790E+03 -0.29773711108E+03  0.81757126645E+03  0.15294330000E+03 0.  0.
    8880022    1    1    2    0    0 -0.65861801670E+03  0.35015145790E+03  0.23925695822E+04  0.25108095495E+04  0.15294330000E+03 0.  0.
<mgrwt>
<rscale>  0 0.76142983E+03</rscale>
<asrwt>0</asrwt>
<pdfrwt beam="1">  1        2 0.41717024E+00 0.76142983E+03</pdfrwt>
<pdfrwt beam="2">  1       -2 0.94888336E-01 0.76142983E+03</pdfrwt>
<totfact> 0.25765339E+00</totfact>
</mgrwt>
</event>
<event>
 4    1  0.2202466E-008  0.1384757E+04  0.7818608E-02  0.8964927E-01
          2   -1    0    0  501    0  0.00000000000E+00  0.00000000000E+00  0.22417387577E+04  0.22417387577E+04  0.25500000000E-02 0. -1.
         -2   -1    0    0    0  501 -0.00000000000E+00 -0.00000000000E+00 -0.20131763057E+04  0.20131763057E+04  0.25500000000E-02 0.  1.
    8880022    1    1    2    0    0  0.93505328751E+03  0.10098686344E+04 -0.14990926901E+04  0.20407914778E+04  0.15294330000E+03 0.  0.
    8880022    1    1    2    0    0 -0.93505328751E+03 -0.10098686344E+04  0.17276551421E+04  0.22141235856E+04  0.15294330000E+03 0.  0.
<mgrwt>
<rscale>  0 0.13847566E+04</rscale>
<asrwt>0</asrwt>
<pdfrwt beam="1">  1        2 0.34488289E+00 0.13847566E+04</pdfrwt>
<pdfrwt beam="2">  1       -2 0.30971943E+00 0.13847566E+04</pdfrwt>
<totfact> 0.12910505E-01</totfact>
</mgrwt>
</event>
<event>
 4    1  0.2202466E-008  0.6923799E+03  0.7818608E-02  0.9730353E-01
          2   -1    0    0  501    0  0.00000000000E+00  0.00000000000E+00  0.20346007410E+04  0.20346007410E+04  0.25500000000E-02 0. -1.
         -2   -1    0    0    0  501 -0.00000000000E+00 -0.00000000000E+00 -0.44939832476E+03  0.44939832477E+03  0.25500000000E-02 0.  1.
    8880022    1    1    2    0    0  0.16405430603E+03  0.65504538319E+03 -0.64020138706E+02  0.69533337367E+03  0.15294330000E+03 0.  0.
    8880022    1    1    2    0    0 -0.16405430603E+03 -0.65504538319E+03  0.16492225550E+04  0.17886656921E+04  0.15294330000E+03 0.  0.
<mgrwt>
<rscale>  0 0.69237990E+03</rscale>
<asrwt>0</asrwt>
<pdfrwt beam="1">  1        2 0.31301550E+00 0.69237990E+03</pdfrwt>
<pdfrwt beam="2">  1       -2 0.69138204E-01 0.69237990E+03</pdfrwt>
<totfact> 0.12757663E+01</totfact>
</mgrwt>
</event>
<event>
 4    1  0.2202466E-008  0.1036243E+04  0.7818608E-02  0.9269663E-01
          2   -1    0    0  501    0  0.00000000000E+00  0.00000000000E+00  0.20029401110E+04  0.20029401110E+04  0.25500000000E-02 0. -1.
         -2   -1    0    0    0  501 -0.00000000000E+00 -0.00000000000E+00 -0.10638831666E+04  0.10638831666E+04  0.25500000000E-02 0.  1.
    8880022    1    1    2    0    0 -0.91049053265E+03  0.47054819474E+03 -0.61049851830E+03  0.12027089039E+04  0.15294330000E+03 0.  0.
    8880022    1    1    2    0    0  0.91049053265E+03 -0.47054819474E+03  0.15495554626E+04  0.18641143738E+04  0.15294330000E+03 0.  0.
<mgrwt>
<rscale>  0 0.10362433E+04</rscale>
<asrwt>0</asrwt>
<pdfrwt beam="1">  1        2 0.30814463E+00 0.10362433E+04</pdfrwt>
<pdfrwt beam="2">  1       -2 0.16367433E+00 0.10362433E+04</pdfrwt>
<totfact> 0.15639184E+00</totfact>
</mgrwt>
</event>
<event>
 4    1  0.2202466E-008  0.5543287E+03  0.7818608E-02  0.1000497E+00
          2   -1    0    0  501    0  0.00000000000E+00  0.00000000000E+00  0.45512660080E+03  0.45512660080E+03  0.25500000000E-02 0. -1.
         -2   -1    0    0    0  501 -0.00000000000E+00 -0.00000000000E+00 -0.87471756970E+03  0.87471756970E+03  0.25500000000E-02 0.  1.
    8880022    1    1    2    0    0  0.34340034877E+03 -0.40738787213E+03 -0.52739364401E+03  0.76513030697E+03  0.15294330000E+03 0.  0.
    8880022    1    1    2    0    0 -0.34340034877E+03  0.40738787213E+03  0.10780267511E+03  0.56471386353E+03  0.15294330000E+03 0.  0.
<mgrwt>
<rscale>  0 0.55432872E+03</rscale>
<asrwt>0</asrwt>
<pdfrwt beam="1">  1        2 0.70019477E-01 0.55432872E+03</pdfrwt>
<pdfrwt beam="2">  1       -2 0.13457193E+00 0.55432872E+03</pdfrwt>
<totfact> 0.28132179E+01</totfact>
</mgrwt>
</event>
<event>
 4    1  0.2202466E-008  0.1508509E+04  0.7818608E-02  0.8878814E-01
         -2   -1    0    0    0  501 -0.00000000000E+00  0.00000000000E+00  0.16229740671E+04  0.16229740671E+04  0.25500000000E-02 0.  1.
          2   -1    0    0  501    0  0.00000000000E+00 -0.00000000000E+00 -0.19837626246E+04  0.19837626246E+04  0.25500000000E-02 0. -1.
    8880022    1    1    2    0    0 -0.10043339387E+04  0.11151330092E+04  0.79609780888E+03  0.17056880321E+04  0.15294330000E+03 0.  0.
    8880022    1    1    2    0    0  0.10043339387E+04 -0.11151330092E+04 -0.11568863663E+04  0.19010486596E+04  0.15294330000E+03 0.  0.
<mgrwt>
<rscale>  0 0.15085092E+04</rscale>
<asrwt>0</asrwt>
<pdfrwt beam="1">  1        2 0.30519425E+00 0.15085092E+04</pdfrwt>
<pdfrwt beam="2">  1       -2 0.24968832E+00 0.15085092E+04</pdfrwt>
<totfact> 0.41245037E-01</totfact>
</mgrwt>
</event>
<event>
 4    1  0.2202466E-008  0.8353261E+03  0.7818608E-02  0.9510246E-01
         -2   -1    0    0    0  501 -0.00000000000E+00  0.00000000000E+00  0.24564637022E+04  0.24564637022E+04  0.25500000000E-02 0.  1.
          2   -1    0    0  501    0  0.00000000000E+00 -0.00000000000E+00 -0.10014306967E+04  0.10014306967E+04  0.25500000000E-02 0. -1.
    8880022    1    1    2    0    0 -0.52655504152E+03  0.63017287023E+03 -0.73582181303E+03  0.11131951544E+04  0.15294330000E+03 0.  0.
    8880022    1    1    2    0    0  0.52655504152E+03 -0.63017287023E+03  0.21908548186E+04  0.23446992445E+04  0.15294330000E+03 0.  0.
<mgrwt>
<rscale>  0 0.83532611E+03</rscale>
<asrwt>0</asrwt>
<pdfrwt beam="1">  1        2 0.15406626E+00 0.83532611E+03</pdfrwt>
<pdfrwt beam="2">  1       -2 0.37791750E+00 0.83532611E+03</pdfrwt>
<totfact> 0.27147010E-01</totfact>
</mgrwt>
</event>
